                               Psi4 1.9 release

  ==> Input File <==

--------------------------------------------------------------------------
MEMORY 60 GB

molecule dimer {
1 1
Li     0.000000     0.000000     0.000000
--
-1 1
F     1.584155     0.000000     0.000000

units ang
no_reorient
no_com
symmetry c1
}

set {
basis        aug-cc-pVTZ
scf_type     df
}

energy("mp2", bsse_type="cp")
--------------------------------------------------------------------------

                               Psi4 1.9 release
    Molecular point group: c1
  Charge       = -1
  Multiplicity = 1
  Basis Set: AUG-CC-PVTZ
    Blend: AUG-CC-PVTZ
  Basis Set: (AUG-CC-PVTZ AUX)
    Blend: AUG-CC-PVTZ-JKFIT + DEF2-UNIVERSAL-JKFIT
  @DF-RHF Final Energy:   -99.45088196273288
    Total Energy =                        -99.4508819627328933
 Dipole X            :        -29.9365798           26.9425718           -2.9940080
 Dipole Y            :         -0.0000000            0.0000000           -0.0000000
 Dipole Z            :         -0.0000000            0.0000000           -0.0000000
 Magnitude           :                                                    2.9940080
  Basis Set: (AUG-CC-PVTZ AUX)
    Blend: AUG-CC-PVTZ-RI + DEF2-QZVPP-RI
	 Reference Energy          =     -99.4508819627328791 [Eh]
	 Singles Energy            =      -0.0000000000000000 [Eh]
	 Same-Spin Energy          =      -0.0817406476357943 [Eh]
	 Opposite-Spin Energy      =      -0.2274064713787843 [Eh]
	 Correlation Energy        =      -0.3091471190145787 [Eh]
	 Total Energy              =     -99.7600290817474615 [Eh]
	 SCS Total Energy          =     -99.7510166109326804 [Eh]
                               Psi4 1.9 release
    Molecular point group: c1
  Multiplicity = 1
  Basis Set: AUG-CC-PVTZ
    Blend: AUG-CC-PVTZ
  Basis Set: (AUG-CC-PVTZ AUX)
    Blend: AUG-CC-PVTZ-JKFIT + DEF2-UNIVERSAL-JKFIT
  @DF-RHF Final Energy:    -7.23638314790708
    Total Energy =                         -7.2363831479070768
  Basis Set: (AUG-CC-PVTZ AUX)
	 Singles Energy            =      -0.0000000000000000 [Eh]
	 Same-Spin Energy          =       0.0000000000000000 [Eh]
	 Opposite-Spin Energy      =      -0.0127299981457467 [Eh]
	 Correlation Energy        =      -0.0127299981457467 [Eh]
	 Total Energy              =      -7.2491131460528235 [Eh]
	 SCS Total Energy          =      -7.2516591456819732 [Eh]
                               Psi4 1.9 release
    Molecular point group: c1

    Geometry (in Bohr), charge = 0, multiplicity = 1:

       Center              X                  Y                   Z               Mass
    ------------   -----------------  -----------------  -----------------  -----------------
         LI           0.000000000000     0.000000000000     0.000000000000     7.016003436600
         F            2.993619090275     0.000000000000     0.000000000000    18.998403162730

  Charge       = 0
  Multiplicity = 1
  Basis Set: AUG-CC-PVTZ
    Blend: AUG-CC-PVTZ
  Basis Set: (AUG-CC-PVTZ AUX)
    Blend: AUG-CC-PVTZ-JKFIT + DEF2-UNIVERSAL-JKFIT

    Orbital Energies [Eh]
    ---------------------

    Doubly Occupied:

       1A    -26.113819     2A     -2.437881     3A     -1.377099
       4A     -0.497212     5A     -0.473944     6A     -0.473944

  @DF-RHF Final Energy:  -106.98265584408880

   => Energetics <=

    Nuclear Repulsion Energy =              9.0191835319713043
    One-Electron Energy =                -169.2558803043893931
    Two-Electron Energy =                  53.2540409283293030
    Total Energy =                       -106.9826558440887965
 Dipole X            :        -29.5196951           26.9425718           -2.5771233
 Dipole Y            :         -0.0000000            0.0000000           -0.0000000
 Dipole Z            :         -0.0000000            0.0000000           -0.0000000
 Magnitude           :                                                    2.5771233
  Basis Set: (AUG-CC-PVTZ AUX)
    Blend: AUG-CC-PVTZ-RI + DEF2-QZVPP-RI
	 Reference Energy          =    -106.9826558440887965 [Eh]
	 Singles Energy            =      -0.0000000000000000 [Eh]
	 Same-Spin Energy          =      -0.0795514981439304 [Eh]
	 Opposite-Spin Energy      =      -0.2350558846388993 [Eh]
	 Correlation Energy        =      -0.3146073827828297 [Eh]
	 Total Energy              =    -107.2972632268716211 [Eh]

	 ================> DF-SCS-MP2 Energies <==================
	-----------------------------------------------------------
	 SCS Same-Spin Scale       =       0.3333333333333333 [-]
	 SCS Opposite-Spin Scale   =       1.2000000000000000 [-]
	 SCS Same-Spin Energy      =      -0.0265171660479768 [Eh]
	 SCS Opposite-Spin Energy  =      -0.2820670615666792 [Eh]
	 SCS Correlation Energy    =      -0.3085842276146560 [Eh]
	 SCS Total Energy          =    -107.2912400717034558 [Eh]
	-----------------------------------------------------------

*** Psi4 exiting successfully. Buy a developer a beer!
