                               Psi4 1.9 release

  ==> Input File <==

--------------------------------------------------------------------------
MEMORY 60 GB

molecule dimer {
1 1
Li     0.000000     0.000000     0.000000
--
-1 1
F     1.900986     0.000000     0.000000

units ang
no_reorient
no_com
symmetry c1
}

set {
basis        aug-cc-pVTZ
scf_type     df
}

energy("mp2", bsse_type="cp")
--------------------------------------------------------------------------

                               Psi4 1.9 release
    Molecular point group: c1
  Charge       = -1
  Multiplicity = 1
  Basis Set: AUG-CC-PVTZ
    Blend: AUG-CC-PVTZ
  Basis Set: (AUG-CC-PVTZ AUX)
    Blend: AUG-CC-PVTZ-JKFIT + DEF2-UNIVERSAL-JKFIT
  @DF-RHF Final Energy:   -99.45087810148564
    Total Energy =                        -99.4508781014856424
 Dipole X            :        -35.9235122           32.3310862           -3.5924260
 Dipole Y            :         -0.0000000            0.0000000           -0.0000000
 Dipole Z            :          0.0000000            0.0000000            0.0000000
 Magnitude           :                                                    3.5924260
  Basis Set: (AUG-CC-PVTZ AUX)
    Blend: AUG-CC-PVTZ-RI + DEF2-QZVPP-RI
	 Reference Energy          =     -99.4508781014856424 [Eh]
	 Singles Energy            =      -0.0000000000000000 [Eh]
	 Same-Spin Energy          =      -0.0817008710454372 [Eh]
	 Opposite-Spin Energy      =      -0.2271284864743617 [Eh]
	 Correlation Energy        =      -0.3088293575197988 [Eh]
	 Total Energy              =     -99.7597074590054405 [Eh]
	 SCS Total Energy          =     -99.7506659089366821 [Eh]
                               Psi4 1.9 release
    Molecular point group: c1
  Multiplicity = 1
  Basis Set: AUG-CC-PVTZ
    Blend: AUG-CC-PVTZ
  Basis Set: (AUG-CC-PVTZ AUX)
    Blend: AUG-CC-PVTZ-JKFIT + DEF2-UNIVERSAL-JKFIT
  @DF-RHF Final Energy:    -7.23638317184788
    Total Energy =                         -7.2363831718478764
  Basis Set: (AUG-CC-PVTZ AUX)
	 Singles Energy            =      -0.0000000000000000 [Eh]
	 Same-Spin Energy          =      -0.0000000000000000 [Eh]
	 Opposite-Spin Energy      =      -0.0120122930844163 [Eh]
	 Correlation Energy        =      -0.0120122930844163 [Eh]
	 Total Energy              =      -7.2483954649322930 [Eh]
	 SCS Total Energy          =      -7.2507979235491762 [Eh]
                               Psi4 1.9 release
    Molecular point group: c1

    Geometry (in Bohr), charge = 0, multiplicity = 1:

       Center              X                  Y                   Z               Mass
    ------------   -----------------  -----------------  -----------------  -----------------
         LI           0.000000000000     0.000000000000     0.000000000000     7.016003436600
         F            3.592342908330     0.000000000000     0.000000000000    18.998403162730

  Charge       = 0
  Multiplicity = 1
  Basis Set: AUG-CC-PVTZ
    Blend: AUG-CC-PVTZ
  Basis Set: (AUG-CC-PVTZ AUX)
    Blend: AUG-CC-PVTZ-JKFIT + DEF2-UNIVERSAL-JKFIT

    Orbital Energies [Eh]
    ---------------------

    Doubly Occupied:

       1A    -26.093738     2A     -2.485597     3A     -1.342775
       4A     -0.457270     5A     -0.443525     6A     -0.443525

  @DF-RHF Final Energy:  -106.96238218928306

   => Energetics <=

    Nuclear Repulsion Energy =              7.5159862766427530
    One-Electron Energy =                -166.4238754264321187
    Two-Electron Energy =                  51.9455069605063002
    Total Energy =                       -106.9623821892830620
 Dipole X            :        -35.4826850           32.3310862           -3.1515988
 Dipole Y            :         -0.0000000            0.0000000           -0.0000000
 Dipole Z            :          0.0000000            0.0000000            0.0000000
 Magnitude           :                                                    3.1515988
  Basis Set: (AUG-CC-PVTZ AUX)
    Blend: AUG-CC-PVTZ-RI + DEF2-QZVPP-RI
	 Reference Energy          =    -106.9623821892830620 [Eh]
	 Singles Energy            =      -0.0000000000000000 [Eh]
	 Same-Spin Energy          =      -0.0806846732215091 [Eh]
	 Opposite-Spin Energy      =      -0.2371431628650733 [Eh]
	 Correlation Energy        =      -0.3178278360865824 [Eh]
	 Total Energy              =    -107.2802100253696409 [Eh]

	 ================> DF-SCS-MP2 Energies <==================
	-----------------------------------------------------------
	 SCS Same-Spin Scale       =       0.3333333333333333 [-]
	 SCS Opposite-Spin Scale   =       1.2000000000000000 [-]
	 SCS Same-Spin Energy      =      -0.0268948910738364 [Eh]
	 SCS Opposite-Spin Energy  =      -0.2845717954380880 [Eh]
	 SCS Correlation Energy    =      -0.3114666865119243 [Eh]
	 SCS Total Energy          =    -107.2738488757949824 [Eh]
	-----------------------------------------------------------

*** Psi4 exiting successfully. Buy a developer a beer!
