                               Psi4 1.9 release

  ==> Input File <==

--------------------------------------------------------------------------
MEMORY 60 GB

molecule dimer {
1 1
Li     0.000000     0.000000     0.000000
--
-1 1
F     1.267324     0.000000     0.000000

units ang
no_reorient
no_com
symmetry c1
}

set {
basis        aug-cc-pVTZ
scf_type     df
}

energy("mp2", bsse_type="cp")
--------------------------------------------------------------------------

                               Psi4 1.9 release
    Molecular point group: c1
  Charge       = -1
  Multiplicity = 1
  Basis Set: AUG-CC-PVTZ
    Blend: AUG-CC-PVTZ
  Basis Set: (AUG-CC-PVTZ AUX)
    Blend: AUG-CC-PVTZ-JKFIT + DEF2-UNIVERSAL-JKFIT
  @DF-RHF Final Energy:   -99.45089752791392
    Total Energy =                        -99.4508975279139378
 Dipole X            :        -23.9501295           21.5540574           -2.3960720
 Dipole Y            :          0.0000000            0.0000000            0.0000000
 Dipole Z            :          0.0000000            0.0000000            0.0000000
 Magnitude           :                                                    2.3960720
  Basis Set: (AUG-CC-PVTZ AUX)
    Blend: AUG-CC-PVTZ-RI + DEF2-QZVPP-RI
	 Reference Energy          =     -99.4508975279139236 [Eh]
	 Singles Energy            =      -0.0000000000000000 [Eh]
	 Same-Spin Energy          =      -0.0817795585586218 [Eh]
	 Opposite-Spin Energy      =      -0.2276797893887121 [Eh]
	 Correlation Energy        =      -0.3094593479473339 [Eh]
	 Total Energy              =     -99.7603568758612624 [Eh]
	 SCS Total Energy          =     -99.7513731280332507 [Eh]
                               Psi4 1.9 release
    Molecular point group: c1
  Multiplicity = 1
  Basis Set: AUG-CC-PVTZ
    Blend: AUG-CC-PVTZ
  Basis Set: (AUG-CC-PVTZ AUX)
    Blend: AUG-CC-PVTZ-JKFIT + DEF2-UNIVERSAL-JKFIT
  @DF-RHF Final Energy:    -7.23638347259293
    Total Energy =                         -7.2363834725929266
  Basis Set: (AUG-CC-PVTZ AUX)
	 Singles Energy            =      -0.0000000000000000 [Eh]
	 Same-Spin Energy          =       0.0000000000000000 [Eh]
	 Opposite-Spin Energy      =      -0.0136118915422950 [Eh]
	 Correlation Energy        =      -0.0136118915422950 [Eh]
	 Total Energy              =      -7.2499953641352217 [Eh]
	 SCS Total Energy          =      -7.2527177424436804 [Eh]
                               Psi4 1.9 release
    Molecular point group: c1

    Geometry (in Bohr), charge = 0, multiplicity = 1:

       Center              X                  Y                   Z               Mass
    ------------   -----------------  -----------------  -----------------  -----------------
         LI           0.000000000000     0.000000000000     0.000000000000     7.016003436600
         F            2.394895272220     0.000000000000     0.000000000000    18.998403162730

  Charge       = 0
  Multiplicity = 1
  Basis Set: AUG-CC-PVTZ
    Blend: AUG-CC-PVTZ
  Basis Set: (AUG-CC-PVTZ AUX)
    Blend: AUG-CC-PVTZ-JKFIT + DEF2-UNIVERSAL-JKFIT

    Orbital Energies [Eh]
    ---------------------

    Doubly Occupied:

       1A    -26.127732     2A     -2.401827     3A     -1.411434
       4A     -0.530684     5A     -0.514384     6A     -0.514384

  @DF-RHF Final Energy:  -106.93678116018710

   => Energetics <=

    Nuclear Repulsion Energy =             11.2739794149641295
    One-Electron Energy =                -173.4206300680952495
    Two-Electron Energy =                  55.2098694929440370
    Total Energy =                       -106.9367811601870955
 Dipole X            :        -23.5705909           21.5540574           -2.0165334
 Dipole Y            :          0.0000000            0.0000000            0.0000000
 Dipole Z            :          0.0000000            0.0000000            0.0000000
 Magnitude           :                                                    2.0165334
  Basis Set: (AUG-CC-PVTZ AUX)
    Blend: AUG-CC-PVTZ-RI + DEF2-QZVPP-RI
	 Reference Energy          =    -106.9367811601870955 [Eh]
	 Singles Energy            =      -0.0000000000000000 [Eh]
	 Same-Spin Energy          =      -0.0784299890274705 [Eh]
	 Opposite-Spin Energy      =      -0.2322632196753785 [Eh]
	 Correlation Energy        =      -0.3106932087028490 [Eh]
	 Total Energy              =    -107.2474743688899395 [Eh]

	 ================> DF-SCS-MP2 Energies <==================
	-----------------------------------------------------------
	 SCS Same-Spin Scale       =       0.3333333333333333 [-]
	 SCS Opposite-Spin Scale   =       1.2000000000000000 [-]
	 SCS Same-Spin Energy      =      -0.0261433296758235 [Eh]
	 SCS Opposite-Spin Energy  =      -0.2787158636104542 [Eh]
	 SCS Correlation Energy    =      -0.3048591932862777 [Eh]
	 SCS Total Energy          =    -107.2416403534733718 [Eh]
	-----------------------------------------------------------

*** Psi4 exiting successfully. Buy a developer a beer!
