                               Psi4 1.9 release

  ==> Input File <==

--------------------------------------------------------------------------
MEMORY 60 GB

molecule dimer {
1 1
Li     0.000000     0.000000     0.000000
--
-1 1
F     1.504947     0.000000     0.000000

units ang
no_reorient
no_com
symmetry c1
}

set {
basis        aug-cc-pVTZ
scf_type     df
}

energy("mp2", bsse_type="cp")
--------------------------------------------------------------------------

                               Psi4 1.9 release
    Molecular point group: c1
  Charge       = -1
  Multiplicity = 1
  Basis Set: AUG-CC-PVTZ
    Blend: AUG-CC-PVTZ
  Basis Set: (AUG-CC-PVTZ AUX)
    Blend: AUG-CC-PVTZ-JKFIT + DEF2-UNIVERSAL-JKFIT
  @DF-RHF Final Energy:   -99.45088174425966
    Total Energy =                        -99.4508817442596609
 Dipole X            :        -28.4398813           25.5954390           -2.8444424
 Dipole Y            :         -0.0000000            0.0000000           -0.0000000
 Dipole Z            :          0.0000000            0.0000000            0.0000000
 Magnitude           :                                                    2.8444424
  Basis Set: (AUG-CC-PVTZ AUX)
    Blend: AUG-CC-PVTZ-RI + DEF2-QZVPP-RI
	 Reference Energy          =     -99.4508817442596609 [Eh]
	 Singles Energy            =      -0.0000000000000000 [Eh]
	 Same-Spin Energy          =      -0.0817503138876857 [Eh]
	 Opposite-Spin Energy      =      -0.2274764050472859 [Eh]
	 Correlation Energy        =      -0.3092267189349717 [Eh]
	 Total Energy              =     -99.7601084631946264 [Eh]
	 SCS Total Energy          =     -99.7511035349456279 [Eh]
                               Psi4 1.9 release
    Molecular point group: c1
  Multiplicity = 1
  Basis Set: AUG-CC-PVTZ
    Blend: AUG-CC-PVTZ
  Basis Set: (AUG-CC-PVTZ AUX)
    Blend: AUG-CC-PVTZ-JKFIT + DEF2-UNIVERSAL-JKFIT
  @DF-RHF Final Energy:    -7.23638319102812
    Total Energy =                         -7.2363831910281258
  Basis Set: (AUG-CC-PVTZ AUX)
	 Singles Energy            =      -0.0000000000000000 [Eh]
	 Same-Spin Energy          =       0.0000000000000000 [Eh]
	 Opposite-Spin Energy      =      -0.0129214918005245 [Eh]
	 Correlation Energy        =      -0.0129214918005245 [Eh]
	 Total Energy              =      -7.2493046828286491 [Eh]
	 SCS Total Energy          =      -7.2518889811887544 [Eh]
                               Psi4 1.9 release
    Molecular point group: c1

    Geometry (in Bohr), charge = 0, multiplicity = 1:

       Center              X                  Y                   Z               Mass
    ------------   -----------------  -----------------  -----------------  -----------------
         LI           0.000000000000     0.000000000000     0.000000000000     7.016003436600
         F            2.843937663329     0.000000000000     0.000000000000    18.998403162730

  Charge       = 0
  Multiplicity = 1
  Basis Set: AUG-CC-PVTZ
    Blend: AUG-CC-PVTZ
  Basis Set: (AUG-CC-PVTZ AUX)
    Blend: AUG-CC-PVTZ-JKFIT + DEF2-UNIVERSAL-JKFIT

    Orbital Energies [Eh]
    ---------------------

    Doubly Occupied:

       1A    -26.118090     2A     -2.426192     3A     -1.386428
       4A     -0.507131     5A     -0.482743     6A     -0.482743

  @DF-RHF Final Energy:  -106.98166855906538

   => Energetics <=

    Nuclear Repulsion Energy =              9.4938789791866434
    One-Electron Energy =                -170.1444404089386921
    Two-Electron Energy =                  53.6688928706866761
    Total Energy =                       -106.9816685590653833
 Dipole X            :        -28.0317742           25.5954390           -2.4363352
 Dipole Y            :         -0.0000000            0.0000000           -0.0000000
 Dipole Z            :          0.0000000            0.0000000            0.0000000
 Magnitude           :                                                    2.4363352
  Basis Set: (AUG-CC-PVTZ AUX)
    Blend: AUG-CC-PVTZ-RI + DEF2-QZVPP-RI
	 Reference Energy          =    -106.9816685590653833 [Eh]
	 Singles Energy            =      -0.0000000000000000 [Eh]
	 Same-Spin Energy          =      -0.0792411479449086 [Eh]
	 Opposite-Spin Energy      =      -0.2343882363574727 [Eh]
	 Correlation Energy        =      -0.3136293843023814 [Eh]
	 Total Energy              =    -107.2952979433677712 [Eh]

	 ================> DF-SCS-MP2 Energies <==================
	-----------------------------------------------------------
	 SCS Same-Spin Scale       =       0.3333333333333333 [-]
	 SCS Opposite-Spin Scale   =       1.2000000000000000 [-]
	 SCS Same-Spin Energy      =      -0.0264137159816362 [Eh]
	 SCS Opposite-Spin Energy  =      -0.2812658836289673 [Eh]
	 SCS Correlation Energy    =      -0.3076795996106035 [Eh]
	 SCS Total Energy          =    -107.2893481586759918 [Eh]
	-----------------------------------------------------------

*** Psi4 exiting successfully. Buy a developer a beer!
