                               Psi4 1.9 release

  ==> Input File <==

--------------------------------------------------------------------------
MEMORY 60 GB

molecule dimer {
1 1
Li     0.000000     0.000000     0.000000
--
-1 1
F     1.742571     0.000000     0.000000

units ang
no_reorient
no_com
symmetry c1
}

set {
basis        aug-cc-pVTZ
scf_type     df
}

energy("mp2", bsse_type="cp")
--------------------------------------------------------------------------

                               Psi4 1.9 release
    Molecular point group: c1
  Charge       = -1
  Multiplicity = 1
  Basis Set: AUG-CC-PVTZ
    Blend: AUG-CC-PVTZ
  Basis Set: (AUG-CC-PVTZ AUX)
    Blend: AUG-CC-PVTZ-JKFIT + DEF2-UNIVERSAL-JKFIT
  @DF-RHF Final Energy:   -99.45088334421847
    Total Energy =                        -99.4508833442184681
 Dipole X            :        -32.9300868           29.6368375           -3.2932493
 Dipole Y            :         -0.0000000            0.0000000           -0.0000000
 Dipole Z            :         -0.0000000            0.0000000           -0.0000000
 Magnitude           :                                                    3.2932493
  Basis Set: (AUG-CC-PVTZ AUX)
    Blend: AUG-CC-PVTZ-RI + DEF2-QZVPP-RI
	 Reference Energy          =     -99.4508833442184681 [Eh]
	 Singles Energy            =      -0.0000000000000000 [Eh]
	 Same-Spin Energy          =      -0.0817205600795624 [Eh]
	 Opposite-Spin Energy      =      -0.2272641616288117 [Eh]
	 Correlation Energy        =      -0.3089847217083740 [Eh]
	 Total Energy              =     -99.7598680659268382 [Eh]
	 SCS Total Energy          =     -99.7508405248662342 [Eh]
                               Psi4 1.9 release
    Molecular point group: c1
  Multiplicity = 1
  Basis Set: AUG-CC-PVTZ
    Blend: AUG-CC-PVTZ
  Basis Set: (AUG-CC-PVTZ AUX)
    Blend: AUG-CC-PVTZ-JKFIT + DEF2-UNIVERSAL-JKFIT
  @DF-RHF Final Energy:    -7.23638316712995
    Total Energy =                         -7.2363831671299490
  Basis Set: (AUG-CC-PVTZ AUX)
	 Singles Energy            =      -0.0000000000000000 [Eh]
	 Same-Spin Energy          =      -0.0000000000000000 [Eh]
	 Opposite-Spin Energy      =      -0.0123576331142075 [Eh]
	 Correlation Energy        =      -0.0123576331142075 [Eh]
	 Total Energy              =      -7.2487408002441569 [Eh]
	 SCS Total Energy          =      -7.2512123268669981 [Eh]
                               Psi4 1.9 release
    Molecular point group: c1

    Geometry (in Bohr), charge = 0, multiplicity = 1:

       Center              X                  Y                   Z               Mass
    ------------   -----------------  -----------------  -----------------  -----------------
         LI           0.000000000000     0.000000000000     0.000000000000     7.016003436600
         F            3.292981944165     0.000000000000     0.000000000000    18.998403162730

  Charge       = 0
  Multiplicity = 1
  Basis Set: AUG-CC-PVTZ
    Blend: AUG-CC-PVTZ
  Basis Set: (AUG-CC-PVTZ AUX)
    Blend: AUG-CC-PVTZ-JKFIT + DEF2-UNIVERSAL-JKFIT

    Orbital Energies [Eh]
    ---------------------

    Doubly Occupied:

       1A    -26.104225     2A     -2.462093     3A     -1.359186
       4A     -0.476916     5A     -0.457959     6A     -0.457959

  @DF-RHF Final Energy:  -106.97552838462335

   => Energetics <=

    Nuclear Repulsion Energy =              8.1992554037052141
    One-Electron Energy =                -167.7128918381364144
    Two-Electron Energy =                  52.5381080498078461
    Total Energy =                       -106.9755283846233453
 Dipole X            :        -32.4986182           29.6368375           -2.8617807
 Dipole Y            :         -0.0000000            0.0000000           -0.0000000
 Dipole Z            :         -0.0000000            0.0000000           -0.0000000
 Magnitude           :                                                    2.8617807
  Basis Set: (AUG-CC-PVTZ AUX)
    Blend: AUG-CC-PVTZ-RI + DEF2-QZVPP-RI
	 Reference Energy          =    -106.9755283846233453 [Eh]
	 Singles Energy            =      -0.0000000000000000 [Eh]
	 Same-Spin Energy          =      -0.0801504071327446 [Eh]
	 Opposite-Spin Energy      =      -0.2362143774062311 [Eh]
	 Correlation Energy        =      -0.3163647845389757 [Eh]
	 Total Energy              =    -107.2918931691623214 [Eh]

	 ================> DF-SCS-MP2 Energies <==================
	-----------------------------------------------------------
	 SCS Same-Spin Scale       =       0.3333333333333333 [-]
	 SCS Opposite-Spin Scale   =       1.2000000000000000 [-]
	 SCS Same-Spin Energy      =      -0.0267168023775815 [Eh]
	 SCS Opposite-Spin Energy  =      -0.2834572528874773 [Eh]
	 SCS Correlation Energy    =      -0.3101740552650589 [Eh]
	 SCS Total Energy          =    -107.2857024398884107 [Eh]
	-----------------------------------------------------------

*** Psi4 exiting successfully. Buy a developer a beer!
