                               Psi4 1.9 release

  ==> Input File <==

--------------------------------------------------------------------------
MEMORY 60 GB

molecule dimer {
1 1
Li     0.000000     0.000000     0.000000
--
-1 1
F     1.663363     0.000000     0.000000

units ang
no_reorient
no_com
symmetry c1
}

set {
basis        aug-cc-pVTZ
scf_type     df
}

energy("mp2", bsse_type="cp")
--------------------------------------------------------------------------

                               Psi4 1.9 release
    Molecular point group: c1
  Charge       = -1
  Multiplicity = 1
  Basis Set: AUG-CC-PVTZ
    Blend: AUG-CC-PVTZ
  Basis Set: (AUG-CC-PVTZ AUX)
    Blend: AUG-CC-PVTZ-JKFIT + DEF2-UNIVERSAL-JKFIT
  @DF-RHF Final Energy:   -99.45088317728064
    Total Energy =                        -99.4508831772806445
 Dipole X            :        -31.4333274           28.2897047           -3.1436228
 Dipole Y            :         -0.0000000            0.0000000           -0.0000000
 Dipole Z            :         -0.0000000            0.0000000           -0.0000000
 Magnitude           :                                                    3.1436228
  Basis Set: (AUG-CC-PVTZ AUX)
    Blend: AUG-CC-PVTZ-RI + DEF2-QZVPP-RI
	 Reference Energy          =     -99.4508831772806445 [Eh]
	 Singles Energy            =      -0.0000000000000000 [Eh]
	 Same-Spin Energy          =      -0.0817306694773690 [Eh]
	 Opposite-Spin Energy      =      -0.2273352191520945 [Eh]
	 Correlation Energy        =      -0.3090658886294635 [Eh]
	 Total Energy              =     -99.7599490659101065 [Eh]
	 SCS Total Energy          =     -99.7509289967556185 [Eh]
                               Psi4 1.9 release
    Molecular point group: c1
  Multiplicity = 1
  Basis Set: AUG-CC-PVTZ
    Blend: AUG-CC-PVTZ
  Basis Set: (AUG-CC-PVTZ AUX)
    Blend: AUG-CC-PVTZ-JKFIT + DEF2-UNIVERSAL-JKFIT
  @DF-RHF Final Energy:    -7.23638314711626
    Total Energy =                         -7.2363831471162650
  Basis Set: (AUG-CC-PVTZ AUX)
	 Singles Energy            =      -0.0000000000000000 [Eh]
	 Same-Spin Energy          =       0.0000000000000000 [Eh]
	 Opposite-Spin Energy      =      -0.0125422564192880 [Eh]
	 Correlation Energy        =      -0.0125422564192880 [Eh]
	 Total Energy              =      -7.2489254035355533 [Eh]
	 SCS Total Energy          =      -7.2514338548194104 [Eh]
                               Psi4 1.9 release
    Molecular point group: c1

    Geometry (in Bohr), charge = 0, multiplicity = 1:

       Center              X                  Y                   Z               Mass
    ------------   -----------------  -----------------  -----------------  -----------------
         LI           0.000000000000     0.000000000000     0.000000000000     7.016003436600
         F            3.143300517220     0.000000000000     0.000000000000    18.998403162730

  Charge       = 0
  Multiplicity = 1
  Basis Set: AUG-CC-PVTZ
    Blend: AUG-CC-PVTZ
  Basis Set: (AUG-CC-PVTZ AUX)
    Blend: AUG-CC-PVTZ-JKFIT + DEF2-UNIVERSAL-JKFIT

    Orbital Energies [Eh]
    ---------------------

    Doubly Occupied:

       1A    -26.109169     2A     -2.449973     3A     -1.367973
       4A     -0.487058     5A     -0.465719     6A     -0.465719

  @DF-RHF Final Energy:  -106.98021843430551

   => Energetics <=

    Nuclear Repulsion Energy =              8.5896973108635954
    One-Electron Energy =                -168.4486084404561552
    Two-Electron Energy =                  52.8786926952870573
    Total Energy =                       -106.9802184343055131
 Dipole X            :        -31.0085752           28.2897047           -2.7188706
 Dipole Y            :         -0.0000000            0.0000000           -0.0000000
 Dipole Z            :          0.0000000            0.0000000            0.0000000
 Magnitude           :                                                    2.7188706
  Basis Set: (AUG-CC-PVTZ AUX)
    Blend: AUG-CC-PVTZ-RI + DEF2-QZVPP-RI
	 Reference Energy          =    -106.9802184343055131 [Eh]
	 Singles Energy            =      -0.0000000000000000 [Eh]
	 Same-Spin Energy          =      -0.0798569933315386 [Eh]
	 Opposite-Spin Energy      =      -0.2356657447776538 [Eh]
	 Correlation Energy        =      -0.3155227381091924 [Eh]
	 Total Energy              =    -107.2957411724147079 [Eh]

	 ================> DF-SCS-MP2 Energies <==================
	-----------------------------------------------------------
	 SCS Same-Spin Scale       =       0.3333333333333333 [-]
	 SCS Opposite-Spin Scale   =       1.2000000000000000 [-]
	 SCS Same-Spin Energy      =      -0.0266189977771795 [Eh]
	 SCS Opposite-Spin Energy  =      -0.2827988937331846 [Eh]
	 SCS Correlation Energy    =      -0.3094178915103641 [Eh]
	 SCS Total Energy          =    -107.2896363258158772 [Eh]
	-----------------------------------------------------------

*** Psi4 exiting successfully. Buy a developer a beer!
