                               Psi4 1.9 release

  ==> Input File <==

--------------------------------------------------------------------------
MEMORY 60 GB

molecule dimer {
1 1
Li     0.000000     0.000000     0.000000
--
-1 1
F     3.168310     0.000000     0.000000

units ang
no_reorient
no_com
symmetry c1
}

set {
basis        aug-cc-pVTZ
scf_type     df
}

energy("mp2", bsse_type="cp")
--------------------------------------------------------------------------

                               Psi4 1.9 release
    Molecular point group: c1
  Charge       = -1
  Multiplicity = 1
  Basis Set: AUG-CC-PVTZ
    Blend: AUG-CC-PVTZ
  Basis Set: (AUG-CC-PVTZ AUX)
    Blend: AUG-CC-PVTZ-JKFIT + DEF2-UNIVERSAL-JKFIT
  @DF-RHF Final Energy:   -99.45082503331894
    Total Energy =                        -99.4508250333189494
 Dipole X            :        -59.8718933           53.8851436           -5.9867496
 Dipole Y            :         -0.0000000            0.0000000           -0.0000000
 Dipole Z            :         -0.0000000            0.0000000           -0.0000000
 Magnitude           :                                                    5.9867496
  Basis Set: (AUG-CC-PVTZ AUX)
    Blend: AUG-CC-PVTZ-RI + DEF2-QZVPP-RI
	 Reference Energy          =     -99.4508250333189352 [Eh]
	 Singles Energy            =      -0.0000000000000000 [Eh]
	 Same-Spin Energy          =      -0.0816096634147009 [Eh]
	 Opposite-Spin Energy      =      -0.2265508518396522 [Eh]
	 Correlation Energy        =      -0.3081605152543532 [Eh]
	 Total Energy              =     -99.7589855485732926 [Eh]
	 SCS Total Energy          =     -99.7498892766647458 [Eh]
                               Psi4 1.9 release
    Molecular point group: c1
  Multiplicity = 1
  Basis Set: AUG-CC-PVTZ
    Blend: AUG-CC-PVTZ
  Basis Set: (AUG-CC-PVTZ AUX)
    Blend: AUG-CC-PVTZ-JKFIT + DEF2-UNIVERSAL-JKFIT
  @DF-RHF Final Energy:    -7.23638253022173
    Total Energy =                         -7.2363825302217339
  Basis Set: (AUG-CC-PVTZ AUX)
	 Singles Energy            =      -0.0000000000000000 [Eh]
	 Same-Spin Energy          =      -0.0000000000000000 [Eh]
	 Opposite-Spin Energy      =      -0.0110547760183389 [Eh]
	 Correlation Energy        =      -0.0110547760183389 [Eh]
	 Total Energy              =      -7.2474373062400730 [Eh]
	 SCS Total Energy          =      -7.2496482614437410 [Eh]
                               Psi4 1.9 release
    Molecular point group: c1

    Geometry (in Bohr), charge = 0, multiplicity = 1:

       Center              X                  Y                   Z               Mass
    ------------   -----------------  -----------------  -----------------  -----------------
         LI           0.000000000000     0.000000000000     0.000000000000     7.016003436600
         F            5.987238180549     0.000000000000     0.000000000000    18.998403162730

  Charge       = 0
  Multiplicity = 1
  Basis Set: AUG-CC-PVTZ
    Blend: AUG-CC-PVTZ
  Basis Set: (AUG-CC-PVTZ AUX)
    Blend: AUG-CC-PVTZ-JKFIT + DEF2-UNIVERSAL-JKFIT

    Orbital Energies [Eh]
    ---------------------

    Doubly Occupied:

       1A    -26.011110     2A     -2.612866     3A     -1.250562
       4A     -0.356245     5A     -0.356245     6A     -0.351206

  @DF-RHF Final Energy:  -106.85905175354237

   => Energetics <=

    Nuclear Repulsion Energy =              4.5095917659856521
    One-Electron Energy =                -160.8608197219053295
    Two-Electron Energy =                  49.4921762023773155
    Total Energy =                       -106.8590517535423601
 Dipole X            :        -59.5287624           53.8851436           -5.6436188
 Dipole Y            :         -0.0000000            0.0000000           -0.0000000
 Dipole Z            :         -0.0000000            0.0000000           -0.0000000
 Magnitude           :                                                    5.6436188
  Basis Set: (AUG-CC-PVTZ AUX)
    Blend: AUG-CC-PVTZ-RI + DEF2-QZVPP-RI
	 Reference Energy          =    -106.8590517535423743 [Eh]
	 Singles Energy            =      -0.0000000000000000 [Eh]
	 Same-Spin Energy          =      -0.0822884582951305 [Eh]
	 Opposite-Spin Energy      =      -0.2392788884272379 [Eh]
	 Correlation Energy        =      -0.3215673467223685 [Eh]
	 Total Energy              =    -107.1806191002647495 [Eh]

	 ================> DF-SCS-MP2 Energies <==================
	-----------------------------------------------------------
	 SCS Same-Spin Scale       =       0.3333333333333333 [-]
	 SCS Opposite-Spin Scale   =       1.2000000000000000 [-]
	 SCS Same-Spin Energy      =      -0.0274294860983768 [Eh]
	 SCS Opposite-Spin Energy  =      -0.2871346661126855 [Eh]
	 SCS Correlation Energy    =      -0.3145641522110624 [Eh]
	 SCS Total Energy          =    -107.1736159057534366 [Eh]
	-----------------------------------------------------------

*** Psi4 exiting successfully. Buy a developer a beer!
