                               Psi4 1.9 release

  ==> Input File <==

--------------------------------------------------------------------------
MEMORY 60 GB

molecule dimer {
1 1
Li     0.000000     0.000000     0.000000
--
-1 1
F     2.059401     0.000000     0.000000

units ang
no_reorient
no_com
symmetry c1
}

set {
basis        aug-cc-pVTZ
scf_type     df
}

energy("mp2", bsse_type="cp")
--------------------------------------------------------------------------

                               Psi4 1.9 release
    Molecular point group: c1
  Charge       = -1
  Multiplicity = 1
  Basis Set: AUG-CC-PVTZ
    Blend: AUG-CC-PVTZ
  Basis Set: (AUG-CC-PVTZ AUX)
    Blend: AUG-CC-PVTZ-JKFIT + DEF2-UNIVERSAL-JKFIT
  @DF-RHF Final Energy:   -99.45086840856632
    Total Energy =                        -99.4508684085663219
 Dipole X            :        -38.9168182           35.0253349           -3.8914833
 Dipole Y            :          0.0000000            0.0000000            0.0000000
 Dipole Z            :          0.0000000            0.0000000            0.0000000
 Magnitude           :                                                    3.8914833
  Basis Set: (AUG-CC-PVTZ AUX)
    Blend: AUG-CC-PVTZ-RI + DEF2-QZVPP-RI
	 Reference Energy          =     -99.4508684085663219 [Eh]
	 Singles Energy            =      -0.0000000000000000 [Eh]
	 Same-Spin Energy          =      -0.0816829763399513 [Eh]
	 Opposite-Spin Energy      =      -0.2270073833746297 [Eh]
	 Correlation Energy        =      -0.3086903597145810 [Eh]
	 Total Energy              =     -99.7595587682808969 [Eh]
	 SCS Total Energy          =     -99.7505049273958662 [Eh]
                               Psi4 1.9 release
    Molecular point group: c1
  Multiplicity = 1
  Basis Set: AUG-CC-PVTZ
    Blend: AUG-CC-PVTZ
  Basis Set: (AUG-CC-PVTZ AUX)
    Blend: AUG-CC-PVTZ-JKFIT + DEF2-UNIVERSAL-JKFIT
  @DF-RHF Final Energy:    -7.23638310346034
    Total Energy =                         -7.2363831034603381
  Basis Set: (AUG-CC-PVTZ AUX)
	 Singles Energy            =      -0.0000000000000000 [Eh]
	 Same-Spin Energy          =      -0.0000000000000000 [Eh]
	 Opposite-Spin Energy      =      -0.0117274028664561 [Eh]
	 Correlation Energy        =      -0.0117274028664561 [Eh]
	 Total Energy              =      -7.2481105063267943 [Eh]
	 SCS Total Energy          =      -7.2504559869000857 [Eh]
                               Psi4 1.9 release
    Molecular point group: c1

    Geometry (in Bohr), charge = 0, multiplicity = 1:

       Center              X                  Y                   Z               Mass
    ------------   -----------------  -----------------  -----------------  -----------------
         LI           0.000000000000     0.000000000000     0.000000000000     7.016003436600
         F            3.891703872494     0.000000000000     0.000000000000    18.998403162730

  Charge       = 0
  Multiplicity = 1
  Basis Set: AUG-CC-PVTZ
    Blend: AUG-CC-PVTZ
  Basis Set: (AUG-CC-PVTZ AUX)
    Blend: AUG-CC-PVTZ-JKFIT + DEF2-UNIVERSAL-JKFIT

    Orbital Energies [Eh]
    ---------------------

    Doubly Occupied:

       1A    -26.082809     2A     -2.507487     3A     -1.327847
       4A     -0.438988     5A     -0.430198     6A     -0.430198

  @DF-RHF Final Energy:  -106.94715369436764

   => Energetics <=

    Nuclear Repulsion Energy =              6.9378351705617325
    One-Electron Energy =                -165.3349271756842711
    Two-Electron Energy =                  51.4499383107549022
    Total Energy =                       -106.9471536943676426
 Dipole X            :        -38.4724874           35.0253349           -3.4471526
 Dipole Y            :         -0.0000000            0.0000000           -0.0000000
 Dipole Z            :         -0.0000000            0.0000000           -0.0000000
 Magnitude           :                                                    3.4471526
  Basis Set: (AUG-CC-PVTZ AUX)
    Blend: AUG-CC-PVTZ-RI + DEF2-QZVPP-RI
	 Reference Energy          =    -106.9471536943676426 [Eh]
	 Singles Energy            =      -0.0000000000000000 [Eh]
	 Same-Spin Energy          =      -0.0811362383433185 [Eh]
	 Opposite-Spin Energy      =      -0.2378846892710733 [Eh]
	 Correlation Energy        =      -0.3190209276143918 [Eh]
	 Total Energy              =    -107.2661746219820316 [Eh]

	 ================> DF-SCS-MP2 Energies <==================
	-----------------------------------------------------------
	 SCS Same-Spin Scale       =       0.3333333333333333 [-]
	 SCS Opposite-Spin Scale   =       1.2000000000000000 [-]
	 SCS Same-Spin Energy      =      -0.0270454127811062 [Eh]
	 SCS Opposite-Spin Energy  =      -0.2854616271252879 [Eh]
	 SCS Correlation Energy    =      -0.3125070399063941 [Eh]
	 SCS Total Energy          =    -107.2596607342740356 [Eh]
	-----------------------------------------------------------

*** Psi4 exiting successfully. Buy a developer a beer!
