                               Psi4 1.9 release

  ==> Input File <==

--------------------------------------------------------------------------
MEMORY 60 GB

molecule dimer {
1 1
Li     0.000000     0.000000     0.000000
--
-1 1
F     2.376232     0.000000     0.000000

units ang
no_reorient
no_com
symmetry c1
}

set {
basis        aug-cc-pVTZ
scf_type     df
}

energy("mp2", bsse_type="cp")
--------------------------------------------------------------------------

                               Psi4 1.9 release
    Molecular point group: c1
  Charge       = -1
  Multiplicity = 1
  Basis Set: AUG-CC-PVTZ
    Blend: AUG-CC-PVTZ
  Basis Set: (AUG-CC-PVTZ AUX)
    Blend: AUG-CC-PVTZ-JKFIT + DEF2-UNIVERSAL-JKFIT
  @DF-RHF Final Energy:   -99.45084940038434
    Total Energy =                        -99.4508494003843566
 Dipole X            :        -44.9035640           40.4138492           -4.4897148
 Dipole Y            :          0.0000000            0.0000000            0.0000000
 Dipole Z            :          0.0000000            0.0000000            0.0000000
 Magnitude           :                                                    4.4897148
  Basis Set: (AUG-CC-PVTZ AUX)
    Blend: AUG-CC-PVTZ-RI + DEF2-QZVPP-RI
	 Reference Energy          =     -99.4508494003843424 [Eh]
	 Singles Energy            =      -0.0000000000000000 [Eh]
	 Same-Spin Energy          =      -0.0816540429122987 [Eh]
	 Opposite-Spin Energy      =      -0.2268158379992637 [Eh]
	 Correlation Energy        =      -0.3084698809115624 [Eh]
	 Total Energy              =     -99.7593192812959018 [Eh]
	 SCS Total Energy          =     -99.7502464202875530 [Eh]
                               Psi4 1.9 release
    Molecular point group: c1
  Multiplicity = 1
  Basis Set: AUG-CC-PVTZ
    Blend: AUG-CC-PVTZ
  Basis Set: (AUG-CC-PVTZ AUX)
    Blend: AUG-CC-PVTZ-JKFIT + DEF2-UNIVERSAL-JKFIT
  @DF-RHF Final Energy:    -7.23638297505770
    Total Energy =                         -7.2363829750576958
  Basis Set: (AUG-CC-PVTZ AUX)
	 Singles Energy            =      -0.0000000000000000 [Eh]
	 Same-Spin Energy          =       0.0000000000000000 [Eh]
	 Opposite-Spin Energy      =      -0.0113712822421455 [Eh]
	 Correlation Energy        =      -0.0113712822421455 [Eh]
	 Total Energy              =      -7.2477542572998415 [Eh]
	 SCS Total Energy          =      -7.2500285137482701 [Eh]
                               Psi4 1.9 release
    Molecular point group: c1

    Geometry (in Bohr), charge = 0, multiplicity = 1:

       Center              X                  Y                   Z               Mass
    ------------   -----------------  -----------------  -----------------  -----------------
         LI           0.000000000000     0.000000000000     0.000000000000     7.016003436600
         F            4.490427690549     0.000000000000     0.000000000000    18.998403162730

  Charge       = 0
  Multiplicity = 1
  Basis Set: AUG-CC-PVTZ
    Blend: AUG-CC-PVTZ
  Basis Set: (AUG-CC-PVTZ AUX)
    Blend: AUG-CC-PVTZ-JKFIT + DEF2-UNIVERSAL-JKFIT

    Orbital Energies [Eh]
    ---------------------

    Doubly Occupied:

       1A    -26.060751     2A     -2.545642     3A     -1.301592
       4A     -0.407209     5A     -0.405964     6A     -0.405964

  @DF-RHF Final Energy:  -106.91694452862532

   => Energetics <=

    Nuclear Repulsion Energy =              6.0127902865082206
    One-Electron Energy =                -163.6052269040825138
    Two-Electron Energy =                  50.6754920889489568
    Total Energy =                       -106.9169445286253364
 Dipole X            :        -44.4691083           40.4138492           -4.0552591
 Dipole Y            :          0.0000000            0.0000000            0.0000000
 Dipole Z            :          0.0000000            0.0000000            0.0000000
 Magnitude           :                                                    4.0552591
  Basis Set: (AUG-CC-PVTZ AUX)
    Blend: AUG-CC-PVTZ-RI + DEF2-QZVPP-RI
	 Reference Energy          =    -106.9169445286253222 [Eh]
	 Singles Energy            =      -0.0000000000000000 [Eh]
	 Same-Spin Energy          =      -0.0817851292511397 [Eh]
	 Opposite-Spin Energy      =      -0.2389037322092443 [Eh]
	 Correlation Energy        =      -0.3206888614603840 [Eh]
	 Total Energy              =    -107.2376333900857048 [Eh]

	 ================> DF-SCS-MP2 Energies <==================
	-----------------------------------------------------------
	 SCS Same-Spin Scale       =       0.3333333333333333 [-]
	 SCS Opposite-Spin Scale   =       1.2000000000000000 [-]
	 SCS Same-Spin Energy      =      -0.0272617097503799 [Eh]
	 SCS Opposite-Spin Energy  =      -0.2866844786510931 [Eh]
	 SCS Correlation Energy    =      -0.3139461884014730 [Eh]
	 SCS Total Energy          =    -107.2308907170267958 [Eh]
	-----------------------------------------------------------

*** Psi4 exiting successfully. Buy a developer a beer!
