                               Psi4 1.9 release

  ==> Input File <==

--------------------------------------------------------------------------
MEMORY 60 GB

molecule dimer {
1 1
Li     0.000000     0.000000     0.000000
--
-1 1
F     2.217817     0.000000     0.000000

units ang
no_reorient
no_com
symmetry c1
}

set {
basis        aug-cc-pVTZ
scf_type     df
}

energy("mp2", bsse_type="cp")
--------------------------------------------------------------------------

                               Psi4 1.9 release
    Molecular point group: c1
  Charge       = -1
  Multiplicity = 1
  Basis Set: AUG-CC-PVTZ
    Blend: AUG-CC-PVTZ
  Basis Set: (AUG-CC-PVTZ AUX)
    Blend: AUG-CC-PVTZ-JKFIT + DEF2-UNIVERSAL-JKFIT
  @DF-RHF Final Energy:   -99.45085838725872
    Total Energy =                        -99.4508583872587337
 Dipole X            :        -41.9101403           37.7196005           -4.1905398
 Dipole Y            :          0.0000000            0.0000000            0.0000000
 Dipole Z            :         -0.0000000            0.0000000           -0.0000000
 Magnitude           :                                                    4.1905398
  Basis Set: (AUG-CC-PVTZ AUX)
    Blend: AUG-CC-PVTZ-RI + DEF2-QZVPP-RI
	 Reference Energy          =     -99.4508583872587195 [Eh]
	 Singles Energy            =      -0.0000000000000000 [Eh]
	 Same-Spin Energy          =      -0.0816673873705574 [Eh]
	 Opposite-Spin Energy      =      -0.2269033144612290 [Eh]
	 Correlation Energy        =      -0.3085707018317864 [Eh]
	 Total Energy              =     -99.7594290890905029 [Eh]
	 SCS Total Energy          =     -99.7503648270690491 [Eh]
                               Psi4 1.9 release
    Molecular point group: c1
  Multiplicity = 1
  Basis Set: AUG-CC-PVTZ
    Blend: AUG-CC-PVTZ
  Basis Set: (AUG-CC-PVTZ AUX)
    Blend: AUG-CC-PVTZ-JKFIT + DEF2-UNIVERSAL-JKFIT
  @DF-RHF Final Energy:    -7.23638302448402
    Total Energy =                         -7.2363830244840237
  Basis Set: (AUG-CC-PVTZ AUX)
	 Singles Energy            =      -0.0000000000000000 [Eh]
	 Same-Spin Energy          =       0.0000000000000000 [Eh]
	 Opposite-Spin Energy      =      -0.0115172487079711 [Eh]
	 Correlation Energy        =      -0.0115172487079711 [Eh]
	 Total Energy              =      -7.2479002731919957 [Eh]
	 SCS Total Energy          =      -7.2502037229335903 [Eh]
                               Psi4 1.9 release
    Molecular point group: c1

    Geometry (in Bohr), charge = 0, multiplicity = 1:

       Center              X                  Y                   Z               Mass
    ------------   -----------------  -----------------  -----------------  -----------------
         LI           0.000000000000     0.000000000000     0.000000000000     7.016003436600
         F            4.191066726385     0.000000000000     0.000000000000    18.998403162730

  Charge       = 0
  Multiplicity = 1
  Basis Set: AUG-CC-PVTZ
    Blend: AUG-CC-PVTZ
  Basis Set: (AUG-CC-PVTZ AUX)
    Blend: AUG-CC-PVTZ-JKFIT + DEF2-UNIVERSAL-JKFIT

    Orbital Energies [Eh]
    ---------------------

    Doubly Occupied:

       1A    -26.071742     2A     -2.527500     3A     -1.314188
       4A     -0.422301     5A     -0.417724     6A     -0.417724

  @DF-RHF Final Energy:  -106.93172140043082

   => Energetics <=

    Nuclear Repulsion Energy =              6.4422739514080734
    One-Electron Energy =                -164.4056331692788433
    Two-Electron Energy =                  51.0316378174399432
    Total Energy =                       -106.9317214004308170
 Dipole X            :        -41.4680842           37.7196005           -3.7484836
 Dipole Y            :          0.0000000            0.0000000            0.0000000
 Dipole Z            :         -0.0000000            0.0000000           -0.0000000
 Magnitude           :                                                    3.7484836
  Basis Set: (AUG-CC-PVTZ AUX)
    Blend: AUG-CC-PVTZ-RI + DEF2-QZVPP-RI
	 Reference Energy          =    -106.9317214004308170 [Eh]
	 Singles Energy            =      -0.0000000000000000 [Eh]
	 Same-Spin Energy          =      -0.0815017098433540 [Eh]
	 Opposite-Spin Energy      =      -0.2384682954994992 [Eh]
	 Correlation Energy        =      -0.3199700053428532 [Eh]
	 Total Energy              =    -107.2516914057736699 [Eh]

	 ================> DF-SCS-MP2 Energies <==================
	-----------------------------------------------------------
	 SCS Same-Spin Scale       =       0.3333333333333333 [-]
	 SCS Opposite-Spin Scale   =       1.2000000000000000 [-]
	 SCS Same-Spin Energy      =      -0.0271672366144513 [Eh]
	 SCS Opposite-Spin Energy  =      -0.2861619545993990 [Eh]
	 SCS Correlation Energy    =      -0.3133291912138503 [Eh]
	 SCS Total Energy          =    -107.2450505916446701 [Eh]
	-----------------------------------------------------------

*** Psi4 exiting successfully. Buy a developer a beer!
