                               Psi4 1.9 release

  ==> Input File <==

--------------------------------------------------------------------------
MEMORY 60 GB

molecule dimer {
1 1
Li     0.000000     0.000000     0.000000
--
-1 1
F     1.425739     0.000000     0.000000

units ang
no_reorient
no_com
symmetry c1
}

set {
basis        aug-cc-pVTZ
scf_type     df
}

energy("mp2", bsse_type="cp")
--------------------------------------------------------------------------

                               Psi4 1.9 release
    Molecular point group: c1
  Charge       = -1
  Multiplicity = 1
  Basis Set: AUG-CC-PVTZ
    Blend: AUG-CC-PVTZ
  Basis Set: (AUG-CC-PVTZ AUX)
    Blend: AUG-CC-PVTZ-JKFIT + DEF2-UNIVERSAL-JKFIT
  @DF-RHF Final Energy:   -99.45088467944782
    Total Energy =                        -99.4508846794478245
 Dipole X            :        -26.9432548           24.2483061           -2.6949487
 Dipole Y            :         -0.0000000            0.0000000           -0.0000000
 Dipole Z            :          0.0000000            0.0000000            0.0000000
 Magnitude           :                                                    2.6949487
  Basis Set: (AUG-CC-PVTZ AUX)
    Blend: AUG-CC-PVTZ-RI + DEF2-QZVPP-RI
	 Reference Energy          =     -99.4508846794478245 [Eh]
	 Singles Energy            =      -0.0000000000000000 [Eh]
	 Same-Spin Energy          =      -0.0817596948131255 [Eh]
	 Opposite-Spin Energy      =      -0.2275442862053600 [Eh]
	 Correlation Energy        =      -0.3093039810184854 [Eh]
	 Total Energy              =     -99.7601886604663122 [Eh]
	 SCS Total Energy          =     -99.7511910544986335 [Eh]
                               Psi4 1.9 release
    Molecular point group: c1
  Multiplicity = 1
  Basis Set: AUG-CC-PVTZ
    Blend: AUG-CC-PVTZ
  Basis Set: (AUG-CC-PVTZ AUX)
    Blend: AUG-CC-PVTZ-JKFIT + DEF2-UNIVERSAL-JKFIT
  @DF-RHF Final Energy:    -7.23638327083296
    Total Energy =                         -7.2363832708329578
  Basis Set: (AUG-CC-PVTZ AUX)
	 Singles Energy            =      -0.0000000000000000 [Eh]
	 Same-Spin Energy          =      -0.0000000000000000 [Eh]
	 Opposite-Spin Energy      =      -0.0131230463098252 [Eh]
	 Correlation Energy        =      -0.0131230463098252 [Eh]
	 Total Energy              =      -7.2495063171427834 [Eh]
	 SCS Total Energy          =      -7.2521309264047478 [Eh]
                               Psi4 1.9 release
    Molecular point group: c1

    Geometry (in Bohr), charge = 0, multiplicity = 1:

       Center              X                  Y                   Z               Mass
    ------------   -----------------  -----------------  -----------------  -----------------
         LI           0.000000000000     0.000000000000     0.000000000000     7.016003436600
         F            2.694256236384     0.000000000000     0.000000000000    18.998403162730

  Charge       = 0
  Multiplicity = 1
  Basis Set: AUG-CC-PVTZ
    Blend: AUG-CC-PVTZ
  Basis Set: (AUG-CC-PVTZ AUX)
    Blend: AUG-CC-PVTZ-JKFIT + DEF2-UNIVERSAL-JKFIT

    Orbital Energies [Eh]
    ---------------------

    Doubly Occupied:

       1A    -26.121887     2A     -2.415524     3A     -1.395680
       4A     -0.516439     5A     -0.492263     6A     -0.492263

  @DF-RHF Final Energy:  -106.97555031399058

   => Energetics <=

    Nuclear Repulsion Energy =             10.0213185499519888
    One-Electron Energy =                -171.1256236703985394
    Two-Electron Energy =                  54.1287548064559800
    Total Energy =                       -106.9755503139905670
 Dipole X            :        -26.5445356           24.2483061           -2.2962295
 Dipole Y            :         -0.0000000            0.0000000           -0.0000000
 Dipole Z            :          0.0000000            0.0000000            0.0000000
 Magnitude           :                                                    2.2962295
  Basis Set: (AUG-CC-PVTZ AUX)
    Blend: AUG-CC-PVTZ-RI + DEF2-QZVPP-RI
	 Reference Energy          =    -106.9755503139905812 [Eh]
	 Singles Energy            =      -0.0000000000000000 [Eh]
	 Same-Spin Energy          =      -0.0789373431357154 [Eh]
	 Opposite-Spin Energy      =      -0.2336772694364514 [Eh]
	 Correlation Energy        =      -0.3126146125721668 [Eh]
	 Total Energy              =    -107.2881649265627431 [Eh]

	 ================> DF-SCS-MP2 Energies <==================
	-----------------------------------------------------------
	 SCS Same-Spin Scale       =       0.3333333333333333 [-]
	 SCS Opposite-Spin Scale   =       1.2000000000000000 [-]
	 SCS Same-Spin Energy      =      -0.0263124477119051 [Eh]
	 SCS Opposite-Spin Energy  =      -0.2804127233237416 [Eh]
	 SCS Correlation Energy    =      -0.3067251710356468 [Eh]
	 SCS Total Energy          =    -107.2822754850262328 [Eh]
	-----------------------------------------------------------

*** Psi4 exiting successfully. Buy a developer a beer!
