                               Psi4 1.9 release

  ==> Input File <==

--------------------------------------------------------------------------
MEMORY 60 GB

molecule dimer {
1 1
Li     0.000000     0.000000     0.000000
--
-1 1
Cl     2.029797     0.000000     0.000000

units ang
no_reorient
no_com
symmetry c1
}

set {
basis        aug-cc-pVTZ
scf_type     df
}

energy("mp2", bsse_type="cp")
--------------------------------------------------------------------------

                               Psi4 1.9 release
    Molecular point group: c1
  Charge       = -1
  Multiplicity = 1
  Basis Set: AUG-CC-PVTZ
    Blend: AUG-CC-PVTZ
  Basis Set: (AUG-CC-PVTZ AUX)
    Blend: AUG-CC-PVTZ-JKFIT + DEF2-UNIVERSAL-JKFIT
  @DF-RHF Final Energy:  -459.57351709847211
    Total Energy =                       -459.5735170984721663
 Dipole X            :        -69.0446691           65.2079271           -3.8367419
 Dipole Y            :          0.0000000            0.0000000            0.0000000
 Dipole Z            :          0.0000000            0.0000000            0.0000000
 Magnitude           :                                                    3.8367419
  Basis Set: (AUG-CC-PVTZ AUX)
    Blend: AUG-CC-PVTZ-RI + DEF2-QZVPP-RI
	 Reference Energy          =    -459.5735170984721094 [Eh]
	 Singles Energy            =      -0.0000000000000000 [Eh]
	 Same-Spin Energy          =      -0.0627657683768350 [Eh]
	 Opposite-Spin Energy      =      -0.1804443063296490 [Eh]
	 Correlation Energy        =      -0.2432100747064840 [Eh]
	 Total Energy              =    -459.8167271731786059 [Eh]
	 SCS Total Energy          =    -459.8109721888599779 [Eh]
                               Psi4 1.9 release
    Molecular point group: c1
  Multiplicity = 1
  Basis Set: AUG-CC-PVTZ
    Blend: AUG-CC-PVTZ
  Basis Set: (AUG-CC-PVTZ AUX)
    Blend: AUG-CC-PVTZ-JKFIT + DEF2-UNIVERSAL-JKFIT
  @DF-RHF Final Energy:    -7.23638322022213
    Total Energy =                         -7.2363832202221339
  Basis Set: (AUG-CC-PVTZ AUX)
	 Singles Energy            =      -0.0000000000000000 [Eh]
	 Same-Spin Energy          =       0.0000000000000000 [Eh]
	 Opposite-Spin Energy      =      -0.0127216993593537 [Eh]
	 Correlation Energy        =      -0.0127216993593537 [Eh]
	 Total Energy              =      -7.2491049195814874 [Eh]
	 SCS Total Energy          =      -7.2516492594533579 [Eh]
                               Psi4 1.9 release
    Molecular point group: c1

    Geometry (in Bohr), charge = 0, multiplicity = 1:

       Center              X                  Y                   Z               Mass
    ------------   -----------------  -----------------  -----------------  -----------------
         LI           0.000000000000     0.000000000000     0.000000000000     7.016003436600
         CL           3.835760420276     0.000000000000     0.000000000000    34.968852682000

  Charge       = 0
  Multiplicity = 1
  Basis Set: AUG-CC-PVTZ
    Blend: AUG-CC-PVTZ
  Basis Set: (AUG-CC-PVTZ AUX)
    Blend: AUG-CC-PVTZ-JKFIT + DEF2-UNIVERSAL-JKFIT

    Orbital Energies [Eh]
    ---------------------

    Doubly Occupied:

       1A   -104.729666     2A    -10.455277     3A     -7.921455
       4A     -7.921182     5A     -7.921182     6A     -2.481299
       7A     -0.972370     8A     -0.407282     9A     -0.379549
      10A     -0.379549

  @DF-RHF Final Energy:  -467.05204408456689

   => Energetics <=

    Nuclear Repulsion Energy =             13.2959294669220629
    One-Electron Energy =                -673.5583269780464661
    Two-Electron Energy =                 193.2103534265574751
    Total Energy =                       -467.0520440845668872
 Dipole X            :        -68.0893441           65.2079271           -2.8814169
 Dipole Y            :         -0.0000000            0.0000000           -0.0000000
 Dipole Z            :          0.0000000            0.0000000            0.0000000
 Magnitude           :                                                    2.8814169
  Basis Set: (AUG-CC-PVTZ AUX)
    Blend: AUG-CC-PVTZ-RI + DEF2-QZVPP-RI
	 Reference Energy          =    -467.0520440845668872 [Eh]
	 Singles Energy            =      -0.0000000000000000 [Eh]
	 Same-Spin Energy          =      -0.0627515932054073 [Eh]
	 Opposite-Spin Energy      =      -0.1925735298599786 [Eh]
	 Correlation Energy        =      -0.2553251230653859 [Eh]
	 Total Energy              =    -467.3073692076322914 [Eh]

	 ================> DF-SCS-MP2 Energies <==================
	-----------------------------------------------------------
	 SCS Same-Spin Scale       =       0.3333333333333333 [-]
	 SCS Opposite-Spin Scale   =       1.2000000000000000 [-]
	 SCS Same-Spin Energy      =      -0.0209171977351358 [Eh]
	 SCS Opposite-Spin Energy  =      -0.2310882358319743 [Eh]
	 SCS Correlation Energy    =      -0.2520054335671101 [Eh]
	 SCS Total Energy          =    -467.3040495181339793 [Eh]
	-----------------------------------------------------------

*** Psi4 exiting successfully. Buy a developer a beer!
