                               Psi4 1.9 release

  ==> Input File <==

--------------------------------------------------------------------------
MEMORY 60 GB

molecule dimer {
1 1
Li     0.000000     0.000000     0.000000
--
-1 1
Cl     1.928307     0.000000     0.000000

units ang
no_reorient
no_com
symmetry c1
}

set {
basis        aug-cc-pVTZ
scf_type     df
}

energy("mp2", bsse_type="cp")
--------------------------------------------------------------------------

                               Psi4 1.9 release
    Molecular point group: c1
  Charge       = -1
  Multiplicity = 1
  Basis Set: AUG-CC-PVTZ
    Blend: AUG-CC-PVTZ
  Basis Set: (AUG-CC-PVTZ AUX)
    Blend: AUG-CC-PVTZ-JKFIT + DEF2-UNIVERSAL-JKFIT
  @DF-RHF Final Energy:  -459.57351875924621
    Total Energy =                       -459.5735187592462125
 Dipole X            :        -65.5925400           61.9475260           -3.6450141
 Dipole Y            :          0.0000000            0.0000000            0.0000000
 Dipole Z            :         -0.0000000            0.0000000           -0.0000000
 Magnitude           :                                                    3.6450141
  Basis Set: (AUG-CC-PVTZ AUX)
    Blend: AUG-CC-PVTZ-RI + DEF2-QZVPP-RI
	 Reference Energy          =    -459.5735187592462125 [Eh]
	 Singles Energy            =      -0.0000000000000000 [Eh]
	 Same-Spin Energy          =      -0.0628104183614976 [Eh]
	 Opposite-Spin Energy      =      -0.1806184922181255 [Eh]
	 Correlation Energy        =      -0.2434289105796232 [Eh]
	 Total Energy              =    -459.8169476698258222 [Eh]
	 SCS Total Energy          =    -459.8111977560284345 [Eh]
                               Psi4 1.9 release
    Molecular point group: c1
  Multiplicity = 1
  Basis Set: AUG-CC-PVTZ
    Blend: AUG-CC-PVTZ
  Basis Set: (AUG-CC-PVTZ AUX)
    Blend: AUG-CC-PVTZ-JKFIT + DEF2-UNIVERSAL-JKFIT
  @DF-RHF Final Energy:    -7.23638332966103
    Total Energy =                         -7.2363833296610309
  Basis Set: (AUG-CC-PVTZ AUX)
	 Singles Energy            =      -0.0000000000000000 [Eh]
	 Same-Spin Energy          =      -0.0000000000000000 [Eh]
	 Opposite-Spin Energy      =      -0.0130412248177699 [Eh]
	 Correlation Energy        =      -0.0130412248177699 [Eh]
	 Total Energy              =      -7.2494245544788010 [Eh]
	 SCS Total Energy          =      -7.2520327994423548 [Eh]
                               Psi4 1.9 release
    Molecular point group: c1

    Geometry (in Bohr), charge = 0, multiplicity = 1:

       Center              X                  Y                   Z               Mass
    ------------   -----------------  -----------------  -----------------  -----------------
         LI           0.000000000000     0.000000000000     0.000000000000     7.016003436600
         CL           3.643972115803     0.000000000000     0.000000000000    34.968852682000

  Charge       = 0
  Multiplicity = 1
  Basis Set: AUG-CC-PVTZ
    Blend: AUG-CC-PVTZ
  Basis Set: (AUG-CC-PVTZ AUX)
    Blend: AUG-CC-PVTZ-JKFIT + DEF2-UNIVERSAL-JKFIT

    Orbital Energies [Eh]
    ---------------------

    Doubly Occupied:

       1A   -104.731749     2A    -10.458443     3A     -7.924639
       4A     -7.924287     5A     -7.924287     6A     -2.470946
       7A     -0.979672     8A     -0.414415     9A     -0.385967
      10A     -0.385967

  @DF-RHF Final Energy:  -467.04975386148340

   => Energetics <=

    Nuclear Repulsion Energy =             13.9957163170439163
    One-Electron Energy =                -674.8902004034616766
    Two-Electron Energy =                 193.8447302249342670
    Total Energy =                       -467.0497538614834525
 Dipole X            :        -64.6554269           61.9475260           -2.7079009
 Dipole Y            :          0.0000000            0.0000000            0.0000000
 Dipole Z            :          0.0000000            0.0000000            0.0000000
 Magnitude           :                                                    2.7079009
  Basis Set: (AUG-CC-PVTZ AUX)
    Blend: AUG-CC-PVTZ-RI + DEF2-QZVPP-RI
	 Reference Energy          =    -467.0497538614833957 [Eh]
	 Singles Energy            =      -0.0000000000000000 [Eh]
	 Same-Spin Energy          =      -0.0628307037310661 [Eh]
	 Opposite-Spin Energy      =      -0.1928619680929552 [Eh]
	 Correlation Energy        =      -0.2556926718240213 [Eh]
	 Total Energy              =    -467.3054465333074177 [Eh]

	 ================> DF-SCS-MP2 Energies <==================
	-----------------------------------------------------------
	 SCS Same-Spin Scale       =       0.3333333333333333 [-]
	 SCS Opposite-Spin Scale   =       1.2000000000000000 [-]
	 SCS Same-Spin Energy      =      -0.0209435679103553 [Eh]
	 SCS Opposite-Spin Energy  =      -0.2314343617115463 [Eh]
	 SCS Correlation Energy    =      -0.2523779296219016 [Eh]
	 SCS Total Energy          =    -467.3021317911052961 [Eh]
	-----------------------------------------------------------

*** Psi4 exiting successfully. Buy a developer a beer!
