                               Psi4 1.9 release

  ==> Input File <==

--------------------------------------------------------------------------
MEMORY 60 GB

molecule dimer {
1 1
Li     0.000000     0.000000     0.000000
--
-1 1
Cl     1.826817     0.000000     0.000000

units ang
no_reorient
no_com
symmetry c1
}

set {
basis        aug-cc-pVTZ
scf_type     df
}

energy("mp2", bsse_type="cp")
--------------------------------------------------------------------------

                               Psi4 1.9 release
    Molecular point group: c1
  Charge       = -1
  Multiplicity = 1
  Basis Set: AUG-CC-PVTZ
    Blend: AUG-CC-PVTZ
  Basis Set: (AUG-CC-PVTZ AUX)
    Blend: AUG-CC-PVTZ-JKFIT + DEF2-UNIVERSAL-JKFIT
  @DF-RHF Final Energy:  -459.57351994875808
    Total Energy =                       -459.5735199487580189
 Dipole X            :        -62.1403668           58.6871248           -3.4532420
 Dipole Y            :          0.0000000            0.0000000            0.0000000
 Dipole Z            :         -0.0000000            0.0000000           -0.0000000
 Magnitude           :                                                    3.4532420
  Basis Set: (AUG-CC-PVTZ AUX)
    Blend: AUG-CC-PVTZ-RI + DEF2-QZVPP-RI
	 Reference Energy          =    -459.5735199487580758 [Eh]
	 Singles Energy            =      -0.0000000000000000 [Eh]
	 Same-Spin Energy          =      -0.0628616560564794 [Eh]
	 Opposite-Spin Energy      =      -0.1808203136574988 [Eh]
	 Correlation Energy        =      -0.2436819697139782 [Eh]
	 Total Energy              =    -459.8172019184720511 [Eh]
	 SCS Total Energy          =    -459.8114582104992110 [Eh]
                               Psi4 1.9 release
    Molecular point group: c1
  Multiplicity = 1
  Basis Set: AUG-CC-PVTZ
    Blend: AUG-CC-PVTZ
  Basis Set: (AUG-CC-PVTZ AUX)
    Blend: AUG-CC-PVTZ-JKFIT + DEF2-UNIVERSAL-JKFIT
  @DF-RHF Final Energy:    -7.23638343064246
    Total Energy =                         -7.2363834306424630
  Basis Set: (AUG-CC-PVTZ AUX)
	 Singles Energy            =      -0.0000000000000000 [Eh]
	 Same-Spin Energy          =      -0.0000000000000000 [Eh]
	 Opposite-Spin Energy      =      -0.0134071297531031 [Eh]
	 Correlation Energy        =      -0.0134071297531031 [Eh]
	 Total Energy              =      -7.2497905603955664 [Eh]
	 SCS Total Energy          =      -7.2524719863461868 [Eh]
                               Psi4 1.9 release
    Molecular point group: c1

    Geometry (in Bohr), charge = 0, multiplicity = 1:

       Center              X                  Y                   Z               Mass
    ------------   -----------------  -----------------  -----------------  -----------------
         LI           0.000000000000     0.000000000000     0.000000000000     7.016003436600
         CL           3.452183811330     0.000000000000     0.000000000000    34.968852682000

  Charge       = 0
  Multiplicity = 1
  Basis Set: AUG-CC-PVTZ
    Blend: AUG-CC-PVTZ
  Basis Set: (AUG-CC-PVTZ AUX)
    Blend: AUG-CC-PVTZ-JKFIT + DEF2-UNIVERSAL-JKFIT

    Orbital Energies [Eh]
    ---------------------

    Doubly Occupied:

       1A   -104.733139     2A    -10.461283     3A     -7.927513
       4A     -7.927005     5A     -7.927005     6A     -2.461801
       7A     -0.987115     8A     -0.420667     9A     -0.392865
      10A     -0.392865

  @DF-RHF Final Energy:  -467.04225100943728

   => Energetics <=

    Nuclear Repulsion Energy =             14.7732573893115742
    One-Electron Energy =                -676.3685003036232501
    Two-Electron Energy =                 194.5529919048744603
    Total Energy =                       -467.0422510094372228
 Dipole X            :        -61.2259476           58.6871248           -2.5388228
 Dipole Y            :          0.0000000            0.0000000            0.0000000
 Dipole Z            :         -0.0000000            0.0000000           -0.0000000
 Magnitude           :                                                    2.5388228
  Basis Set: (AUG-CC-PVTZ AUX)
    Blend: AUG-CC-PVTZ-RI + DEF2-QZVPP-RI
	 Reference Energy          =    -467.0422510094372797 [Eh]
	 Singles Energy            =      -0.0000000000000000 [Eh]
	 Same-Spin Energy          =      -0.0629505287679016 [Eh]
	 Opposite-Spin Energy      =      -0.1932609712180808 [Eh]
	 Correlation Energy        =      -0.2562114999859825 [Eh]
	 Total Energy              =    -467.2984625094232456 [Eh]

	 ================> DF-SCS-MP2 Energies <==================
	-----------------------------------------------------------
	 SCS Same-Spin Scale       =       0.3333333333333333 [-]
	 SCS Opposite-Spin Scale   =       1.2000000000000000 [-]
	 SCS Same-Spin Energy      =      -0.0209835095893005 [Eh]
	 SCS Opposite-Spin Energy  =      -0.2319131654616970 [Eh]
	 SCS Correlation Energy    =      -0.2528966750509976 [Eh]
	 SCS Total Energy          =    -467.2951476844882563 [Eh]
	-----------------------------------------------------------

*** Psi4 exiting successfully. Buy a developer a beer!
