                               Psi4 1.9 release

  ==> Input File <==

--------------------------------------------------------------------------
MEMORY 60 GB

molecule dimer {
1 1
Li     0.000000     0.000000     0.000000
--
-1 1
Cl     1.623838     0.000000     0.000000

units ang
no_reorient
no_com
symmetry c1
}

set {
basis        aug-cc-pVTZ
scf_type     df
}

energy("mp2", bsse_type="cp")
--------------------------------------------------------------------------

                               Psi4 1.9 release
    Molecular point group: c1
  Charge       = -1
  Multiplicity = 1
  Basis Set: AUG-CC-PVTZ
    Blend: AUG-CC-PVTZ
  Basis Set: (AUG-CC-PVTZ AUX)
    Blend: AUG-CC-PVTZ-JKFIT + DEF2-UNIVERSAL-JKFIT
  @DF-RHF Final Energy:  -459.57352272218787
    Total Energy =                       -459.5735227221879313
 Dipole X            :        -55.2359165           52.1663546           -3.0695620
 Dipole Y            :         -0.0000000            0.0000000           -0.0000000
 Dipole Z            :          0.0000000            0.0000000            0.0000000
 Magnitude           :                                                    3.0695620
  Basis Set: (AUG-CC-PVTZ AUX)
    Blend: AUG-CC-PVTZ-RI + DEF2-QZVPP-RI
	 Reference Energy          =    -459.5735227221878745 [Eh]
	 Singles Energy            =      -0.0000000000000000 [Eh]
	 Same-Spin Energy          =      -0.0629937204083135 [Eh]
	 Opposite-Spin Energy      =      -0.1813466083380798 [Eh]
	 Correlation Energy        =      -0.2443403287463932 [Eh]
	 Total Energy              =    -459.8178630509342497 [Eh]
	 SCS Total Energy          =    -459.8121365589963148 [Eh]
                               Psi4 1.9 release
    Molecular point group: c1
  Multiplicity = 1
  Basis Set: AUG-CC-PVTZ
    Blend: AUG-CC-PVTZ
  Basis Set: (AUG-CC-PVTZ AUX)
    Blend: AUG-CC-PVTZ-JKFIT + DEF2-UNIVERSAL-JKFIT
  @DF-RHF Final Energy:    -7.23638364116663
    Total Energy =                         -7.2363836411666274
  Basis Set: (AUG-CC-PVTZ AUX)
	 Singles Energy            =      -0.0000000000000000 [Eh]
	 Same-Spin Energy          =       0.0000000000000000 [Eh]
	 Opposite-Spin Energy      =      -0.0142773747646266 [Eh]
	 Correlation Energy        =      -0.0142773747646266 [Eh]
	 Total Energy              =      -7.2506610159312537 [Eh]
	 SCS Total Energy          =      -7.2535164908841789 [Eh]
                               Psi4 1.9 release
    Molecular point group: c1

    Geometry (in Bohr), charge = 0, multiplicity = 1:

       Center              X                  Y                   Z               Mass
    ------------   -----------------  -----------------  -----------------  -----------------
         LI           0.000000000000     0.000000000000     0.000000000000     7.016003436600
         CL           3.068609092111     0.000000000000     0.000000000000    34.968852682000

  Charge       = 0
  Multiplicity = 1
  Basis Set: AUG-CC-PVTZ
    Blend: AUG-CC-PVTZ
  Basis Set: (AUG-CC-PVTZ AUX)
    Blend: AUG-CC-PVTZ-JKFIT + DEF2-UNIVERSAL-JKFIT

    Orbital Energies [Eh]
    ---------------------

    Doubly Occupied:

       1A   -104.733595     2A    -10.466191     3A     -7.932608
       4A     -7.931348     5A     -7.931348     6A     -2.451574
       7A     -1.001264     8A     -0.428059     9A     -0.408784
      10A     -0.408784

  @DF-RHF Final Energy:  -467.00069698388734

   => Energetics <=

    Nuclear Repulsion Energy =             16.6199077396698449
    One-Electron Energy =                -679.8540973800406846
    Two-Electron Energy =                 196.2334926564834632
    Total Energy =                       -467.0006969838873374
 Dipole X            :        -54.3824596           52.1663546           -2.2161050
 Dipole Y            :         -0.0000000            0.0000000           -0.0000000
 Dipole Z            :          0.0000000            0.0000000            0.0000000
 Magnitude           :                                                    2.2161050
  Basis Set: (AUG-CC-PVTZ AUX)
    Blend: AUG-CC-PVTZ-RI + DEF2-QZVPP-RI
	 Reference Energy          =    -467.0006969838873374 [Eh]
	 Singles Energy            =      -0.0000000000000000 [Eh]
	 Same-Spin Energy          =      -0.0633557773750321 [Eh]
	 Opposite-Spin Energy      =      -0.1945037810224522 [Eh]
	 Correlation Energy        =      -0.2578595583974844 [Eh]
	 Total Energy              =    -467.2585565422847935 [Eh]

	 ================> DF-SCS-MP2 Energies <==================
	-----------------------------------------------------------
	 SCS Same-Spin Scale       =       0.3333333333333333 [-]
	 SCS Opposite-Spin Scale   =       1.2000000000000000 [-]
	 SCS Same-Spin Energy      =      -0.0211185924583440 [Eh]
	 SCS Opposite-Spin Energy  =      -0.2334045372269427 [Eh]
	 SCS Correlation Energy    =      -0.2545231296852867 [Eh]
	 SCS Total Energy          =    -467.2552201135726477 [Eh]
	-----------------------------------------------------------

*** Psi4 exiting successfully. Buy a developer a beer!
