                               Psi4 1.9 release

  ==> Input File <==

--------------------------------------------------------------------------
MEMORY 60 GB

molecule dimer {
1 1
Li     0.000000     0.000000     0.000000
--
-1 1
Cl     3.044695     0.000000     0.000000

units ang
no_reorient
no_com
symmetry c1
}

set {
basis        aug-cc-pVTZ
scf_type     df
}

energy("mp2", bsse_type="cp")
--------------------------------------------------------------------------

                               Psi4 1.9 release
    Molecular point group: c1
  Charge       = -1
  Multiplicity = 1
  Basis Set: AUG-CC-PVTZ
    Blend: AUG-CC-PVTZ
  Basis Set: (AUG-CC-PVTZ AUX)
    Blend: AUG-CC-PVTZ-JKFIT + DEF2-UNIVERSAL-JKFIT
  @DF-RHF Final Energy:  -459.57349663855382
    Total Energy =                       -459.5734966385538200
 Dipole X            :       -103.5654007           97.8118747           -5.7535260
 Dipole Y            :          0.0000000            0.0000000            0.0000000
 Dipole Z            :          0.0000000            0.0000000            0.0000000
 Magnitude           :                                                    5.7535260
  Basis Set: (AUG-CC-PVTZ AUX)
    Blend: AUG-CC-PVTZ-RI + DEF2-QZVPP-RI
	 Reference Energy          =    -459.5734966385538200 [Eh]
	 Singles Energy            =      -0.0000000000000000 [Eh]
	 Same-Spin Energy          =      -0.0624831507442877 [Eh]
	 Opposite-Spin Energy      =      -0.1793829476482672 [Eh]
	 Correlation Energy        =      -0.2418660983925549 [Eh]
	 Total Energy              =    -459.8153627369463834 [Eh]
	 SCS Total Energy          =    -459.8095838926465149 [Eh]
                               Psi4 1.9 release
    Molecular point group: c1
  Multiplicity = 1
  Basis Set: AUG-CC-PVTZ
    Blend: AUG-CC-PVTZ
  Basis Set: (AUG-CC-PVTZ AUX)
    Blend: AUG-CC-PVTZ-JKFIT + DEF2-UNIVERSAL-JKFIT
  @DF-RHF Final Energy:    -7.23638270601104
    Total Energy =                         -7.2363827060110415
  Basis Set: (AUG-CC-PVTZ AUX)
	 Singles Energy            =      -0.0000000000000000 [Eh]
	 Same-Spin Energy          =       0.0000000000000000 [Eh]
	 Opposite-Spin Energy      =      -0.0112774570240588 [Eh]
	 Correlation Energy        =      -0.0112774570240588 [Eh]
	 Total Energy              =      -7.2476601630351007 [Eh]
	 SCS Total Energy          =      -7.2499156544399117 [Eh]
                               Psi4 1.9 release
    Molecular point group: c1

    Geometry (in Bohr), charge = 0, multiplicity = 1:

       Center              X                  Y                   Z               Mass
    ------------   -----------------  -----------------  -----------------  -----------------
         LI           0.000000000000     0.000000000000     0.000000000000     7.016003436600
         CL           5.753639685551     0.000000000000     0.000000000000    34.968852682000

  Charge       = 0
  Multiplicity = 1
  Basis Set: AUG-CC-PVTZ
    Blend: AUG-CC-PVTZ
  Basis Set: (AUG-CC-PVTZ AUX)
    Blend: AUG-CC-PVTZ-JKFIT + DEF2-UNIVERSAL-JKFIT

    Orbital Energies [Eh]
    ---------------------

    Doubly Occupied:

       1A   -104.690343     2A    -10.413280     3A     -7.879425
       4A     -7.879105     5A     -7.879105     6A     -2.582121
       7A     -0.913807     8A     -0.335072     9A     -0.327861
      10A     -0.327861

  @DF-RHF Final Energy:  -466.99651584046313

   => Energetics <=

    Nuclear Repulsion Energy =              8.8639544335869438
    One-Electron Energy =                -665.2649801311765714
    Two-Electron Energy =                 189.4045098571264703
    Total Energy =                       -466.9965158404631325
 Dipole X            :       -102.6302512           97.8118747           -4.8183765
 Dipole Y            :          0.0000000            0.0000000            0.0000000
 Dipole Z            :          0.0000000            0.0000000            0.0000000
 Magnitude           :                                                    4.8183765
  Basis Set: (AUG-CC-PVTZ AUX)
    Blend: AUG-CC-PVTZ-RI + DEF2-QZVPP-RI
	 Reference Energy          =    -466.9965158404631325 [Eh]
	 Singles Energy            =      -0.0000000000000000 [Eh]
	 Same-Spin Energy          =      -0.0627371735853450 [Eh]
	 Opposite-Spin Energy      =      -0.1918990843107535 [Eh]
	 Correlation Energy        =      -0.2546362578960985 [Eh]
	 Total Energy              =    -467.2511520983592277 [Eh]

	 ================> DF-SCS-MP2 Energies <==================
	-----------------------------------------------------------
	 SCS Same-Spin Scale       =       0.3333333333333333 [-]
	 SCS Opposite-Spin Scale   =       1.2000000000000000 [-]
	 SCS Same-Spin Energy      =      -0.0209123911951150 [Eh]
	 SCS Opposite-Spin Energy  =      -0.2302789011729042 [Eh]
	 SCS Correlation Energy    =      -0.2511912923680192 [Eh]
	 SCS Total Energy          =    -467.2477071328311240 [Eh]
	-----------------------------------------------------------

*** Psi4 exiting successfully. Buy a developer a beer!
