                               Psi4 1.9 release

  ==> Input File <==

--------------------------------------------------------------------------
MEMORY 60 GB

molecule dimer {
1 1
Li     0.000000     0.000000     0.000000
--
-1 1
Cl     2.232777     0.000000     0.000000

units ang
no_reorient
no_com
symmetry c1
}

set {
basis        aug-cc-pVTZ
scf_type     df
}

energy("mp2", bsse_type="cp")
--------------------------------------------------------------------------

                               Psi4 1.9 release
    Molecular point group: c1
  Charge       = -1
  Multiplicity = 1
  Basis Set: AUG-CC-PVTZ
    Blend: AUG-CC-PVTZ
  Basis Set: (AUG-CC-PVTZ AUX)
    Blend: AUG-CC-PVTZ-JKFIT + DEF2-UNIVERSAL-JKFIT
  @DF-RHF Final Energy:  -459.57351231719502
    Total Energy =                       -459.5735123171949681
 Dipole X            :        -75.9488106           71.7287295           -4.2200811
 Dipole Y            :         -0.0000000            0.0000000           -0.0000000
 Dipole Z            :         -0.0000000            0.0000000           -0.0000000
 Magnitude           :                                                    4.2200811
  Basis Set: (AUG-CC-PVTZ AUX)
    Blend: AUG-CC-PVTZ-RI + DEF2-QZVPP-RI
	 Reference Energy          =    -459.5735123171950249 [Eh]
	 Singles Energy            =      -0.0000000000000000 [Eh]
	 Same-Spin Energy          =      -0.0626873636736703 [Eh]
	 Opposite-Spin Energy      =      -0.1801464700258305 [Eh]
	 Correlation Energy        =      -0.2428338336995009 [Eh]
	 Total Energy              =    -459.8163461508945034 [Eh]
	 SCS Total Energy          =    -459.8105838691172380 [Eh]
                               Psi4 1.9 release
    Molecular point group: c1
  Multiplicity = 1
  Basis Set: AUG-CC-PVTZ
    Blend: AUG-CC-PVTZ
  Basis Set: (AUG-CC-PVTZ AUX)
    Blend: AUG-CC-PVTZ-JKFIT + DEF2-UNIVERSAL-JKFIT
  @DF-RHF Final Energy:    -7.23638303855022
    Total Energy =                         -7.2363830385502190
  Basis Set: (AUG-CC-PVTZ AUX)
	 Singles Energy            =      -0.0000000000000000 [Eh]
	 Same-Spin Energy          =      -0.0000000000000000 [Eh]
	 Opposite-Spin Energy      =      -0.0122024171290335 [Eh]
	 Correlation Energy        =      -0.0122024171290335 [Eh]
	 Total Energy              =      -7.2485854556792519 [Eh]
	 SCS Total Energy          =      -7.2510259391050580 [Eh]
                               Psi4 1.9 release
    Molecular point group: c1

    Geometry (in Bohr), charge = 0, multiplicity = 1:

       Center              X                  Y                   Z               Mass
    ------------   -----------------  -----------------  -----------------  -----------------
         LI           0.000000000000     0.000000000000     0.000000000000     7.016003436600
         CL           4.219337029221     0.000000000000     0.000000000000    34.968852682000

  Charge       = 0
  Multiplicity = 1
  Basis Set: AUG-CC-PVTZ
    Blend: AUG-CC-PVTZ
  Basis Set: (AUG-CC-PVTZ AUX)
    Blend: AUG-CC-PVTZ-JKFIT + DEF2-UNIVERSAL-JKFIT

    Orbital Energies [Eh]
    ---------------------

    Doubly Occupied:

       1A   -104.723847     2A    -10.448061     3A     -7.914225
       4A     -7.913992     5A     -7.913992     6A     -2.503379
       7A     -0.958586     8A     -0.391832     9A     -0.367748
      10A     -0.367748

  @DF-RHF Final Energy:  -467.04728898159539

   => Energetics <=

    Nuclear Repulsion Energy =             12.0872069822333401
    One-Electron Energy =                -671.2621687678532680
    Two-Electron Energy =                 192.1276728040244564
    Total Energy =                       -467.0472889815954431
 Dipole X            :        -74.9696080           71.7287295           -3.2408785
 Dipole Y            :         -0.0000000            0.0000000           -0.0000000
 Dipole Z            :         -0.0000000            0.0000000           -0.0000000
 Magnitude           :                                                    3.2408785
  Basis Set: (AUG-CC-PVTZ AUX)
    Blend: AUG-CC-PVTZ-RI + DEF2-QZVPP-RI
	 Reference Energy          =    -467.0472889815953863 [Eh]
	 Singles Energy            =      -0.0000000000000000 [Eh]
	 Same-Spin Energy          =      -0.0626739792338016 [Eh]
	 Opposite-Spin Energy      =      -0.1922176214714350 [Eh]
	 Correlation Energy        =      -0.2548916007052366 [Eh]
	 Total Energy              =    -467.3021805823006503 [Eh]

	 ================> DF-SCS-MP2 Energies <==================
	-----------------------------------------------------------
	 SCS Same-Spin Scale       =       0.3333333333333333 [-]
	 SCS Opposite-Spin Scale   =       1.2000000000000000 [-]
	 SCS Same-Spin Energy      =      -0.0208913264112672 [Eh]
	 SCS Opposite-Spin Energy  =      -0.2306611457657220 [Eh]
	 SCS Correlation Energy    =      -0.2515524721769892 [Eh]
	 SCS Total Energy          =    -467.2988414537723543 [Eh]
	-----------------------------------------------------------

*** Psi4 exiting successfully. Buy a developer a beer!
