                               Psi4 1.9 release

  ==> Input File <==

--------------------------------------------------------------------------
MEMORY 60 GB

molecule dimer {
1 1
Li     0.000000     0.000000     0.000000
--
-1 1
Cl     4.059594     0.000000     0.000000

units ang
no_reorient
no_com
symmetry c1
}

set {
basis        aug-cc-pVTZ
scf_type     df
}

energy("mp2", bsse_type="cp")
--------------------------------------------------------------------------

                               Psi4 1.9 release
    Molecular point group: c1
  Charge       = -1
  Multiplicity = 1
  Basis Set: AUG-CC-PVTZ
    Blend: AUG-CC-PVTZ
  Basis Set: (AUG-CC-PVTZ AUX)
    Blend: AUG-CC-PVTZ-JKFIT + DEF2-UNIVERSAL-JKFIT
  @DF-RHF Final Energy:  -459.57348840131590
    Total Energy =                       -459.5734884013158990
 Dipole X            :       -138.0874792          130.4158543           -7.6716249
 Dipole Y            :         -0.0000000            0.0000000           -0.0000000
 Dipole Z            :         -0.0000000            0.0000000           -0.0000000
 Magnitude           :                                                    7.6716249
  Basis Set: (AUG-CC-PVTZ AUX)
    Blend: AUG-CC-PVTZ-RI + DEF2-QZVPP-RI
	 Reference Energy          =    -459.5734884013158990 [Eh]
	 Singles Energy            =      -0.0000000000000000 [Eh]
	 Same-Spin Energy          =      -0.0623675294165848 [Eh]
	 Opposite-Spin Energy      =      -0.1789687819015429 [Eh]
	 Correlation Energy        =      -0.2413363113181277 [Eh]
	 Total Energy              =    -459.8148247126340493 [Eh]
	 SCS Total Energy          =    -459.8090401160699230 [Eh]
                               Psi4 1.9 release
    Molecular point group: c1
  Multiplicity = 1
  Basis Set: AUG-CC-PVTZ
    Blend: AUG-CC-PVTZ
  Basis Set: (AUG-CC-PVTZ AUX)
    Blend: AUG-CC-PVTZ-JKFIT + DEF2-UNIVERSAL-JKFIT
  @DF-RHF Final Energy:    -7.23638247009259
    Total Energy =                         -7.2363824700925878
  Basis Set: (AUG-CC-PVTZ AUX)
	 Singles Energy            =      -0.0000000000000000 [Eh]
	 Same-Spin Energy          =      -0.0000000000000000 [Eh]
	 Opposite-Spin Energy      =      -0.0110201752742275 [Eh]
	 Correlation Energy        =      -0.0110201752742275 [Eh]
	 Total Energy              =      -7.2474026453668161 [Eh]
	 SCS Total Energy          =      -7.2496066804216621 [Eh]
                               Psi4 1.9 release
    Molecular point group: c1

    Geometry (in Bohr), charge = 0, multiplicity = 1:

       Center              X                  Y                   Z               Mass
    ------------   -----------------  -----------------  -----------------  -----------------
         LI           0.000000000000     0.000000000000     0.000000000000     7.016003436600
         CL           7.671520840552     0.000000000000     0.000000000000    34.968852682000

  Charge       = 0
  Multiplicity = 1
  Basis Set: AUG-CC-PVTZ
    Blend: AUG-CC-PVTZ
  Basis Set: (AUG-CC-PVTZ AUX)
    Blend: AUG-CC-PVTZ-JKFIT + DEF2-UNIVERSAL-JKFIT

    Orbital Energies [Eh]
    ---------------------

    Doubly Occupied:

       1A   -104.648404     2A    -10.371700     3A     -7.837813
       4A     -7.837557     5A     -7.837557     6A     -2.644768
       7A     -0.872374     8A     -0.288185     9A     -0.288185
      10A     -0.287825

  @DF-RHF Final Energy:  -466.94661141504770

   => Energetics <=

    Nuclear Repulsion Energy =              6.6479647334610315
    One-Electron Energy =                -661.3604207019282057
    Two-Electron Energy =                 187.7658445534195266
    Total Energy =                       -466.9466114150476983
 Dipole X            :       -137.3825707          130.4158543           -6.9667164
 Dipole Y            :         -0.0000000            0.0000000           -0.0000000
 Dipole Z            :         -0.0000000            0.0000000           -0.0000000
 Magnitude           :                                                    6.9667164
  Basis Set: (AUG-CC-PVTZ AUX)
    Blend: AUG-CC-PVTZ-RI + DEF2-QZVPP-RI
	 Reference Energy          =    -466.9466114150476983 [Eh]
	 Singles Energy            =      -0.0000000000000000 [Eh]
	 Same-Spin Energy          =      -0.0627159280581574 [Eh]
	 Opposite-Spin Energy      =      -0.1911800348346862 [Eh]
	 Correlation Energy        =      -0.2538959628928436 [Eh]
	 Total Energy              =    -467.2005073779405393 [Eh]

	 ================> DF-SCS-MP2 Energies <==================
	-----------------------------------------------------------
	 SCS Same-Spin Scale       =       0.3333333333333333 [-]
	 SCS Opposite-Spin Scale   =       1.2000000000000000 [-]
	 SCS Same-Spin Energy      =      -0.0209053093527191 [Eh]
	 SCS Opposite-Spin Energy  =      -0.2294160418016234 [Eh]
	 SCS Correlation Energy    =      -0.2503213511543426 [Eh]
	 SCS Total Energy          =    -467.1969327662020532 [Eh]
	-----------------------------------------------------------

*** Psi4 exiting successfully. Buy a developer a beer!
