                               Psi4 1.9 release

  ==> Input File <==

--------------------------------------------------------------------------
MEMORY 60 GB

molecule dimer {
1 1
Li     0.000000     0.000000     0.000000
--
-1 1
Cl     2.131287     0.000000     0.000000

units ang
no_reorient
no_com
symmetry c1
}

set {
basis        aug-cc-pVTZ
scf_type     df
}

energy("mp2", bsse_type="cp")
--------------------------------------------------------------------------

                               Psi4 1.9 release
    Molecular point group: c1
  Charge       = -1
  Multiplicity = 1
  Basis Set: AUG-CC-PVTZ
    Blend: AUG-CC-PVTZ
  Basis Set: (AUG-CC-PVTZ AUX)
    Blend: AUG-CC-PVTZ-JKFIT + DEF2-UNIVERSAL-JKFIT
  @DF-RHF Final Energy:  -459.57351489171742
    Total Energy =                       -459.5735148917174229
 Dipole X            :        -72.4967566           68.4683283           -4.0284283
 Dipole Y            :          0.0000000            0.0000000            0.0000000
 Dipole Z            :         -0.0000000            0.0000000           -0.0000000
 Magnitude           :                                                    4.0284283
  Basis Set: (AUG-CC-PVTZ AUX)
    Blend: AUG-CC-PVTZ-RI + DEF2-QZVPP-RI
	 Reference Energy          =    -459.5735148917174229 [Eh]
	 Singles Energy            =      -0.0000000000000000 [Eh]
	 Same-Spin Energy          =      -0.0627252124987168 [Eh]
	 Opposite-Spin Energy      =      -0.1802887811950908 [Eh]
	 Correlation Energy        =      -0.2430139936938076 [Eh]
	 Total Energy              =    -459.8165288854112305 [Eh]
	 SCS Total Energy          =    -459.8107698333177495 [Eh]
                               Psi4 1.9 release
    Molecular point group: c1
  Multiplicity = 1
  Basis Set: AUG-CC-PVTZ
    Blend: AUG-CC-PVTZ
  Basis Set: (AUG-CC-PVTZ AUX)
    Blend: AUG-CC-PVTZ-JKFIT + DEF2-UNIVERSAL-JKFIT
  @DF-RHF Final Energy:    -7.23638311668340
    Total Energy =                         -7.2363831166834016
  Basis Set: (AUG-CC-PVTZ AUX)
	 Singles Energy            =      -0.0000000000000000 [Eh]
	 Same-Spin Energy          =      -0.0000000000000000 [Eh]
	 Opposite-Spin Energy      =      -0.0124438102957832 [Eh]
	 Correlation Energy        =      -0.0124438102957832 [Eh]
	 Total Energy              =      -7.2488269269791852 [Eh]
	 SCS Total Energy          =      -7.2513156890383410 [Eh]
                               Psi4 1.9 release
    Molecular point group: c1

    Geometry (in Bohr), charge = 0, multiplicity = 1:

       Center              X                  Y                   Z               Mass
    ------------   -----------------  -----------------  -----------------  -----------------
         LI           0.000000000000     0.000000000000     0.000000000000     7.016003436600
         CL           4.027548724749     0.000000000000     0.000000000000    34.968852682000

  Charge       = 0
  Multiplicity = 1
  Basis Set: AUG-CC-PVTZ
    Blend: AUG-CC-PVTZ
  Basis Set: (AUG-CC-PVTZ AUX)
    Blend: AUG-CC-PVTZ-JKFIT + DEF2-UNIVERSAL-JKFIT

    Orbital Energies [Eh]
    ---------------------

    Doubly Occupied:

       1A   -104.726997     2A    -10.451803     3A     -7.917972
       4A     -7.917732     5A     -7.917732     6A     -2.492242
       7A     -0.965328     8A     -0.399662     9A     -0.373502
      10A     -0.373502

  @DF-RHF Final Energy:  -467.05082779235227

   => Energetics <=

    Nuclear Repulsion Energy =             12.6627890772899185
    One-Electron Energy =                -672.3542870197190950
    Two-Electron Energy =                 192.6406701500768008
    Total Energy =                       -467.0508277923523224
 Dipole X            :        -71.5274568           68.4683283           -3.0591285
 Dipole Y            :          0.0000000            0.0000000            0.0000000
 Dipole Z            :         -0.0000000            0.0000000           -0.0000000
 Magnitude           :                                                    3.0591285
  Basis Set: (AUG-CC-PVTZ AUX)
    Blend: AUG-CC-PVTZ-RI + DEF2-QZVPP-RI
	 Reference Energy          =    -467.0508277923522655 [Eh]
	 Singles Energy            =      -0.0000000000000000 [Eh]
	 Same-Spin Energy          =      -0.0627022273938292 [Eh]
	 Opposite-Spin Energy      =      -0.1923665082714356 [Eh]
	 Correlation Energy        =      -0.2550687356652648 [Eh]
	 Total Energy              =    -467.3058965280175130 [Eh]

	 ================> DF-SCS-MP2 Energies <==================
	-----------------------------------------------------------
	 SCS Same-Spin Scale       =       0.3333333333333333 [-]
	 SCS Opposite-Spin Scale   =       1.2000000000000000 [-]
	 SCS Same-Spin Energy      =      -0.0209007424646097 [Eh]
	 SCS Opposite-Spin Energy  =      -0.2308398099257227 [Eh]
	 SCS Correlation Energy    =      -0.2517405523903324 [Eh]
	 SCS Total Energy          =    -467.3025683447426104 [Eh]
	-----------------------------------------------------------

*** Psi4 exiting successfully. Buy a developer a beer!
