                               Psi4 1.9 release

  ==> Input File <==

--------------------------------------------------------------------------
MEMORY 60 GB

molecule dimer {
1 1
Li     0.000000     0.000000     0.000000
--
-1 1
Cl     2.841716     0.000000     0.000000

units ang
no_reorient
no_com
symmetry c1
}

set {
basis        aug-cc-pVTZ
scf_type     df
}

energy("mp2", bsse_type="cp")
--------------------------------------------------------------------------

                               Psi4 1.9 release
    Molecular point group: c1
  Charge       = -1
  Multiplicity = 1
  Basis Set: AUG-CC-PVTZ
    Blend: AUG-CC-PVTZ
  Basis Set: (AUG-CC-PVTZ AUX)
    Blend: AUG-CC-PVTZ-JKFIT + DEF2-UNIVERSAL-JKFIT
  @DF-RHF Final Energy:  -459.57349890851793
    Total Energy =                       -459.5734989085178768
 Dipole X            :        -96.6611173           91.2911044           -5.3700129
 Dipole Y            :         -0.0000000            0.0000000           -0.0000000
 Dipole Z            :          0.0000000            0.0000000            0.0000000
 Magnitude           :                                                    5.3700129
  Basis Set: (AUG-CC-PVTZ AUX)
    Blend: AUG-CC-PVTZ-RI + DEF2-QZVPP-RI
	 Reference Energy          =    -459.5734989085179336 [Eh]
	 Singles Energy            =      -0.0000000000000000 [Eh]
	 Same-Spin Energy          =      -0.0625183932042988 [Eh]
	 Opposite-Spin Energy      =      -0.1795182694882165 [Eh]
	 Correlation Energy        =      -0.2420366626925153 [Eh]
	 Total Energy              =    -459.8155355712104324 [Eh]
	 SCS Total Energy          =    -459.8097602963052282 [Eh]
                               Psi4 1.9 release
    Molecular point group: c1
  Multiplicity = 1
  Basis Set: AUG-CC-PVTZ
    Blend: AUG-CC-PVTZ
  Basis Set: (AUG-CC-PVTZ AUX)
    Blend: AUG-CC-PVTZ-JKFIT + DEF2-UNIVERSAL-JKFIT
  @DF-RHF Final Energy:    -7.23638281691091
    Total Energy =                         -7.2363828169109103
  Basis Set: (AUG-CC-PVTZ AUX)
	 Singles Energy            =      -0.0000000000000000 [Eh]
	 Same-Spin Energy          =      -0.0000000000000000 [Eh]
	 Opposite-Spin Energy      =      -0.0113903457836726 [Eh]
	 Correlation Energy        =      -0.0113903457836726 [Eh]
	 Total Energy              =      -7.2477731626945818 [Eh]
	 SCS Total Energy          =      -7.2500512318513168 [Eh]
                               Psi4 1.9 release
    Molecular point group: c1

    Geometry (in Bohr), charge = 0, multiplicity = 1:

       Center              X                  Y                   Z               Mass
    ------------   -----------------  -----------------  -----------------  -----------------
         LI           0.000000000000     0.000000000000     0.000000000000     7.016003436600
         CL           5.370064966332     0.000000000000     0.000000000000    34.968852682000

  Charge       = 0
  Multiplicity = 1
  Basis Set: AUG-CC-PVTZ
    Blend: AUG-CC-PVTZ
  Basis Set: (AUG-CC-PVTZ AUX)
    Blend: AUG-CC-PVTZ-JKFIT + DEF2-UNIVERSAL-JKFIT

    Orbital Energies [Eh]
    ---------------------

    Doubly Occupied:

       1A   -104.699347     2A    -10.422311     3A     -7.888461
       4A     -7.888153     5A     -7.888153     6A     -2.564937
       7A     -0.923776     8A     -0.347630     9A     -0.337070
      10A     -0.337070

  @DF-RHF Final Energy:  -467.00949476908357

   => Energetics <=

    Nuclear Repulsion Energy =              9.4970918079674398
    One-Electron Energy =                -666.4193584524563221
    Two-Electron Energy =                 189.9127718754052978
    Total Energy =                       -467.0094947690836307
 Dipole X            :        -95.6976266           91.2911044           -4.4065222
 Dipole Y            :         -0.0000000            0.0000000           -0.0000000
 Dipole Z            :          0.0000000            0.0000000            0.0000000
 Magnitude           :                                                    4.4065222
  Basis Set: (AUG-CC-PVTZ AUX)
    Blend: AUG-CC-PVTZ-RI + DEF2-QZVPP-RI
	 Reference Energy          =    -467.0094947690835738 [Eh]
	 Singles Energy            =      -0.0000000000000000 [Eh]
	 Same-Spin Energy          =      -0.0627069173621764 [Eh]
	 Opposite-Spin Energy      =      -0.1919384909254357 [Eh]
	 Correlation Energy        =      -0.2546454082876121 [Eh]
	 Total Energy              =    -467.2641401773711891 [Eh]

	 ================> DF-SCS-MP2 Energies <==================
	-----------------------------------------------------------
	 SCS Same-Spin Scale       =       0.3333333333333333 [-]
	 SCS Opposite-Spin Scale   =       1.2000000000000000 [-]
	 SCS Same-Spin Energy      =      -0.0209023057873921 [Eh]
	 SCS Opposite-Spin Energy  =      -0.2303261891105229 [Eh]
	 SCS Correlation Energy    =      -0.2512284948979150 [Eh]
	 SCS Total Energy          =    -467.2607232639815038 [Eh]
	-----------------------------------------------------------

*** Psi4 exiting successfully. Buy a developer a beer!
