                               Psi4 1.9 release

  ==> Input File <==

--------------------------------------------------------------------------
MEMORY 60 GB

molecule dimer {
1 1
Li     0.000000     0.000000     0.000000
--
-1 1
Cl     2.435756     0.000000     0.000000

units ang
no_reorient
no_com
symmetry c1
}

set {
basis        aug-cc-pVTZ
scf_type     df
}

energy("mp2", bsse_type="cp")
--------------------------------------------------------------------------

                               Psi4 1.9 release
    Molecular point group: c1
  Charge       = -1
  Multiplicity = 1
  Basis Set: AUG-CC-PVTZ
    Blend: AUG-CC-PVTZ
  Basis Set: (AUG-CC-PVTZ AUX)
    Blend: AUG-CC-PVTZ-JKFIT + DEF2-UNIVERSAL-JKFIT
  @DF-RHF Final Energy:  -459.57350701362498
    Total Energy =                       -459.5735070136249760
 Dipole X            :        -82.8528378           78.2494997           -4.6033381
 Dipole Y            :         -0.0000000            0.0000000           -0.0000000
 Dipole Z            :         -0.0000000            0.0000000           -0.0000000
 Magnitude           :                                                    4.6033381
  Basis Set: (AUG-CC-PVTZ AUX)
    Blend: AUG-CC-PVTZ-RI + DEF2-QZVPP-RI
	 Reference Energy          =    -459.5735070136249760 [Eh]
	 Singles Energy            =      -0.0000000000000000 [Eh]
	 Same-Spin Energy          =      -0.0626191604846457 [Eh]
	 Opposite-Spin Energy      =      -0.1798947466685465 [Eh]
	 Correlation Energy        =      -0.2425139071531922 [Eh]
	 Total Energy              =    -459.8160209207781577 [Eh]
	 SCS Total Energy          =    -459.8102537631220912 [Eh]
                               Psi4 1.9 release
    Molecular point group: c1
  Multiplicity = 1
  Basis Set: AUG-CC-PVTZ
    Blend: AUG-CC-PVTZ
  Basis Set: (AUG-CC-PVTZ AUX)
    Blend: AUG-CC-PVTZ-JKFIT + DEF2-UNIVERSAL-JKFIT
  @DF-RHF Final Energy:    -7.23638296462622
    Total Energy =                         -7.2363829646262223
  Basis Set: (AUG-CC-PVTZ AUX)
	 Singles Energy            =      -0.0000000000000000 [Eh]
	 Same-Spin Energy          =       0.0000000000000000 [Eh]
	 Opposite-Spin Energy      =      -0.0118189161790379 [Eh]
	 Correlation Energy        =      -0.0118189161790379 [Eh]
	 Total Energy              =      -7.2482018808052606 [Eh]
	 SCS Total Energy          =      -7.2505656640410674 [Eh]
                               Psi4 1.9 release
    Molecular point group: c1

    Geometry (in Bohr), charge = 0, multiplicity = 1:

       Center              X                  Y                   Z               Mass
    ------------   -----------------  -----------------  -----------------  -----------------
         LI           0.000000000000     0.000000000000     0.000000000000     7.016003436600
         CL           4.602911748441     0.000000000000     0.000000000000    34.968852682000

  Charge       = 0
  Multiplicity = 1
  Basis Set: AUG-CC-PVTZ
    Blend: AUG-CC-PVTZ
  Basis Set: (AUG-CC-PVTZ AUX)
    Blend: AUG-CC-PVTZ-JKFIT + DEF2-UNIVERSAL-JKFIT

    Orbital Energies [Eh]
    ---------------------

    Doubly Occupied:

       1A   -104.716473     2A    -10.439949     3A     -7.906108
       4A     -7.905854     5A     -7.905854     6A     -2.525308
       7A     -0.945998     8A     -0.376236     9A     -0.356905
      10A     -0.356905

  @DF-RHF Final Energy:  -467.03628586753200

   => Energetics <=

    Nuclear Repulsion Energy =             11.0799430419836806
    One-Electron Energy =                -669.3612745659992243
    Two-Electron Energy =                 191.2450456564835690
    Total Energy =                       -467.0362858675319444
 Dipole X            :        -81.8653983           78.2494997           -3.6158986
 Dipole Y            :         -0.0000000            0.0000000           -0.0000000
 Dipole Z            :          0.0000000            0.0000000            0.0000000
 Magnitude           :                                                    3.6158986
  Basis Set: (AUG-CC-PVTZ AUX)
    Blend: AUG-CC-PVTZ-RI + DEF2-QZVPP-RI
	 Reference Energy          =    -467.0362858675320012 [Eh]
	 Singles Energy            =      -0.0000000000000000 [Eh]
	 Same-Spin Energy          =      -0.0626587246300576 [Eh]
	 Opposite-Spin Energy      =      -0.1920392776363473 [Eh]
	 Correlation Energy        =      -0.2546980022664049 [Eh]
	 Total Energy              =    -467.2909838697984242 [Eh]

	 ================> DF-SCS-MP2 Energies <==================
	-----------------------------------------------------------
	 SCS Same-Spin Scale       =       0.3333333333333333 [-]
	 SCS Opposite-Spin Scale   =       1.2000000000000000 [-]
	 SCS Same-Spin Energy      =      -0.0208862415433525 [Eh]
	 SCS Opposite-Spin Energy  =      -0.2304471331636168 [Eh]
	 SCS Correlation Energy    =      -0.2513333747069693 [Eh]
	 SCS Total Energy          =    -467.2876192422389749 [Eh]
	-----------------------------------------------------------

*** Psi4 exiting successfully. Buy a developer a beer!
