                               Psi4 1.9 release

  ==> Input File <==

--------------------------------------------------------------------------
MEMORY 60 GB

molecule dimer {
1 1
Li     0.000000     0.000000     0.000000
--
-1 1
Cl     2.638736     0.000000     0.000000

units ang
no_reorient
no_com
symmetry c1
}

set {
basis        aug-cc-pVTZ
scf_type     df
}

energy("mp2", bsse_type="cp")
--------------------------------------------------------------------------

                               Psi4 1.9 release
    Molecular point group: c1
  Charge       = -1
  Multiplicity = 1
  Basis Set: AUG-CC-PVTZ
    Blend: AUG-CC-PVTZ
  Basis Set: (AUG-CC-PVTZ AUX)
    Blend: AUG-CC-PVTZ-JKFIT + DEF2-UNIVERSAL-JKFIT
  @DF-RHF Final Energy:  -459.57350240263179
    Total Energy =                       -459.5735024026317888
 Dipole X            :        -89.7569266           84.7703021           -4.9866245
 Dipole Y            :          0.0000000            0.0000000            0.0000000
 Dipole Z            :          0.0000000            0.0000000            0.0000000
 Magnitude           :                                                    4.9866245
  Basis Set: (AUG-CC-PVTZ AUX)
    Blend: AUG-CC-PVTZ-RI + DEF2-QZVPP-RI
	 Reference Energy          =    -459.5735024026317888 [Eh]
	 Singles Energy            =      -0.0000000000000000 [Eh]
	 Same-Spin Energy          =      -0.0625628248521377 [Eh]
	 Opposite-Spin Energy      =      -0.1796863185232595 [Eh]
	 Correlation Energy        =      -0.2422491433753972 [Eh]
	 Total Energy              =    -459.8157515460071636 [Eh]
	 SCS Total Energy          =    -459.8099802598104020 [Eh]
                               Psi4 1.9 release
    Molecular point group: c1
  Multiplicity = 1
  Basis Set: AUG-CC-PVTZ
    Blend: AUG-CC-PVTZ
  Basis Set: (AUG-CC-PVTZ AUX)
    Blend: AUG-CC-PVTZ-JKFIT + DEF2-UNIVERSAL-JKFIT
  @DF-RHF Final Energy:    -7.23638290951968
    Total Energy =                         -7.2363829095196834
  Basis Set: (AUG-CC-PVTZ AUX)
	 Singles Energy            =      -0.0000000000000000 [Eh]
	 Same-Spin Energy          =      -0.0000000000000000 [Eh]
	 Opposite-Spin Energy      =      -0.0115578700349957 [Eh]
	 Correlation Energy        =      -0.0115578700349957 [Eh]
	 Total Energy              =      -7.2479407795546793 [Eh]
	 SCS Total Energy          =      -7.2502523535616783 [Eh]
                               Psi4 1.9 release
    Molecular point group: c1

    Geometry (in Bohr), charge = 0, multiplicity = 1:

       Center              X                  Y                   Z               Mass
    ------------   -----------------  -----------------  -----------------  -----------------
         LI           0.000000000000     0.000000000000     0.000000000000     7.016003436600
         CL           4.986488357386     0.000000000000     0.000000000000    34.968852682000

  Charge       = 0
  Multiplicity = 1
  Basis Set: AUG-CC-PVTZ
    Blend: AUG-CC-PVTZ
  Basis Set: (AUG-CC-PVTZ AUX)
    Blend: AUG-CC-PVTZ-JKFIT + DEF2-UNIVERSAL-JKFIT

    Orbital Energies [Eh]
    ---------------------

    Doubly Occupied:

       1A   -104.708161     2A    -10.431273     3A     -7.897428
       4A     -7.897143     5A     -7.897143     6A     -2.545967
       7A     -0.934458     8A     -0.361382     9A     -0.346729
      10A     -0.346729

  @DF-RHF Final Energy:  -467.02304686247567

   => Energetics <=

    Nuclear Repulsion Energy =             10.2276384390746156
    One-Electron Energy =                -667.7685442181485769
    Two-Electron Energy =                 190.5178589165982999
    Total Energy =                       -467.0230468624756099
 Dipole X            :        -88.7753476           84.7703021           -4.0050455
 Dipole Y            :          0.0000000            0.0000000            0.0000000
 Dipole Z            :         -0.0000000            0.0000000           -0.0000000
 Magnitude           :                                                    4.0050455
  Basis Set: (AUG-CC-PVTZ AUX)
    Blend: AUG-CC-PVTZ-RI + DEF2-QZVPP-RI
	 Reference Energy          =    -467.0230468624756668 [Eh]
	 Singles Energy            =      -0.0000000000000000 [Eh]
	 Same-Spin Energy          =      -0.0626760550529473 [Eh]
	 Opposite-Spin Energy      =      -0.1919666573519022 [Eh]
	 Correlation Energy        =      -0.2546427124048495 [Eh]
	 Total Energy              =    -467.2776895748805259 [Eh]

	 ================> DF-SCS-MP2 Energies <==================
	-----------------------------------------------------------
	 SCS Same-Spin Scale       =       0.3333333333333333 [-]
	 SCS Opposite-Spin Scale   =       1.2000000000000000 [-]
	 SCS Same-Spin Energy      =      -0.0208920183509824 [Eh]
	 SCS Opposite-Spin Energy  =      -0.2303599888222826 [Eh]
	 SCS Correlation Energy    =      -0.2512520071732650 [Eh]
	 SCS Total Energy          =    -467.2742988696489306 [Eh]
	-----------------------------------------------------------

*** Psi4 exiting successfully. Buy a developer a beer!
