                               Psi4 1.9 release

  ==> Input File <==

--------------------------------------------------------------------------
MEMORY 60 GB

molecule dimer {
1 1
Li     0.000000     0.000000     0.000000
--
-1 1
Br     2.062197     0.000000     0.000000

units ang
no_reorient
no_com
symmetry c1
}

set {
basis        aug-cc-pVTZ
scf_type     df
}

energy("mp2", bsse_type="cp")
--------------------------------------------------------------------------

                               Psi4 1.9 release
    Molecular point group: c1
  Charge       = -1
  Multiplicity = 1
  Basis Set: AUG-CC-PVTZ
    Blend: AUG-CC-PVTZ
  Basis Set: (AUG-CC-PVTZ AUX)
    Blend: AUG-CC-PVTZ-JKFIT + DEF2-UNIVERSAL-JKFIT
  @DF-RHF Final Energy: -2572.53369280712832
    Total Energy =                      -2572.5336928071283182
 Dipole X            :       -140.2921750          136.3945641           -3.8976109
 Dipole Y            :          0.0000000            0.0000000            0.0000000
 Dipole Z            :          0.0000000            0.0000000            0.0000000
 Magnitude           :                                                    3.8976109
  Basis Set: (AUG-CC-PVTZ AUX)
    Blend: AUG-CC-PVTZ-RI + DEF2-QZVPP-RI
	 Reference Energy          =   -2572.5336928071283182 [Eh]
	 Singles Energy            =      -0.0000000000000000 [Eh]
	 Same-Spin Energy          =      -0.0887067157724947 [Eh]
	 Opposite-Spin Energy      =      -0.2057606325052833 [Eh]
	 Correlation Energy        =      -0.2944673482777780 [Eh]
	 Total Energy              =   -2572.8281601554062945 [Eh]
	 SCS Total Energy          =   -2572.8101744713922017 [Eh]
                               Psi4 1.9 release
    Molecular point group: c1
  Multiplicity = 1
  Basis Set: AUG-CC-PVTZ
    Blend: AUG-CC-PVTZ
  Basis Set: (AUG-CC-PVTZ AUX)
    Blend: AUG-CC-PVTZ-JKFIT + DEF2-UNIVERSAL-JKFIT
  @DF-RHF Final Energy:    -7.23638319311545
    Total Energy =                         -7.2363831931154499
  Basis Set: (AUG-CC-PVTZ AUX)
	 Singles Energy            =      -0.0000000000000000 [Eh]
	 Same-Spin Energy          =       0.0000000000000000 [Eh]
	 Opposite-Spin Energy      =      -0.0128075700061666 [Eh]
	 Correlation Energy        =      -0.0128075700061666 [Eh]
	 Total Energy              =      -7.2491907631216153 [Eh]
	 SCS Total Energy          =      -7.2517522771228489 [Eh]
                               Psi4 1.9 release
    Molecular point group: c1

    Geometry (in Bohr), charge = 0, multiplicity = 1:

       Center              X                  Y                   Z               Mass
    ------------   -----------------  -----------------  -----------------  -----------------
         LI           0.000000000000     0.000000000000     0.000000000000     7.016003436600
         BR           3.896987546741     0.000000000000     0.000000000000    78.918337600000

  Charge       = 0
  Multiplicity = 1
  Basis Set: AUG-CC-PVTZ
    Blend: AUG-CC-PVTZ
  Basis Set: (AUG-CC-PVTZ AUX)
    Blend: AUG-CC-PVTZ-JKFIT + DEF2-UNIVERSAL-JKFIT

    Orbital Energies [Eh]
    ---------------------

    Doubly Occupied:

       1A   -489.935440     2A    -65.076423     3A    -58.430858
       4A    -58.430858     5A    -58.430769     6A     -9.749592
       7A     -7.357441     8A     -7.356877     9A     -7.356877
      10A     -3.098947    11A     -3.098660    12A     -3.098660
      13A     -3.098392    14A     -3.098392    15A     -2.481439
      16A     -0.916966    17A     -0.388715    18A     -0.359205
      19A     -0.359205

  @DF-RHF Final Energy: -2579.99653968725306

   => Energetics <=

    Nuclear Repulsion Energy =             26.9438890272607345
    One-Electron Energy =               -3649.6334282456828078
    Two-Electron Energy =                1042.6929995311686525
    Total Energy =                      -2579.9965396872530619
 Dipole X            :       -139.1435070          136.3945641           -2.7489429
 Dipole Y            :          0.0000000            0.0000000            0.0000000
 Dipole Z            :          0.0000000            0.0000000            0.0000000
 Magnitude           :                                                    2.7489429
  Basis Set: (AUG-CC-PVTZ AUX)
    Blend: AUG-CC-PVTZ-RI + DEF2-QZVPP-RI
	 Reference Energy          =   -2579.9965396872530619 [Eh]
	 Singles Energy            =      -0.0000000000000000 [Eh]
	 Same-Spin Energy          =      -0.0890522731511589 [Eh]
	 Opposite-Spin Energy      =      -0.2184368323204403 [Eh]
	 Correlation Energy        =      -0.3074891054715992 [Eh]
	 Total Energy              =   -2580.3040287927246936 [Eh]

	 ================> DF-SCS-MP2 Energies <==================
	-----------------------------------------------------------
	 SCS Same-Spin Scale       =       0.3333333333333333 [-]
	 SCS Opposite-Spin Scale   =       1.2000000000000000 [-]
	 SCS Same-Spin Energy      =      -0.0296840910503863 [Eh]
	 SCS Opposite-Spin Energy  =      -0.2621241987845283 [Eh]
	 SCS Correlation Energy    =      -0.2918082898349146 [Eh]
	 SCS Total Energy          =   -2580.2883479770880513 [Eh]
	-----------------------------------------------------------

*** Psi4 exiting successfully. Buy a developer a beer!
