                               Psi4 1.9 release

  ==> Input File <==

--------------------------------------------------------------------------
MEMORY 60 GB

molecule dimer {
1 1
Li     0.000000     0.000000     0.000000
--
-1 1
Br     2.387807     0.000000     0.000000

units ang
no_reorient
no_com
symmetry c1
}

set {
basis        aug-cc-pVTZ
scf_type     df
}

energy("mp2", bsse_type="cp")
--------------------------------------------------------------------------

                               Psi4 1.9 release
    Molecular point group: c1
  Charge       = -1
  Multiplicity = 1
  Basis Set: AUG-CC-PVTZ
    Blend: AUG-CC-PVTZ
  Basis Set: (AUG-CC-PVTZ AUX)
    Blend: AUG-CC-PVTZ-JKFIT + DEF2-UNIVERSAL-JKFIT
  @DF-RHF Final Energy: -2572.53368742223756
    Total Energy =                      -2572.5336874222380175
 Dipole X            :       -162.4433810          157.9305445           -4.5128366
 Dipole Y            :         -0.0000000            0.0000000           -0.0000000
 Dipole Z            :         -0.0000000            0.0000000           -0.0000000
 Magnitude           :                                                    4.5128366
  Basis Set: (AUG-CC-PVTZ AUX)
    Blend: AUG-CC-PVTZ-RI + DEF2-QZVPP-RI
	 Reference Energy          =   -2572.5336874222375627 [Eh]
	 Singles Energy            =      -0.0000000000000000 [Eh]
	 Same-Spin Energy          =      -0.0881584187042493 [Eh]
	 Opposite-Spin Energy      =      -0.2044471396389490 [Eh]
	 Correlation Energy        =      -0.2926055583431983 [Eh]
	 Total Energy              =   -2572.8262929805805470 [Eh]
	 SCS Total Energy          =   -2572.8084101293725325 [Eh]
                               Psi4 1.9 release
    Molecular point group: c1
  Multiplicity = 1
  Basis Set: AUG-CC-PVTZ
    Blend: AUG-CC-PVTZ
  Basis Set: (AUG-CC-PVTZ AUX)
    Blend: AUG-CC-PVTZ-JKFIT + DEF2-UNIVERSAL-JKFIT
  @DF-RHF Final Energy:    -7.23638301256173
    Total Energy =                         -7.2363830125617312
  Basis Set: (AUG-CC-PVTZ AUX)
	 Singles Energy            =      -0.0000000000000000 [Eh]
	 Same-Spin Energy          =       0.0000000000000000 [Eh]
	 Opposite-Spin Energy      =      -0.0120137077524102 [Eh]
	 Correlation Energy        =      -0.0120137077524102 [Eh]
	 Total Energy              =      -7.2483967203141404 [Eh]
	 SCS Total Energy          =      -7.2507994618646228 [Eh]
                               Psi4 1.9 release
    Molecular point group: c1

    Geometry (in Bohr), charge = 0, multiplicity = 1:

       Center              X                  Y                   Z               Mass
    ------------   -----------------  -----------------  -----------------  -----------------
         LI           0.000000000000     0.000000000000     0.000000000000     7.016003436600
         BR           4.512301270451     0.000000000000     0.000000000000    78.918337600000

  Charge       = 0
  Multiplicity = 1
  Basis Set: AUG-CC-PVTZ
    Blend: AUG-CC-PVTZ
  Basis Set: (AUG-CC-PVTZ AUX)
    Blend: AUG-CC-PVTZ-JKFIT + DEF2-UNIVERSAL-JKFIT

    Orbital Energies [Eh]
    ---------------------

    Doubly Occupied:

       1A   -489.926325     2A    -65.066431     3A    -58.420991
       4A    -58.420858     5A    -58.420858     6A     -9.738758
       7A     -7.346775     8A     -7.345774     9A     -7.345774
      10A     -3.088633    11A     -3.088150    12A     -3.088150
      13A     -3.086948    14A     -3.086948    15A     -2.511733
      16A     -0.897243    17A     -0.367970    18A     -0.342525
      19A     -0.342525

  @DF-RHF Final Energy: -2579.99568373430111

   => Energetics <=

    Nuclear Repulsion Energy =             23.2697228546318868
    One-Electron Energy =               -3642.6640811392985597
    Two-Electron Energy =                1039.3986745503659677
    Total Energy =                      -2579.9956837343006555
 Dipole X            :       -161.2393079          157.9305445           -3.3087634
 Dipole Y            :         -0.0000000            0.0000000           -0.0000000
 Dipole Z            :         -0.0000000            0.0000000           -0.0000000
 Magnitude           :                                                    3.3087634
  Basis Set: (AUG-CC-PVTZ AUX)
    Blend: AUG-CC-PVTZ-RI + DEF2-QZVPP-RI
	 Reference Energy          =   -2579.9956837343011102 [Eh]
	 Singles Energy            =      -0.0000000000000000 [Eh]
	 Same-Spin Energy          =      -0.0883032335847288 [Eh]
	 Opposite-Spin Energy      =      -0.2167861775951352 [Eh]
	 Correlation Energy        =      -0.3050894111798641 [Eh]
	 Total Energy              =   -2580.3007731454808891 [Eh]

	 ================> DF-SCS-MP2 Energies <==================
	-----------------------------------------------------------
	 SCS Same-Spin Scale       =       0.3333333333333333 [-]
	 SCS Opposite-Spin Scale   =       1.2000000000000000 [-]
	 SCS Same-Spin Energy      =      -0.0294344111949096 [Eh]
	 SCS Opposite-Spin Energy  =      -0.2601434131141623 [Eh]
	 SCS Correlation Energy    =      -0.2895778243090719 [Eh]
	 SCS Total Energy          =   -2580.2852615586102729 [Eh]
	-----------------------------------------------------------

*** Psi4 exiting successfully. Buy a developer a beer!
