                               Psi4 1.9 release

  ==> Input File <==

--------------------------------------------------------------------------
MEMORY 60 GB

molecule dimer {
1 1
Li     0.000000     0.000000     0.000000
--
-1 1
Br     2.279271     0.000000     0.000000

units ang
no_reorient
no_com
symmetry c1
}

set {
basis        aug-cc-pVTZ
scf_type     df
}

energy("mp2", bsse_type="cp")
--------------------------------------------------------------------------

                               Psi4 1.9 release
    Molecular point group: c1
  Charge       = -1
  Multiplicity = 1
  Basis Set: AUG-CC-PVTZ
    Blend: AUG-CC-PVTZ
  Basis Set: (AUG-CC-PVTZ AUX)
    Blend: AUG-CC-PVTZ-JKFIT + DEF2-UNIVERSAL-JKFIT
  @DF-RHF Final Energy: -2572.53368911792222
    Total Energy =                      -2572.5336891179226768
 Dipole X            :       -155.0597079          150.7519284           -4.3077795
 Dipole Y            :         -0.0000000            0.0000000           -0.0000000
 Dipole Z            :         -0.0000000            0.0000000           -0.0000000
 Magnitude           :                                                    4.3077795
  Basis Set: (AUG-CC-PVTZ AUX)
    Blend: AUG-CC-PVTZ-RI + DEF2-QZVPP-RI
	 Reference Energy          =   -2572.5336891179222221 [Eh]
	 Singles Energy            =      -0.0000000000000000 [Eh]
	 Same-Spin Energy          =      -0.0883257083962163 [Eh]
	 Opposite-Spin Energy      =      -0.2048439921088490 [Eh]
	 Correlation Energy        =      -0.2931697005050652 [Eh]
	 Total Energy              =   -2572.8268588184273540 [Eh]
	 SCS Total Energy          =   -2572.8089438112515381 [Eh]
                               Psi4 1.9 release
    Molecular point group: c1
  Multiplicity = 1
  Basis Set: AUG-CC-PVTZ
    Blend: AUG-CC-PVTZ
  Basis Set: (AUG-CC-PVTZ AUX)
    Blend: AUG-CC-PVTZ-JKFIT + DEF2-UNIVERSAL-JKFIT
  @DF-RHF Final Energy:    -7.23638304021232
    Total Energy =                         -7.2363830402123170
  Basis Set: (AUG-CC-PVTZ AUX)
	 Singles Energy            =      -0.0000000000000000 [Eh]
	 Same-Spin Energy          =       0.0000000000000000 [Eh]
	 Opposite-Spin Energy      =      -0.0122327360384765 [Eh]
	 Correlation Energy        =      -0.0122327360384765 [Eh]
	 Total Energy              =      -7.2486157762507935 [Eh]
	 SCS Total Energy          =      -7.2510623234584886 [Eh]
                               Psi4 1.9 release
    Molecular point group: c1

    Geometry (in Bohr), charge = 0, multiplicity = 1:

       Center              X                  Y                   Z               Mass
    ------------   -----------------  -----------------  -----------------  -----------------
         LI           0.000000000000     0.000000000000     0.000000000000     7.016003436600
         BR           4.307197955698     0.000000000000     0.000000000000    78.918337600000

  Charge       = 0
  Multiplicity = 1
  Basis Set: AUG-CC-PVTZ
    Blend: AUG-CC-PVTZ
  Basis Set: (AUG-CC-PVTZ AUX)
    Blend: AUG-CC-PVTZ-JKFIT + DEF2-UNIVERSAL-JKFIT

    Orbital Energies [Eh]
    ---------------------

    Doubly Occupied:

       1A   -489.929660     2A    -65.069972     3A    -58.424477
       4A    -58.424409     5A    -58.424409     6A     -9.742491
       7A     -7.350440     8A     -7.349598     9A     -7.349598
      10A     -3.092208    11A     -3.091793    12A     -3.091793
      13A     -3.090873    14A     -3.090873    15A     -2.501131
      16A     -0.903503    17A     -0.375241    18A     -0.347780
      19A     -0.347780

  @DF-RHF Final Energy: -2579.99876459408461

   => Energetics <=

    Nuclear Repulsion Energy =             24.3777976029835877
    One-Electron Energy =               -3644.7570710702384531
    Two-Electron Energy =                1040.3805088731701289
    Total Energy =                      -2579.9987645940846051
 Dipole X            :       -153.8688190          150.7519284           -3.1168906
 Dipole Y            :         -0.0000000            0.0000000           -0.0000000
 Dipole Z            :         -0.0000000            0.0000000           -0.0000000
 Magnitude           :                                                    3.1168906
  Basis Set: (AUG-CC-PVTZ AUX)
    Blend: AUG-CC-PVTZ-RI + DEF2-QZVPP-RI
	 Reference Energy          =   -2579.9987645940846051 [Eh]
	 Singles Energy            =      -0.0000000000000000 [Eh]
	 Same-Spin Energy          =      -0.0885095774139129 [Eh]
	 Opposite-Spin Energy      =      -0.2172311080183511 [Eh]
	 Correlation Energy        =      -0.3057406854322640 [Eh]
	 Total Energy              =   -2580.3045052795168885 [Eh]

	 ================> DF-SCS-MP2 Energies <==================
	-----------------------------------------------------------
	 SCS Same-Spin Scale       =       0.3333333333333333 [-]
	 SCS Opposite-Spin Scale   =       1.2000000000000000 [-]
	 SCS Same-Spin Energy      =      -0.0295031924713043 [Eh]
	 SCS Opposite-Spin Energy  =      -0.2606773296220213 [Eh]
	 SCS Correlation Energy    =      -0.2901805220933256 [Eh]
	 SCS Total Energy          =   -2580.2889451161777288 [Eh]
	-----------------------------------------------------------

*** Psi4 exiting successfully. Buy a developer a beer!
