                               Psi4 1.9 release

  ==> Input File <==

--------------------------------------------------------------------------
MEMORY 60 GB

molecule dimer {
1 1
Li     0.000000     0.000000     0.000000
--
-1 1
Br     3.039028     0.000000     0.000000

units ang
no_reorient
no_com
symmetry c1
}

set {
basis        aug-cc-pVTZ
scf_type     df
}

energy("mp2", bsse_type="cp")
--------------------------------------------------------------------------

                               Psi4 1.9 release
    Molecular point group: c1
  Charge       = -1
  Multiplicity = 1
  Basis Set: AUG-CC-PVTZ
    Blend: AUG-CC-PVTZ
  Basis Set: (AUG-CC-PVTZ AUX)
    Blend: AUG-CC-PVTZ-JKFIT + DEF2-UNIVERSAL-JKFIT
  @DF-RHF Final Energy: -2572.53367900152216
    Total Energy =                      -2572.5336790015221595
 Dipole X            :       -206.7456276          201.0025713           -5.7430563
 Dipole Y            :         -0.0000000            0.0000000           -0.0000000
 Dipole Z            :         -0.0000000            0.0000000           -0.0000000
 Magnitude           :                                                    5.7430563
  Basis Set: (AUG-CC-PVTZ AUX)
    Blend: AUG-CC-PVTZ-RI + DEF2-QZVPP-RI
	 Reference Energy          =   -2572.5336790015221595 [Eh]
	 Singles Energy            =      -0.0000000000000000 [Eh]
	 Same-Spin Energy          =      -0.0874942013726850 [Eh]
	 Opposite-Spin Energy      =      -0.2028593662732152 [Eh]
	 Correlation Energy        =      -0.2903535676459001 [Eh]
	 Total Energy              =   -2572.8240325691681392 [Eh]
	 SCS Total Energy          =   -2572.8062749748410170 [Eh]
                               Psi4 1.9 release
    Molecular point group: c1
  Multiplicity = 1
  Basis Set: AUG-CC-PVTZ
    Blend: AUG-CC-PVTZ
  Basis Set: (AUG-CC-PVTZ AUX)
    Blend: AUG-CC-PVTZ-JKFIT + DEF2-UNIVERSAL-JKFIT
  @DF-RHF Final Energy:    -7.23638281819177
    Total Energy =                         -7.2363828181917746
  Basis Set: (AUG-CC-PVTZ AUX)
	 Singles Energy            =      -0.0000000000000000 [Eh]
	 Same-Spin Energy          =       0.0000000000000000 [Eh]
	 Opposite-Spin Energy      =      -0.0113667678344558 [Eh]
	 Correlation Energy        =      -0.0113667678344558 [Eh]
	 Total Energy              =      -7.2477495860262309 [Eh]
	 SCS Total Energy          =      -7.2500229395931219 [Eh]
                               Psi4 1.9 release
    Molecular point group: c1

    Geometry (in Bohr), charge = 0, multiplicity = 1:

       Center              X                  Y                   Z               Mass
    ------------   -----------------  -----------------  -----------------  -----------------
         LI           0.000000000000     0.000000000000     0.000000000000     7.016003436600
         BR           5.742930607598     0.000000000000     0.000000000000    78.918337600000

  Charge       = 0
  Multiplicity = 1
  Basis Set: AUG-CC-PVTZ
    Blend: AUG-CC-PVTZ
  Basis Set: (AUG-CC-PVTZ AUX)
    Blend: AUG-CC-PVTZ-JKFIT + DEF2-UNIVERSAL-JKFIT

    Orbital Energies [Eh]
    ---------------------

    Doubly Occupied:

       1A   -489.902735     2A    -65.042437     3A    -58.397134
       4A    -58.396798     5A    -58.396798     6A     -9.714437
       7A     -7.322706     8A     -7.321138     9A     -7.321138
      10A     -3.064774    11A     -3.064071    12A     -3.064071
      13A     -3.062012    14A     -3.062012    15A     -2.571782
      16A     -0.865187    17A     -0.326338    18A     -0.314542
      19A     -0.314542

  @DF-RHF Final Energy: -2579.95972825764693

   => Energetics <=

    Nuclear Repulsion Energy =             18.2833482022376899
    One-Electron Energy =               -3633.4368486558805671
    Two-Electron Energy =                1035.1937721959959617
    Total Energy =                      -2579.9597282576469297
 Dipole X            :       -205.5547818          201.0025713           -4.5522105
 Dipole Y            :         -0.0000000            0.0000000           -0.0000000
 Dipole Z            :         -0.0000000            0.0000000           -0.0000000
 Magnitude           :                                                    4.5522105
  Basis Set: (AUG-CC-PVTZ AUX)
    Blend: AUG-CC-PVTZ-RI + DEF2-QZVPP-RI
	 Reference Energy          =   -2579.9597282576469297 [Eh]
	 Singles Energy            =      -0.0000000000000000 [Eh]
	 Same-Spin Energy          =      -0.0876636541400601 [Eh]
	 Opposite-Spin Energy      =      -0.2154344612085752 [Eh]
	 Correlation Energy        =      -0.3030981153486353 [Eh]
	 Total Energy              =   -2580.2628263729957325 [Eh]

	 ================> DF-SCS-MP2 Energies <==================
	-----------------------------------------------------------
	 SCS Same-Spin Scale       =       0.3333333333333333 [-]
	 SCS Opposite-Spin Scale   =       1.2000000000000000 [-]
	 SCS Same-Spin Energy      =      -0.0292212180466867 [Eh]
	 SCS Opposite-Spin Energy  =      -0.2585213534502903 [Eh]
	 SCS Correlation Energy    =      -0.2877425714969770 [Eh]
	 SCS Total Energy          =   -2580.2474708291438219 [Eh]
	-----------------------------------------------------------

*** Psi4 exiting successfully. Buy a developer a beer!
