                               Psi4 1.9 release

  ==> Input File <==

--------------------------------------------------------------------------
MEMORY 60 GB

molecule dimer {
1 1
Li     0.000000     0.000000     0.000000
--
-1 1
Br     3.256101     0.000000     0.000000

units ang
no_reorient
no_com
symmetry c1
}

set {
basis        aug-cc-pVTZ
scf_type     df
}

energy("mp2", bsse_type="cp")
--------------------------------------------------------------------------

                               Psi4 1.9 release
    Molecular point group: c1
  Charge       = -1
  Multiplicity = 1
  Basis Set: AUG-CC-PVTZ
    Blend: AUG-CC-PVTZ
  Basis Set: (AUG-CC-PVTZ AUX)
    Blend: AUG-CC-PVTZ-JKFIT + DEF2-UNIVERSAL-JKFIT
  @DF-RHF Final Energy: -2572.53367698683405
    Total Energy =                      -2572.5336769868340525
 Dipole X            :       -221.5130605          215.3598694           -6.1531910
 Dipole Y            :         -0.0000000            0.0000000           -0.0000000
 Dipole Z            :         -0.0000000            0.0000000           -0.0000000
 Magnitude           :                                                    6.1531910
  Basis Set: (AUG-CC-PVTZ AUX)
    Blend: AUG-CC-PVTZ-RI + DEF2-QZVPP-RI
	 Reference Energy          =   -2572.5336769868340525 [Eh]
	 Singles Energy            =      -0.0000000000000000 [Eh]
	 Same-Spin Energy          =      -0.0873712158700413 [Eh]
	 Opposite-Spin Energy      =      -0.2025573628435604 [Eh]
	 Correlation Energy        =      -0.2899285787136017 [Eh]
	 Total Energy              =   -2572.8236055655474956 [Eh]
	 SCS Total Energy          =   -2572.8058695608697235 [Eh]
                               Psi4 1.9 release
    Molecular point group: c1
  Multiplicity = 1
  Basis Set: AUG-CC-PVTZ
    Blend: AUG-CC-PVTZ
  Basis Set: (AUG-CC-PVTZ AUX)
    Blend: AUG-CC-PVTZ-JKFIT + DEF2-UNIVERSAL-JKFIT
  @DF-RHF Final Energy:    -7.23638272535091
    Total Energy =                         -7.2363827253509063
  Basis Set: (AUG-CC-PVTZ AUX)
	 Singles Energy            =      -0.0000000000000000 [Eh]
	 Same-Spin Energy          =       0.0000000000000000 [Eh]
	 Opposite-Spin Energy      =      -0.0112734093139311 [Eh]
	 Correlation Energy        =      -0.0112734093139311 [Eh]
	 Total Energy              =      -7.2476561346648385 [Eh]
	 SCS Total Energy          =      -7.2499108165276249 [Eh]
                               Psi4 1.9 release
    Molecular point group: c1

    Geometry (in Bohr), charge = 0, multiplicity = 1:

       Center              X                  Y                   Z               Mass
    ------------   -----------------  -----------------  -----------------  -----------------
         LI           0.000000000000     0.000000000000     0.000000000000     7.016003436600
         BR           6.153139126829     0.000000000000     0.000000000000    78.918337600000

  Charge       = 0
  Multiplicity = 1
  Basis Set: AUG-CC-PVTZ
    Blend: AUG-CC-PVTZ
  Basis Set: (AUG-CC-PVTZ AUX)
    Blend: AUG-CC-PVTZ-JKFIT + DEF2-UNIVERSAL-JKFIT

    Orbital Energies [Eh]
    ---------------------

    Doubly Occupied:

       1A   -489.894331     2A    -65.034038     3A    -58.388738
       4A    -58.388388     5A    -58.388388     6A     -9.706057
       7A     -7.314336     8A     -7.312737     9A     -7.312737
      10A     -3.056404    11A     -3.055696    12A     -3.055696
      13A     -3.053601    14A     -3.053601    15A     -2.588738
      16A     -0.856004    17A     -0.314428    18A     -0.306110
      19A     -0.306110

  @DF-RHF Final Energy: -2579.94717763765084

   => Energetics <=

    Nuclear Repulsion Energy =             17.0644605681304107
    One-Electron Energy =               -3631.2510042072422038
    Two-Electron Energy =                1034.2393660014608940
    Total Energy =                      -2579.9471776376508387
 Dipole X            :       -220.3546070          215.3598694           -4.9947376
 Dipole Y            :         -0.0000000            0.0000000           -0.0000000
 Dipole Z            :         -0.0000000            0.0000000           -0.0000000
 Magnitude           :                                                    4.9947376
  Basis Set: (AUG-CC-PVTZ AUX)
    Blend: AUG-CC-PVTZ-RI + DEF2-QZVPP-RI
	 Reference Energy          =   -2579.9471776376508387 [Eh]
	 Singles Energy            =      -0.0000000000000000 [Eh]
	 Same-Spin Energy          =      -0.0875773476511987 [Eh]
	 Opposite-Spin Energy      =      -0.2151889813754757 [Eh]
	 Correlation Energy        =      -0.3027663290266744 [Eh]
	 Total Energy              =   -2580.2499439666776198 [Eh]

	 ================> DF-SCS-MP2 Energies <==================
	-----------------------------------------------------------
	 SCS Same-Spin Scale       =       0.3333333333333333 [-]
	 SCS Opposite-Spin Scale   =       1.2000000000000000 [-]
	 SCS Same-Spin Energy      =      -0.0291924492170662 [Eh]
	 SCS Opposite-Spin Energy  =      -0.2582267776505708 [Eh]
	 SCS Correlation Energy    =      -0.2874192268676370 [Eh]
	 SCS Total Energy          =   -2580.2345968645186076 [Eh]
	-----------------------------------------------------------

*** Psi4 exiting successfully. Buy a developer a beer!
