                               Psi4 1.9 release

  ==> Input File <==

--------------------------------------------------------------------------
MEMORY 60 GB

molecule dimer {
1 1
Li     0.000000     0.000000     0.000000
--
-1 1
Br     1.953661     0.000000     0.000000

units ang
no_reorient
no_com
symmetry c1
}

set {
basis        aug-cc-pVTZ
scf_type     df
}

energy("mp2", bsse_type="cp")
--------------------------------------------------------------------------

                               Psi4 1.9 release
    Molecular point group: c1
  Charge       = -1
  Multiplicity = 1
  Basis Set: AUG-CC-PVTZ
    Blend: AUG-CC-PVTZ
  Basis Set: (AUG-CC-PVTZ AUX)
    Blend: AUG-CC-PVTZ-JKFIT + DEF2-UNIVERSAL-JKFIT
  @DF-RHF Final Energy: -2572.53369488119051
    Total Energy =                      -2572.5336948811900584
 Dipole X            :       -132.9084531          129.2159481           -3.6925050
 Dipole Y            :          0.0000000            0.0000000            0.0000000
 Dipole Z            :         -0.0000000            0.0000000           -0.0000000
 Magnitude           :                                                    3.6925050
  Basis Set: (AUG-CC-PVTZ AUX)
    Blend: AUG-CC-PVTZ-RI + DEF2-QZVPP-RI
	 Reference Energy          =   -2572.5336948811905131 [Eh]
	 Singles Energy            =      -0.0000000000000000 [Eh]
	 Same-Spin Energy          =      -0.0889178037629560 [Eh]
	 Opposite-Spin Energy      =      -0.2062820324229713 [Eh]
	 Correlation Energy        =      -0.2951998361859272 [Eh]
	 Total Energy              =   -2572.8288947173764427 [Eh]
	 SCS Total Energy          =   -2572.8108725880192651 [Eh]
                               Psi4 1.9 release
    Molecular point group: c1
  Multiplicity = 1
  Basis Set: AUG-CC-PVTZ
    Blend: AUG-CC-PVTZ
  Basis Set: (AUG-CC-PVTZ AUX)
    Blend: AUG-CC-PVTZ-JKFIT + DEF2-UNIVERSAL-JKFIT
  @DF-RHF Final Energy:    -7.23638330638428
    Total Energy =                         -7.2363833063842788
  Basis Set: (AUG-CC-PVTZ AUX)
	 Singles Energy            =      -0.0000000000000000 [Eh]
	 Same-Spin Energy          =       0.0000000000000000 [Eh]
	 Opposite-Spin Energy      =      -0.0131669561440220 [Eh]
	 Correlation Energy        =      -0.0131669561440220 [Eh]
	 Total Energy              =      -7.2495502625283006 [Eh]
	 SCS Total Energy          =      -7.2521836537571049 [Eh]
                               Psi4 1.9 release
    Molecular point group: c1

    Geometry (in Bohr), charge = 0, multiplicity = 1:

       Center              X                  Y                   Z               Mass
    ------------   -----------------  -----------------  -----------------  -----------------
         LI           0.000000000000     0.000000000000     0.000000000000     7.016003436600
         BR           3.691884231988     0.000000000000     0.000000000000    78.918337600000

  Charge       = 0
  Multiplicity = 1
  Basis Set: AUG-CC-PVTZ
    Blend: AUG-CC-PVTZ
  Basis Set: (AUG-CC-PVTZ AUX)
    Blend: AUG-CC-PVTZ-JKFIT + DEF2-UNIVERSAL-JKFIT

    Orbital Energies [Eh]
    ---------------------

    Doubly Occupied:

       1A   -489.937821     2A    -65.079326     3A    -58.433736
       4A    -58.433736     5A    -58.433566     6A     -9.753020
       7A     -7.360879     8A     -7.360363     9A     -7.360363
      10A     -3.102205    11A     -3.102001    12A     -3.102001
      13A     -3.101948    14A     -3.101948    15A     -2.473478
      16A     -0.924067    17A     -0.394251    18A     -0.365560
      19A     -0.365560

  @DF-RHF Final Energy: -2579.98831607857664

   => Energetics <=

    Nuclear Repulsion Energy =             28.4407617904795167
    One-Electron Energy =               -3652.4865092767709029
    Two-Electron Energy =                1044.0574314077148301
    Total Energy =                      -2579.9883160785766449
 Dipole X            :       -131.7895612          129.2159481           -2.5736130
 Dipole Y            :          0.0000000            0.0000000            0.0000000
 Dipole Z            :         -0.0000000            0.0000000           -0.0000000
 Magnitude           :                                                    2.5736130
  Basis Set: (AUG-CC-PVTZ AUX)
    Blend: AUG-CC-PVTZ-RI + DEF2-QZVPP-RI
	 Reference Energy          =   -2579.9883160785766449 [Eh]
	 Singles Energy            =      -0.0000000000000000 [Eh]
	 Same-Spin Energy          =      -0.0894014271273353 [Eh]
	 Opposite-Spin Energy      =      -0.2192292098822306 [Eh]
	 Correlation Energy        =      -0.3086306370095658 [Eh]
	 Total Energy              =   -2580.2969467155862731 [Eh]

	 ================> DF-SCS-MP2 Energies <==================
	-----------------------------------------------------------
	 SCS Same-Spin Scale       =       0.3333333333333333 [-]
	 SCS Opposite-Spin Scale   =       1.2000000000000000 [-]
	 SCS Same-Spin Energy      =      -0.0298004757091118 [Eh]
	 SCS Opposite-Spin Energy  =      -0.2630750518586767 [Eh]
	 SCS Correlation Energy    =      -0.2928755275677885 [Eh]
	 SCS Total Energy          =   -2580.2811916061446027 [Eh]
	-----------------------------------------------------------

*** Psi4 exiting successfully. Buy a developer a beer!
