                               Psi4 1.9 release

  ==> Input File <==

--------------------------------------------------------------------------
MEMORY 60 GB

molecule dimer {
1 1
Li     0.000000     0.000000     0.000000
--
-1 1
Br     4.341468     0.000000     0.000000

units ang
no_reorient
no_com
symmetry c1
}

set {
basis        aug-cc-pVTZ
scf_type     df
}

energy("mp2", bsse_type="cp")
--------------------------------------------------------------------------

                               Psi4 1.9 release
    Molecular point group: c1
  Charge       = -1
  Multiplicity = 1
  Basis Set: AUG-CC-PVTZ
    Blend: AUG-CC-PVTZ
  Basis Set: (AUG-CC-PVTZ AUX)
    Blend: AUG-CC-PVTZ-JKFIT + DEF2-UNIVERSAL-JKFIT
  @DF-RHF Final Energy: -2572.53367187132289
    Total Energy =                      -2572.5336718713233495
 Dipole X            :       -295.3507885          287.1464926           -8.2042959
 Dipole Y            :         -0.0000000            0.0000000           -0.0000000
 Dipole Z            :         -0.0000000            0.0000000           -0.0000000
 Magnitude           :                                                    8.2042959
  Basis Set: (AUG-CC-PVTZ AUX)
    Blend: AUG-CC-PVTZ-RI + DEF2-QZVPP-RI
	 Reference Energy          =   -2572.5336718713228947 [Eh]
	 Singles Energy            =      -0.0000000000000000 [Eh]
	 Same-Spin Energy          =      -0.0870096308288521 [Eh]
	 Opposite-Spin Energy      =      -0.2017052722081554 [Eh]
	 Correlation Energy        =      -0.2887149030370075 [Eh]
	 Total Energy              =   -2572.8223867743599840 [Eh]
	 SCS Total Energy          =   -2572.8047214082489518 [Eh]
                               Psi4 1.9 release
    Molecular point group: c1
  Multiplicity = 1
  Basis Set: AUG-CC-PVTZ
    Blend: AUG-CC-PVTZ
  Basis Set: (AUG-CC-PVTZ AUX)
    Blend: AUG-CC-PVTZ-JKFIT + DEF2-UNIVERSAL-JKFIT
  @DF-RHF Final Energy:    -7.23638247384837
    Total Energy =                         -7.2363824738483720
  Basis Set: (AUG-CC-PVTZ AUX)
	 Singles Energy            =      -0.0000000000000000 [Eh]
	 Same-Spin Energy          =       0.0000000000000000 [Eh]
	 Opposite-Spin Energy      =      -0.0110269395554780 [Eh]
	 Correlation Energy        =      -0.0110269395554780 [Eh]
	 Total Energy              =      -7.2474094134038500 [Eh]
	 SCS Total Energy          =      -7.2496148013149453 [Eh]
                               Psi4 1.9 release
    Molecular point group: c1

    Geometry (in Bohr), charge = 0, multiplicity = 1:

       Center              X                  Y                   Z               Mass
    ------------   -----------------  -----------------  -----------------  -----------------
         LI           0.000000000000     0.000000000000     0.000000000000     7.016003436600
         BR           8.204185502439     0.000000000000     0.000000000000    78.918337600000

  Charge       = 0
  Multiplicity = 1
  Basis Set: AUG-CC-PVTZ
    Blend: AUG-CC-PVTZ
  Basis Set: (AUG-CC-PVTZ AUX)
    Blend: AUG-CC-PVTZ-JKFIT + DEF2-UNIVERSAL-JKFIT

    Orbital Energies [Eh]
    ---------------------

    Doubly Occupied:

       1A   -489.855154     2A    -64.995044     3A    -58.349675
       4A    -58.349410     5A    -58.349410     6A     -9.667266
       7A     -7.275304     8A     -7.274110     9A     -7.274110
      10A     -3.017239    11A     -3.016729    12A     -3.016729
      13A     -3.015189    14A     -3.015189    15A     -2.650635
      16A     -0.817415    17A     -0.269447    18A     -0.269383
      19A     -0.269383

  @DF-RHF Final Energy: -2579.89898155693982

   => Energetics <=

    Nuclear Repulsion Energy =             12.7983454260978124
    One-Electron Energy =               -3623.9010115940823198
    Two-Electron Energy =                1031.2036846110443093
    Total Energy =                      -2579.8989815569402708
 Dipole X            :       -294.4625195          287.1464926           -7.3160269
 Dipole Y            :         -0.0000000            0.0000000           -0.0000000
 Dipole Z            :          0.0000000            0.0000000            0.0000000
 Magnitude           :                                                    7.3160269
  Basis Set: (AUG-CC-PVTZ AUX)
    Blend: AUG-CC-PVTZ-RI + DEF2-QZVPP-RI
	 Reference Energy          =   -2579.8989815569398161 [Eh]
	 Singles Energy            =      -0.0000000000000000 [Eh]
	 Same-Spin Energy          =      -0.0872864380376927 [Eh]
	 Opposite-Spin Energy      =      -0.2139308979413946 [Eh]
	 Correlation Energy        =      -0.3012173359790873 [Eh]
	 Total Energy              =   -2580.2001988929187064 [Eh]

	 ================> DF-SCS-MP2 Energies <==================
	-----------------------------------------------------------
	 SCS Same-Spin Scale       =       0.3333333333333333 [-]
	 SCS Opposite-Spin Scale   =       1.2000000000000000 [-]
	 SCS Same-Spin Energy      =      -0.0290954793458976 [Eh]
	 SCS Opposite-Spin Energy  =      -0.2567170775296735 [Eh]
	 SCS Correlation Energy    =      -0.2858125568755711 [Eh]
	 SCS Total Energy          =   -2580.1847941138153146 [Eh]
	-----------------------------------------------------------

*** Psi4 exiting successfully. Buy a developer a beer!
