                               Psi4 1.9 release

  ==> Input File <==

--------------------------------------------------------------------------
MEMORY 60 GB

molecule dimer {
1 1
Li     0.000000     0.000000     0.000000
--
-1 1
Br     2.170734     0.000000     0.000000

units ang
no_reorient
no_com
symmetry c1
}

set {
basis        aug-cc-pVTZ
scf_type     df
}

energy("mp2", bsse_type="cp")
--------------------------------------------------------------------------

                               Psi4 1.9 release
    Molecular point group: c1
  Charge       = -1
  Multiplicity = 1
  Basis Set: AUG-CC-PVTZ
    Blend: AUG-CC-PVTZ
  Basis Set: (AUG-CC-PVTZ AUX)
    Blend: AUG-CC-PVTZ-JKFIT + DEF2-UNIVERSAL-JKFIT
  @DF-RHF Final Energy: -2572.53369089487160
    Total Energy =                      -2572.5336908948715973
 Dipole X            :       -147.6759501          143.5732463           -4.1027038
 Dipole Y            :         -0.0000000            0.0000000           -0.0000000
 Dipole Z            :         -0.0000000            0.0000000           -0.0000000
 Magnitude           :                                                    4.1027038
  Basis Set: (AUG-CC-PVTZ AUX)
    Blend: AUG-CC-PVTZ-RI + DEF2-QZVPP-RI
	 Reference Energy          =   -2572.5336908948715973 [Eh]
	 Singles Energy            =      -0.0000000000000000 [Eh]
	 Same-Spin Energy          =      -0.0885089471995881 [Eh]
	 Opposite-Spin Energy      =      -0.2052818321879006 [Eh]
	 Correlation Energy        =      -0.2937907793874887 [Eh]
	 Total Energy              =   -2572.8274816742591611 [Eh]
	 SCS Total Energy          =   -2572.8095320758970956 [Eh]
                               Psi4 1.9 release
    Molecular point group: c1
  Multiplicity = 1
  Basis Set: AUG-CC-PVTZ
    Blend: AUG-CC-PVTZ
  Basis Set: (AUG-CC-PVTZ AUX)
    Blend: AUG-CC-PVTZ-JKFIT + DEF2-UNIVERSAL-JKFIT
  @DF-RHF Final Energy:    -7.23638309989393
    Total Energy =                         -7.2363830998939340
  Basis Set: (AUG-CC-PVTZ AUX)
	 Singles Energy            =      -0.0000000000000000 [Eh]
	 Same-Spin Energy          =       0.0000000000000000 [Eh]
	 Opposite-Spin Energy      =      -0.0124963206503608 [Eh]
	 Correlation Energy        =      -0.0124963206503608 [Eh]
	 Total Energy              =      -7.2488794205442950 [Eh]
	 SCS Total Energy          =      -7.2513786846743669 [Eh]
                               Psi4 1.9 release
    Molecular point group: c1

    Geometry (in Bohr), charge = 0, multiplicity = 1:

       Center              X                  Y                   Z               Mass
    ------------   -----------------  -----------------  -----------------  -----------------
         LI           0.000000000000     0.000000000000     0.000000000000     7.016003436600
         BR           4.102092751220     0.000000000000     0.000000000000    78.918337600000

  Charge       = 0
  Multiplicity = 1
  Basis Set: AUG-CC-PVTZ
    Blend: AUG-CC-PVTZ
  Basis Set: (AUG-CC-PVTZ AUX)
    Blend: AUG-CC-PVTZ-JKFIT + DEF2-UNIVERSAL-JKFIT

    Orbital Energies [Eh]
    ---------------------

    Doubly Occupied:

       1A   -489.932712     2A    -65.073308     3A    -58.427750
       4A    -58.427750     5A    -58.427742     6A     -9.746098
       7A     -7.353986     8A     -7.353298     9A     -7.353298
      10A     -3.095638    11A     -3.095292    12A     -3.095292
      13A     -3.094689    14A     -3.094689    15A     -2.490884
      16A     -0.910084    17A     -0.382248    18A     -0.353314
      19A     -0.353314

  @DF-RHF Final Energy: -2579.99944975280141

   => Energetics <=

    Nuclear Repulsion Energy =             25.5966908521956249
    One-Electron Energy =               -3647.0695206125010372
    Two-Electron Energy =                1041.4733800075041472
    Total Energy =                      -2579.9994497528014108
 Dipole X            :       -146.5034230          143.5732463           -2.9301768
 Dipole Y            :         -0.0000000            0.0000000           -0.0000000
 Dipole Z            :         -0.0000000            0.0000000           -0.0000000
 Magnitude           :                                                    2.9301768
  Basis Set: (AUG-CC-PVTZ AUX)
    Blend: AUG-CC-PVTZ-RI + DEF2-QZVPP-RI
	 Reference Energy          =   -2579.9994497528014108 [Eh]
	 Singles Energy            =      -0.0000000000000000 [Eh]
	 Same-Spin Energy          =      -0.0887572988705454 [Eh]
	 Opposite-Spin Energy      =      -0.2177761531266177 [Eh]
	 Correlation Energy        =      -0.3065334519971631 [Eh]
	 Total Energy              =   -2580.3059832047983946 [Eh]

	 ================> DF-SCS-MP2 Energies <==================
	-----------------------------------------------------------
	 SCS Same-Spin Scale       =       0.3333333333333333 [-]
	 SCS Opposite-Spin Scale   =       1.2000000000000000 [-]
	 SCS Same-Spin Energy      =      -0.0295857662901818 [Eh]
	 SCS Opposite-Spin Energy  =      -0.2613313837519412 [Eh]
	 SCS Correlation Energy    =      -0.2909171500421230 [Eh]
	 SCS Total Energy          =   -2580.2903669028437434 [Eh]
	-----------------------------------------------------------

*** Psi4 exiting successfully. Buy a developer a beer!
