                               Psi4 1.9 release

  ==> Input File <==

--------------------------------------------------------------------------
MEMORY 60 GB

molecule dimer {
1 1
Li     0.000000     0.000000     0.000000
--
-1 1
Br     2.604881     0.000000     0.000000

units ang
no_reorient
no_com
symmetry c1
}

set {
basis        aug-cc-pVTZ
scf_type     df
}

energy("mp2", bsse_type="cp")
--------------------------------------------------------------------------

                               Psi4 1.9 release
    Molecular point group: c1
  Charge       = -1
  Multiplicity = 1
  Basis Set: AUG-CC-PVTZ
    Blend: AUG-CC-PVTZ
  Basis Set: (AUG-CC-PVTZ AUX)
    Blend: AUG-CC-PVTZ-JKFIT + DEF2-UNIVERSAL-JKFIT
  @DF-RHF Final Energy: -2572.53368424724295
    Total Energy =                      -2572.5336842472424905
 Dipole X            :       -177.2108254          172.2879088           -4.9229166
 Dipole Y            :          0.0000000            0.0000000            0.0000000
 Dipole Z            :          0.0000000            0.0000000            0.0000000
 Magnitude           :                                                    4.9229166
  Basis Set: (AUG-CC-PVTZ AUX)
    Blend: AUG-CC-PVTZ-RI + DEF2-QZVPP-RI
	 Reference Energy          =   -2572.5336842472429453 [Eh]
	 Singles Energy            =      -0.0000000000000000 [Eh]
	 Same-Spin Energy          =      -0.0878750504369765 [Eh]
	 Opposite-Spin Energy      =      -0.2037758985125722 [Eh]
	 Correlation Energy        =      -0.2916509489495487 [Eh]
	 Total Energy              =   -2572.8253351961925546 [Eh]
	 SCS Total Energy          =   -2572.8075070089371366 [Eh]
                               Psi4 1.9 release
    Molecular point group: c1
  Multiplicity = 1
  Basis Set: AUG-CC-PVTZ
    Blend: AUG-CC-PVTZ
  Basis Set: (AUG-CC-PVTZ AUX)
    Blend: AUG-CC-PVTZ-JKFIT + DEF2-UNIVERSAL-JKFIT
  @DF-RHF Final Energy:    -7.23638298847559
    Total Energy =                         -7.2363829884755884
  Basis Set: (AUG-CC-PVTZ AUX)
	 Singles Energy            =      -0.0000000000000000 [Eh]
	 Same-Spin Energy          =       0.0000000000000000 [Eh]
	 Opposite-Spin Energy      =      -0.0116929034074167 [Eh]
	 Correlation Energy        =      -0.0116929034074167 [Eh]
	 Total Energy              =      -7.2480758918830048 [Eh]
	 SCS Total Energy          =      -7.2504144725644881 [Eh]
                               Psi4 1.9 release
    Molecular point group: c1

    Geometry (in Bohr), charge = 0, multiplicity = 1:

       Center              X                  Y                   Z               Mass
    ------------   -----------------  -----------------  -----------------  -----------------
         LI           0.000000000000     0.000000000000     0.000000000000     7.016003436600
         BR           4.922511679409     0.000000000000     0.000000000000    78.918337600000

  Charge       = 0
  Multiplicity = 1
  Basis Set: AUG-CC-PVTZ
    Blend: AUG-CC-PVTZ
  Basis Set: (AUG-CC-PVTZ AUX)
    Blend: AUG-CC-PVTZ-JKFIT + DEF2-UNIVERSAL-JKFIT

    Orbital Energies [Eh]
    ---------------------

    Doubly Occupied:

       1A   -489.918983     2A    -65.058838     3A    -58.413474
       4A    -58.413239     5A    -58.413239     6A     -9.730943
       7A     -7.339083     8A     -7.337807     9A     -7.337807
      10A     -3.081061    11A     -3.080467    12A     -3.080467
      13A     -3.078824    14A     -3.078824    15A     -2.532925
      16A     -0.885620    17A     -0.353360    18A     -0.332638
      19A     -0.332638

  @DF-RHF Final Energy: -2579.98543087280450

   => Energetics <=

    Nuclear Repulsion Energy =             21.3305740724240387
    One-Electron Energy =               -3639.0315399565079133
    Two-Electron Energy =                1037.7155350112793712
    Total Energy =                      -2579.9854308728044998
 Dipole X            :       -175.9947559          172.2879088           -3.7068472
 Dipole Y            :          0.0000000            0.0000000            0.0000000
 Dipole Z            :          0.0000000            0.0000000            0.0000000
 Magnitude           :                                                    3.7068472
  Basis Set: (AUG-CC-PVTZ AUX)
    Blend: AUG-CC-PVTZ-RI + DEF2-QZVPP-RI
	 Reference Energy          =   -2579.9854308728044998 [Eh]
	 Singles Energy            =      -0.0000000000000000 [Eh]
	 Same-Spin Energy          =      -0.0879946128556283 [Eh]
	 Opposite-Spin Energy      =      -0.2161400041970782 [Eh]
	 Correlation Energy        =      -0.3041346170527064 [Eh]
	 Total Energy              =   -2580.2895654898570683 [Eh]

	 ================> DF-SCS-MP2 Energies <==================
	-----------------------------------------------------------
	 SCS Same-Spin Scale       =       0.3333333333333333 [-]
	 SCS Opposite-Spin Scale   =       1.2000000000000000 [-]
	 SCS Same-Spin Energy      =      -0.0293315376185428 [Eh]
	 SCS Opposite-Spin Energy  =      -0.2593680050364938 [Eh]
	 SCS Correlation Energy    =      -0.2886995426550365 [Eh]
	 SCS Total Energy          =   -2580.2741304154596946 [Eh]
	-----------------------------------------------------------

*** Psi4 exiting successfully. Buy a developer a beer!
