                               Psi4 1.9 release

  ==> Input File <==

--------------------------------------------------------------------------
MEMORY 60 GB

molecule dimer {
1 1
Li     0.000000     0.000000     0.000000
--
-1 1
Br     1.736587     0.000000     0.000000

units ang
no_reorient
no_com
symmetry c1
}

set {
basis        aug-cc-pVTZ
scf_type     df
}

energy("mp2", bsse_type="cp")
--------------------------------------------------------------------------

                               Psi4 1.9 release
    Molecular point group: c1
  Charge       = -1
  Multiplicity = 1
  Basis Set: AUG-CC-PVTZ
    Blend: AUG-CC-PVTZ
  Basis Set: (AUG-CC-PVTZ AUX)
    Blend: AUG-CC-PVTZ-JKFIT + DEF2-UNIVERSAL-JKFIT
  @DF-RHF Final Energy: -2572.53369881913795
    Total Energy =                      -2572.5336988191374985
 Dipole X            :       -118.1408632          114.8585838           -3.2822794
 Dipole Y            :          0.0000000            0.0000000            0.0000000
 Dipole Z            :         -0.0000000            0.0000000           -0.0000000
 Magnitude           :                                                    3.2822794
  Basis Set: (AUG-CC-PVTZ AUX)
    Blend: AUG-CC-PVTZ-RI + DEF2-QZVPP-RI
	 Reference Energy          =   -2572.5336988191379533 [Eh]
	 Singles Energy            =      -0.0000000000000000 [Eh]
	 Same-Spin Energy          =      -0.0893731710584982 [Eh]
	 Opposite-Spin Energy      =      -0.2074605932671296 [Eh]
	 Correlation Energy        =      -0.2968337643256279 [Eh]
	 Total Energy              =   -2572.8305325834635369 [Eh]
	 SCS Total Energy          =   -2572.8124425880778290 [Eh]
                               Psi4 1.9 release
    Molecular point group: c1
  Multiplicity = 1
  Basis Set: AUG-CC-PVTZ
    Blend: AUG-CC-PVTZ
  Basis Set: (AUG-CC-PVTZ AUX)
    Blend: AUG-CC-PVTZ-JKFIT + DEF2-UNIVERSAL-JKFIT
  @DF-RHF Final Energy:    -7.23638354344223
    Total Energy =                         -7.2363835434422317
  Basis Set: (AUG-CC-PVTZ AUX)
	 Singles Energy            =      -0.0000000000000000 [Eh]
	 Same-Spin Energy          =       0.0000000000000000 [Eh]
	 Opposite-Spin Energy      =      -0.0140212199487531 [Eh]
	 Correlation Energy        =      -0.0140212199487531 [Eh]
	 Total Energy              =      -7.2504047633909856 [Eh]
	 SCS Total Energy          =      -7.2532090073807360 [Eh]
                               Psi4 1.9 release
    Molecular point group: c1

    Geometry (in Bohr), charge = 0, multiplicity = 1:

       Center              X                  Y                   Z               Mass
    ------------   -----------------  -----------------  -----------------  -----------------
         LI           0.000000000000     0.000000000000     0.000000000000     7.016003436600
         BR           3.281673823030     0.000000000000     0.000000000000    78.918337600000

  Charge       = 0
  Multiplicity = 1
  Basis Set: AUG-CC-PVTZ
    Blend: AUG-CC-PVTZ
  Basis Set: (AUG-CC-PVTZ AUX)
    Blend: AUG-CC-PVTZ-JKFIT + DEF2-UNIVERSAL-JKFIT

    Orbital Energies [Eh]
    ---------------------

    Doubly Occupied:

       1A   -489.941687     2A    -65.084824     3A    -58.439073
       4A    -58.439073     5A    -58.438799     6A     -9.760235
       7A     -7.368472     8A     -7.367471     9A     -7.367471
      10A     -3.109359    11A     -3.109274    12A     -3.109274
      13A     -3.108885    14A     -3.108885    15A     -2.466710
      16A     -0.937993    17A     -0.400173    18A     -0.380330
      19A     -0.380330

  @DF-RHF Final Energy: -2579.94503896769720

   => Energetics <=

    Nuclear Repulsion Energy =             31.9958672501579215
    One-Electron Energy =               -3659.2451833518862259
    Two-Electron Energy =                1047.3042771340312811
    Total Energy =                      -2579.9450389676967461
 Dipole X            :       -117.1022997          114.8585838           -2.2437159
 Dipole Y            :          0.0000000            0.0000000            0.0000000
 Dipole Z            :         -0.0000000            0.0000000           -0.0000000
 Magnitude           :                                                    2.2437159
  Basis Set: (AUG-CC-PVTZ AUX)
    Blend: AUG-CC-PVTZ-RI + DEF2-QZVPP-RI
	 Reference Energy          =   -2579.9450389676972009 [Eh]
	 Singles Energy            =      -0.0000000000000000 [Eh]
	 Same-Spin Energy          =      -0.0902844929785128 [Eh]
	 Opposite-Spin Energy      =      -0.2212652621045089 [Eh]
	 Correlation Energy        =      -0.3115497550830216 [Eh]
	 Total Energy              =   -2580.2565887227801795 [Eh]

	 ================> DF-SCS-MP2 Energies <==================
	-----------------------------------------------------------
	 SCS Same-Spin Scale       =       0.3333333333333333 [-]
	 SCS Opposite-Spin Scale   =       1.2000000000000000 [-]
	 SCS Same-Spin Energy      =      -0.0300948309928376 [Eh]
	 SCS Opposite-Spin Energy  =      -0.2655183145254106 [Eh]
	 SCS Correlation Energy    =      -0.2956131455182482 [Eh]
	 SCS Total Energy          =   -2580.2406521132156740 [Eh]
	-----------------------------------------------------------

*** Psi4 exiting successfully. Buy a developer a beer!
