                               Psi4 1.9 release

  ==> Input File <==

--------------------------------------------------------------------------
MEMORY 60 GB

molecule dimer {
1 1
Li     0.000000     0.000000     0.000000
--
-1 1
Br     2.821954     0.000000     0.000000

units ang
no_reorient
no_com
symmetry c1
}

set {
basis        aug-cc-pVTZ
scf_type     df
}

energy("mp2", bsse_type="cp")
--------------------------------------------------------------------------

                               Psi4 1.9 release
    Molecular point group: c1
  Charge       = -1
  Multiplicity = 1
  Basis Set: AUG-CC-PVTZ
    Blend: AUG-CC-PVTZ
  Basis Set: (AUG-CC-PVTZ AUX)
    Blend: AUG-CC-PVTZ-JKFIT + DEF2-UNIVERSAL-JKFIT
  @DF-RHF Final Energy: -2572.53368144446267
    Total Energy =                      -2572.5336814444622178
 Dipole X            :       -191.9781815          186.6452070           -5.3329745
 Dipole Y            :         -0.0000000            0.0000000           -0.0000000
 Dipole Z            :          0.0000000            0.0000000            0.0000000
 Magnitude           :                                                    5.3329745
  Basis Set: (AUG-CC-PVTZ AUX)
    Blend: AUG-CC-PVTZ-RI + DEF2-QZVPP-RI
	 Reference Energy          =   -2572.5336814444626725 [Eh]
	 Singles Energy            =      -0.0000000000000000 [Eh]
	 Same-Spin Energy          =      -0.0876573379509963 [Eh]
	 Opposite-Spin Energy      =      -0.2032553990190404 [Eh]
	 Correlation Energy        =      -0.2909127369700366 [Eh]
	 Total Energy              =   -2572.8245941814325306 [Eh]
	 SCS Total Energy          =   -2572.8068070359358899 [Eh]
                               Psi4 1.9 release
    Molecular point group: c1
  Multiplicity = 1
  Basis Set: AUG-CC-PVTZ
    Blend: AUG-CC-PVTZ
  Basis Set: (AUG-CC-PVTZ AUX)
    Blend: AUG-CC-PVTZ-JKFIT + DEF2-UNIVERSAL-JKFIT
  @DF-RHF Final Energy:    -7.23638292187148
    Total Energy =                         -7.2363829218714759
  Basis Set: (AUG-CC-PVTZ AUX)
	 Singles Energy            =      -0.0000000000000000 [Eh]
	 Same-Spin Energy          =       0.0000000000000000 [Eh]
	 Opposite-Spin Energy      =      -0.0114937099018410 [Eh]
	 Correlation Energy        =      -0.0114937099018410 [Eh]
	 Total Energy              =      -7.2478766317733170 [Eh]
	 SCS Total Energy          =      -7.2501753737536854 [Eh]
                               Psi4 1.9 release
    Molecular point group: c1

    Geometry (in Bohr), charge = 0, multiplicity = 1:

       Center              X                  Y                   Z               Mass
    ------------   -----------------  -----------------  -----------------  -----------------
         LI           0.000000000000     0.000000000000     0.000000000000     7.016003436600
         BR           5.332720198640     0.000000000000     0.000000000000    78.918337600000

  Charge       = 0
  Multiplicity = 1
  Basis Set: AUG-CC-PVTZ
    Blend: AUG-CC-PVTZ
  Basis Set: (AUG-CC-PVTZ AUX)
    Blend: AUG-CC-PVTZ-JKFIT + DEF2-UNIVERSAL-JKFIT

    Orbital Energies [Eh]
    ---------------------

    Doubly Occupied:

       1A   -489.911025     2A    -65.050765     3A    -58.405444
       4A    -58.405143     5A    -58.405143     6A     -9.722783
       7A     -7.331007     8A     -7.329542     9A     -7.329542
      10A     -3.073048    11A     -3.072382    12A     -3.072382
      13A     -3.070463    14A     -3.070463    15A     -2.553123
      16A     -0.875007    17A     -0.339353    18A     -0.323361
      19A     -0.323361

  @DF-RHF Final Energy: -2579.97278691085830

   => Energetics <=

    Nuclear Repulsion Energy =             19.6897635894667324
    One-Electron Energy =               -3635.9984320242779177
    Two-Electron Energy =                1036.3358815239530486
    Total Energy =                      -2579.9727869108583036
 Dipole X            :       -190.7673234          186.6452070           -4.1221164
 Dipole Y            :         -0.0000000            0.0000000           -0.0000000
 Dipole Z            :          0.0000000            0.0000000            0.0000000
 Magnitude           :                                                    4.1221164
  Basis Set: (AUG-CC-PVTZ AUX)
    Blend: AUG-CC-PVTZ-RI + DEF2-QZVPP-RI
	 Reference Energy          =   -2579.9727869108583036 [Eh]
	 Singles Energy            =      -0.0000000000000000 [Eh]
	 Same-Spin Energy          =      -0.0877930968404778 [Eh]
	 Opposite-Spin Energy      =      -0.2157251042829044 [Eh]
	 Correlation Energy        =      -0.3035182011233822 [Eh]
	 Total Energy              =   -2580.2763051119818556 [Eh]

	 ================> DF-SCS-MP2 Energies <==================
	-----------------------------------------------------------
	 SCS Same-Spin Scale       =       0.3333333333333333 [-]
	 SCS Opposite-Spin Scale   =       1.2000000000000000 [-]
	 SCS Same-Spin Energy      =      -0.0292643656134926 [Eh]
	 SCS Opposite-Spin Energy  =      -0.2588701251394852 [Eh]
	 SCS Correlation Energy    =      -0.2881344907529778 [Eh]
	 SCS Total Energy          =   -2580.2609214016110855 [Eh]
	-----------------------------------------------------------

*** Psi4 exiting successfully. Buy a developer a beer!
