                               Psi4 1.9 release

  ==> Input File <==

--------------------------------------------------------------------------
MEMORY 60 GB

molecule dimer {
1 1
Na     0.000000     0.000000     0.000000
--
-1 1
F     3.879160     0.000000     0.000000

units ang
no_reorient
no_com
symmetry c1
}

set {
basis        aug-cc-pVTZ
scf_type     df
}

energy("mp2", bsse_type="cp")
--------------------------------------------------------------------------

                               Psi4 1.9 release
    Molecular point group: c1
  Charge       = -1
  Multiplicity = 1
  Basis Set: AUG-CC-PVTZ
    Blend: AUG-CC-PVTZ
  Basis Set: (AUG-CC-PVTZ AUX)
    Blend: AUG-CC-PVTZ-JKFIT + DEF2-UNIVERSAL-JKFIT
  @DF-RHF Final Energy:   -99.45082109969954
    Total Energy =                        -99.4508210996995388
 Dipole X            :        -73.3055498           65.9749500           -7.3305998
 Dipole Y            :          0.0000000            0.0000000            0.0000000
 Dipole Z            :         -0.0000000            0.0000000           -0.0000000
 Magnitude           :                                                    7.3305998
  Basis Set: (AUG-CC-PVTZ AUX)
    Blend: AUG-CC-PVTZ-RI + DEF2-QZVPP-RI
	 Reference Energy          =     -99.4508210996995388 [Eh]
	 Singles Energy            =      -0.0000000000000000 [Eh]
	 Same-Spin Energy          =      -0.0815924237779385 [Eh]
	 Opposite-Spin Energy      =      -0.2264280911118433 [Eh]
	 Correlation Energy        =      -0.3080205148897818 [Eh]
	 Total Energy              =     -99.7588416145893149 [Eh]
	 SCS Total Energy          =     -99.7497322836264004 [Eh]
                               Psi4 1.9 release
    Molecular point group: c1
  Multiplicity = 1
  Basis Set: AUG-CC-PVTZ
    Blend: AUG-CC-PVTZ
  Basis Set: (AUG-CC-PVTZ AUX)
    Blend: AUG-CC-PVTZ-JKFIT + DEF2-UNIVERSAL-JKFIT
  @DF-RHF Final Energy:  -161.67602456235721
    Total Energy =                       -161.6760245623571848
  Basis Set: (AUG-CC-PVTZ AUX)
	 Singles Energy            =      -0.0000000000000000 [Eh]
	 Same-Spin Energy          =      -0.0019243564206439 [Eh]
	 Opposite-Spin Energy      =      -0.0078223027221930 [Eh]
	 Correlation Energy        =      -0.0097466591428369 [Eh]
	 Total Energy              =    -161.6857712215000618 [Eh]
	 SCS Total Energy          =    -161.6860527777640471 [Eh]
                               Psi4 1.9 release
    Molecular point group: c1

    Geometry (in Bohr), charge = 0, multiplicity = 1:

       Center              X                  Y                   Z               Mass
    ------------   -----------------  -----------------  -----------------  -----------------
         NA           0.000000000000     0.000000000000     0.000000000000    22.989769282000
         F            7.330549996831     0.000000000000     0.000000000000    18.998403162730

  Charge       = 0
  Multiplicity = 1
  Basis Set: AUG-CC-PVTZ
    Blend: AUG-CC-PVTZ
  Basis Set: (AUG-CC-PVTZ AUX)
    Blend: AUG-CC-PVTZ-JKFIT + DEF2-UNIVERSAL-JKFIT

    Orbital Energies [Eh]
    ---------------------

    Doubly Occupied:

       1A    -40.622254     2A    -25.975858     3A     -2.933917
       4A     -1.657397     5A     -1.657397     6A     -1.656157
       7A     -1.216762     8A     -0.322124     9A     -0.322124
      10A     -0.319087

  @DF-RHF Final Energy:  -261.26541974783419

   => Energetics <=

    Nuclear Repulsion Energy =             13.5051258149522067
    One-Electron Energy =                -396.1749353169171854
    Two-Electron Energy =                 121.4043897541308183
    Total Energy =                       -261.2654197478341871
 Dipole X            :        -73.0776541           65.9749500           -7.1027042
 Dipole Y            :          0.0000000            0.0000000            0.0000000
 Dipole Z            :         -0.0000000            0.0000000           -0.0000000
 Magnitude           :                                                    7.1027042
  Basis Set: (AUG-CC-PVTZ AUX)
    Blend: AUG-CC-PVTZ-RI + DEF2-QZVPP-RI
	 Reference Energy          =    -261.2654197478341871 [Eh]
	 Singles Energy            =      -0.0000000000000000 [Eh]
	 Same-Spin Energy          =      -0.0839367666628077 [Eh]
	 Opposite-Spin Energy      =      -0.2351475917599722 [Eh]
	 Correlation Energy        =      -0.3190843584227799 [Eh]
	 Total Energy              =    -261.5845041062569862 [Eh]

	 ================> DF-SCS-MP2 Energies <==================
	-----------------------------------------------------------
	 SCS Same-Spin Scale       =       0.3333333333333333 [-]
	 SCS Opposite-Spin Scale   =       1.2000000000000000 [-]
	 SCS Same-Spin Energy      =      -0.0279789222209359 [Eh]
	 SCS Opposite-Spin Energy  =      -0.2821771101119666 [Eh]
	 SCS Correlation Energy    =      -0.3101560323329025 [Eh]
	 SCS Total Energy          =    -261.5755757801670711 [Eh]
	-----------------------------------------------------------

*** Psi4 exiting successfully. Buy a developer a beer!
