                               Psi4 1.9 release

  ==> Input File <==

--------------------------------------------------------------------------
MEMORY 60 GB

molecule dimer {
1 1
Na     0.000000     0.000000     0.000000
--
-1 1
F     1.551664     0.000000     0.000000

units ang
no_reorient
no_com
symmetry c1
}

set {
basis        aug-cc-pVTZ
scf_type     df
}

energy("mp2", bsse_type="cp")
--------------------------------------------------------------------------

                               Psi4 1.9 release
    Molecular point group: c1
  Charge       = -1
  Multiplicity = 1
  Basis Set: AUG-CC-PVTZ
    Blend: AUG-CC-PVTZ
  Basis Set: (AUG-CC-PVTZ AUX)
    Blend: AUG-CC-PVTZ-JKFIT + DEF2-UNIVERSAL-JKFIT
  @DF-RHF Final Energy:   -99.45085714395829
    Total Energy =                        -99.4508571439582880
 Dipole X            :        -29.3241547           26.3899800           -2.9341747
 Dipole Y            :          0.0000000            0.0000000            0.0000000
 Dipole Z            :          0.0000000            0.0000000            0.0000000
 Magnitude           :                                                    2.9341747
  Basis Set: (AUG-CC-PVTZ AUX)
    Blend: AUG-CC-PVTZ-RI + DEF2-QZVPP-RI
	 Reference Energy          =     -99.4508571439582880 [Eh]
	 Singles Energy            =      -0.0000000000000000 [Eh]
	 Same-Spin Energy          =      -0.0817325401032345 [Eh]
	 Opposite-Spin Energy      =      -0.2273141229278524 [Eh]
	 Correlation Energy        =      -0.3090466630310869 [Eh]
	 Total Energy              =     -99.7599038069893709 [Eh]
	 SCS Total Energy          =     -99.7508782715061244 [Eh]
                               Psi4 1.9 release
    Molecular point group: c1
  Multiplicity = 1
  Basis Set: AUG-CC-PVTZ
    Blend: AUG-CC-PVTZ
  Basis Set: (AUG-CC-PVTZ AUX)
    Blend: AUG-CC-PVTZ-JKFIT + DEF2-UNIVERSAL-JKFIT
  @DF-RHF Final Energy:  -161.67605092639172
    Total Energy =                       -161.6760509263917243
  Basis Set: (AUG-CC-PVTZ AUX)
	 Singles Energy            =      -0.0000000000000000 [Eh]
	 Same-Spin Energy          =      -0.0050293052625804 [Eh]
	 Opposite-Spin Energy      =      -0.0167317392980983 [Eh]
	 Correlation Energy        =      -0.0217610445606786 [Eh]
	 Total Energy              =    -161.6978119709524151 [Eh]
	 SCS Total Energy          =    -161.6978054486369558 [Eh]
                               Psi4 1.9 release
    Molecular point group: c1

    Geometry (in Bohr), charge = 0, multiplicity = 1:

       Center              X                  Y                   Z               Mass
    ------------   -----------------  -----------------  -----------------  -----------------
         NA           0.000000000000     0.000000000000     0.000000000000    22.989769282000
         F            2.932219998732     0.000000000000     0.000000000000    18.998403162730

  Charge       = 0
  Multiplicity = 1
  Basis Set: AUG-CC-PVTZ
    Blend: AUG-CC-PVTZ
  Basis Set: (AUG-CC-PVTZ AUX)
    Blend: AUG-CC-PVTZ-JKFIT + DEF2-UNIVERSAL-JKFIT

    Orbital Energies [Eh]
    ---------------------

    Doubly Occupied:

       1A    -40.380763     2A    -26.067797     3A     -2.738029
       4A     -1.515069     5A     -1.457794     6A     -1.457794
       7A     -1.307898     8A     -0.455035     9A     -0.455035
      10A     -0.452348

  @DF-RHF Final Energy:  -261.30933301044297

   => Energetics <=

    Nuclear Repulsion Energy =             33.7628145373805140
    One-Electron Energy =                -437.5691743126724305
    Two-Electron Energy =                 142.4970267648489823
    Total Energy =                       -261.3093330104429697
 Dipole X            :        -29.1124818           26.3899800           -2.7225018
 Dipole Y            :          0.0000000            0.0000000            0.0000000
 Dipole Z            :          0.0000000            0.0000000            0.0000000
 Magnitude           :                                                    2.7225018
  Basis Set: (AUG-CC-PVTZ AUX)
    Blend: AUG-CC-PVTZ-RI + DEF2-QZVPP-RI
	 Reference Energy          =    -261.3093330104429697 [Eh]
	 Singles Energy            =      -0.0000000000000000 [Eh]
	 Same-Spin Energy          =      -0.0834161590937844 [Eh]
	 Opposite-Spin Energy      =      -0.2350815935267728 [Eh]
	 Correlation Energy        =      -0.3184977526205572 [Eh]
	 Total Energy              =    -261.6278307630635140 [Eh]

	 ================> DF-SCS-MP2 Energies <==================
	-----------------------------------------------------------
	 SCS Same-Spin Scale       =       0.3333333333333333 [-]
	 SCS Opposite-Spin Scale   =       1.2000000000000000 [-]
	 SCS Same-Spin Energy      =      -0.0278053863645948 [Eh]
	 SCS Opposite-Spin Energy  =      -0.2820979122321273 [Eh]
	 SCS Correlation Energy    =      -0.3099032985967221 [Eh]
	 SCS Total Energy          =    -261.6192363090397066 [Eh]
	-----------------------------------------------------------

*** Psi4 exiting successfully. Buy a developer a beer!
