                               Psi4 1.9 release

  ==> Input File <==

--------------------------------------------------------------------------
MEMORY 60 GB

molecule dimer {
1 1
Na     0.000000     0.000000     0.000000
--
-1 1
F     1.842601     0.000000     0.000000

units ang
no_reorient
no_com
symmetry c1
}

set {
basis        aug-cc-pVTZ
scf_type     df
}

energy("mp2", bsse_type="cp")
--------------------------------------------------------------------------

                               Psi4 1.9 release
    Molecular point group: c1
  Charge       = -1
  Multiplicity = 1
  Basis Set: AUG-CC-PVTZ
    Blend: AUG-CC-PVTZ
  Basis Set: (AUG-CC-PVTZ AUX)
    Blend: AUG-CC-PVTZ-JKFIT + DEF2-UNIVERSAL-JKFIT
  @DF-RHF Final Energy:   -99.45085534560269
    Total Energy =                        -99.4508553456026902
 Dipole X            :        -34.8210047           31.3381012           -3.4829034
 Dipole Y            :          0.0000000            0.0000000            0.0000000
 Dipole Z            :          0.0000000            0.0000000            0.0000000
 Magnitude           :                                                    3.4829034
  Basis Set: (AUG-CC-PVTZ AUX)
    Blend: AUG-CC-PVTZ-RI + DEF2-QZVPP-RI
	 Reference Energy          =     -99.4508553456026902 [Eh]
	 Singles Energy            =      -0.0000000000000000 [Eh]
	 Same-Spin Energy          =      -0.0817158071023251 [Eh]
	 Opposite-Spin Energy      =      -0.2272327039703967 [Eh]
	 Correlation Energy        =      -0.3089485110727218 [Eh]
	 Total Energy              =     -99.7598038566754184 [Eh]
	 SCS Total Energy          =     -99.7507731927346128 [Eh]
                               Psi4 1.9 release
    Molecular point group: c1
  Multiplicity = 1
  Basis Set: AUG-CC-PVTZ
    Blend: AUG-CC-PVTZ
  Basis Set: (AUG-CC-PVTZ AUX)
    Blend: AUG-CC-PVTZ-JKFIT + DEF2-UNIVERSAL-JKFIT
  @DF-RHF Final Energy:  -161.67604029469425
    Total Energy =                       -161.6760402946942463
  Basis Set: (AUG-CC-PVTZ AUX)
	 Singles Energy            =      -0.0000000000000000 [Eh]
	 Same-Spin Energy          =      -0.0029541887646157 [Eh]
	 Opposite-Spin Energy      =      -0.0108588297138733 [Eh]
	 Correlation Energy        =      -0.0138130184784890 [Eh]
	 Total Energy              =    -161.6898533131727334 [Eh]
	 SCS Total Energy          =    -161.6900556199391019 [Eh]
                               Psi4 1.9 release
    Molecular point group: c1

    Geometry (in Bohr), charge = 0, multiplicity = 1:

       Center              X                  Y                   Z               Mass
    ------------   -----------------  -----------------  -----------------  -----------------
         NA           0.000000000000     0.000000000000     0.000000000000    22.989769282000
         F            3.482011248495     0.000000000000     0.000000000000    18.998403162730

  Charge       = 0
  Multiplicity = 1
  Basis Set: AUG-CC-PVTZ
    Blend: AUG-CC-PVTZ
  Basis Set: (AUG-CC-PVTZ AUX)
    Blend: AUG-CC-PVTZ-JKFIT + DEF2-UNIVERSAL-JKFIT

    Orbital Energies [Eh]
    ---------------------

    Doubly Occupied:

       1A    -40.446650     2A    -26.070040     3A     -2.775892
       4A     -1.505936     5A     -1.499112     6A     -1.499112
       7A     -1.325744     8A     -0.445471     9A     -0.433368
      10A     -0.433368

  @DF-RHF Final Energy:  -261.36846656940480

   => Energetics <=

    Nuclear Repulsion Energy =             28.4318438209520146
    One-Electron Energy =                -426.7312350444830145
    Two-Electron Energy =                 136.9309246541262155
    Total Energy =                       -261.3684665694048022
 Dipole X            :        -34.5193001           31.3381012           -3.1811988
 Dipole Y            :          0.0000000            0.0000000            0.0000000
 Dipole Z            :          0.0000000            0.0000000            0.0000000
 Magnitude           :                                                    3.1811988
  Basis Set: (AUG-CC-PVTZ AUX)
    Blend: AUG-CC-PVTZ-RI + DEF2-QZVPP-RI
	 Reference Energy          =    -261.3684665694048022 [Eh]
	 Singles Energy            =      -0.0000000000000000 [Eh]
	 Same-Spin Energy          =      -0.0825281351625229 [Eh]
	 Opposite-Spin Energy      =      -0.2329215075822626 [Eh]
	 Correlation Energy        =      -0.3154496427447855 [Eh]
	 Total Energy              =    -261.6839162121495974 [Eh]

	 ================> DF-SCS-MP2 Energies <==================
	-----------------------------------------------------------
	 SCS Same-Spin Scale       =       0.3333333333333333 [-]
	 SCS Opposite-Spin Scale   =       1.2000000000000000 [-]
	 SCS Same-Spin Energy      =      -0.0275093783875076 [Eh]
	 SCS Opposite-Spin Energy  =      -0.2795058090987151 [Eh]
	 SCS Correlation Energy    =      -0.3070151874862228 [Eh]
	 SCS Total Energy          =    -261.6754817568910312 [Eh]
	-----------------------------------------------------------

*** Psi4 exiting successfully. Buy a developer a beer!
