                               Psi4 1.9 release

  ==> Input File <==

--------------------------------------------------------------------------
MEMORY 60 GB

molecule dimer {
1 1
Na     0.000000     0.000000     0.000000
--
-1 1
F     2.909370     0.000000     0.000000

units ang
no_reorient
no_com
symmetry c1
}

set {
basis        aug-cc-pVTZ
scf_type     df
}

energy("mp2", bsse_type="cp")
--------------------------------------------------------------------------

                               Psi4 1.9 release
    Molecular point group: c1
  Charge       = -1
  Multiplicity = 1
  Basis Set: AUG-CC-PVTZ
    Blend: AUG-CC-PVTZ
  Basis Set: (AUG-CC-PVTZ AUX)
    Blend: AUG-CC-PVTZ-JKFIT + DEF2-UNIVERSAL-JKFIT
  @DF-RHF Final Energy:   -99.45082727852754
    Total Energy =                        -99.4508272785275409
 Dipole X            :        -54.9790647           49.4812125           -5.4978523
 Dipole Y            :         -0.0000000            0.0000000           -0.0000000
 Dipole Z            :         -0.0000000            0.0000000           -0.0000000
 Magnitude           :                                                    5.4978523
  Basis Set: (AUG-CC-PVTZ AUX)
    Blend: AUG-CC-PVTZ-RI + DEF2-QZVPP-RI
	 Reference Energy          =     -99.4508272785275409 [Eh]
	 Singles Energy            =      -0.0000000000000000 [Eh]
	 Same-Spin Energy          =      -0.0816268016818463 [Eh]
	 Opposite-Spin Energy      =      -0.2266359511895988 [Eh]
	 Correlation Energy        =      -0.3082627528714451 [Eh]
	 Total Energy              =     -99.7590900313989835 [Eh]
	 SCS Total Energy          =     -99.7499993538490060 [Eh]
                               Psi4 1.9 release
    Molecular point group: c1
  Multiplicity = 1
  Basis Set: AUG-CC-PVTZ
    Blend: AUG-CC-PVTZ
  Basis Set: (AUG-CC-PVTZ AUX)
    Blend: AUG-CC-PVTZ-JKFIT + DEF2-UNIVERSAL-JKFIT
  @DF-RHF Final Energy:  -161.67602924039707
    Total Energy =                       -161.6760292403970709
  Basis Set: (AUG-CC-PVTZ AUX)
	 Singles Energy            =      -0.0000000000000000 [Eh]
	 Same-Spin Energy          =      -0.0021001181591026 [Eh]
	 Opposite-Spin Energy      =      -0.0083198861670878 [Eh]
	 Correlation Energy        =      -0.0104200043261903 [Eh]
	 Total Energy              =    -161.6864492447232635 [Eh]
	 SCS Total Energy          =    -161.6867131431839368 [Eh]
                               Psi4 1.9 release
    Molecular point group: c1

    Geometry (in Bohr), charge = 0, multiplicity = 1:

       Center              X                  Y                   Z               Mass
    ------------   -----------------  -----------------  -----------------  -----------------
         NA           0.000000000000     0.000000000000     0.000000000000    22.989769282000
         F            5.497912497623     0.000000000000     0.000000000000    18.998403162730

  Charge       = 0
  Multiplicity = 1
  Basis Set: AUG-CC-PVTZ
    Blend: AUG-CC-PVTZ
  Basis Set: (AUG-CC-PVTZ AUX)
    Blend: AUG-CC-PVTZ-JKFIT + DEF2-UNIVERSAL-JKFIT

    Orbital Energies [Eh]
    ---------------------

    Doubly Occupied:

       1A    -40.568472     2A    -26.020707     3A     -2.881229
       4A     -1.605056     5A     -1.605056     6A     -1.602361
       7A     -1.261617     8A     -0.366740     9A     -0.366740
      10A     -0.365170

  @DF-RHF Final Energy:  -261.31286990892886

   => Energetics <=

    Nuclear Repulsion Energy =             18.0068344199362755
    One-Electron Energy =                -405.3531142272348120
    Two-Electron Energy =                 126.0334098983696691
    Total Energy =                       -261.3128699089288602
 Dipole X            :        -54.6392505           49.4812125           -5.1580380
 Dipole Y            :         -0.0000000            0.0000000           -0.0000000
 Dipole Z            :         -0.0000000            0.0000000           -0.0000000
 Magnitude           :                                                    5.1580380
  Basis Set: (AUG-CC-PVTZ AUX)
    Blend: AUG-CC-PVTZ-RI + DEF2-QZVPP-RI
	 Reference Energy          =    -261.3128699089288602 [Eh]
	 Singles Energy            =      -0.0000000000000000 [Eh]
	 Same-Spin Energy          =      -0.0840240913776413 [Eh]
	 Opposite-Spin Energy      =      -0.2357483581396340 [Eh]
	 Correlation Energy        =      -0.3197724495172753 [Eh]
	 Total Energy              =    -261.6326423584461622 [Eh]

	 ================> DF-SCS-MP2 Energies <==================
	-----------------------------------------------------------
	 SCS Same-Spin Scale       =       0.3333333333333333 [-]
	 SCS Opposite-Spin Scale   =       1.2000000000000000 [-]
	 SCS Same-Spin Energy      =      -0.0280080304592138 [Eh]
	 SCS Opposite-Spin Energy  =      -0.2828980297675608 [Eh]
	 SCS Correlation Energy    =      -0.3109060602267745 [Eh]
	 SCS Total Energy          =    -261.6237759691556448 [Eh]
	-----------------------------------------------------------

*** Psi4 exiting successfully. Buy a developer a beer!
