                               Psi4 1.9 release

  ==> Input File <==

--------------------------------------------------------------------------
MEMORY 60 GB

molecule dimer {
1 1
Na     0.000000     0.000000     0.000000
--
-1 1
F     2.521454     0.000000     0.000000

units ang
no_reorient
no_com
symmetry c1
}

set {
basis        aug-cc-pVTZ
scf_type     df
}

energy("mp2", bsse_type="cp")
--------------------------------------------------------------------------

                               Psi4 1.9 release
    Molecular point group: c1
  Charge       = -1
  Multiplicity = 1
  Basis Set: AUG-CC-PVTZ
    Blend: AUG-CC-PVTZ
  Basis Set: (AUG-CC-PVTZ AUX)
    Blend: AUG-CC-PVTZ-JKFIT + DEF2-UNIVERSAL-JKFIT
  @DF-RHF Final Energy:   -99.45084162889098
    Total Energy =                        -99.4508416288909842
 Dipole X            :        -47.6493082           42.8837175           -4.7655907
 Dipole Y            :          0.0000000            0.0000000            0.0000000
 Dipole Z            :         -0.0000000            0.0000000           -0.0000000
 Magnitude           :                                                    4.7655907
  Basis Set: (AUG-CC-PVTZ AUX)
    Blend: AUG-CC-PVTZ-RI + DEF2-QZVPP-RI
	 Reference Energy          =     -99.4508416288909842 [Eh]
	 Singles Energy            =      -0.0000000000000000 [Eh]
	 Same-Spin Energy          =      -0.0816573953762777 [Eh]
	 Opposite-Spin Energy      =      -0.2268159562749013 [Eh]
	 Correlation Energy        =      -0.3084733516511790 [Eh]
	 Total Energy              =     -99.7593149805421575 [Eh]
	 SCS Total Energy          =     -99.7502399082129614 [Eh]
                               Psi4 1.9 release
    Molecular point group: c1
  Multiplicity = 1
  Basis Set: AUG-CC-PVTZ
    Blend: AUG-CC-PVTZ
  Basis Set: (AUG-CC-PVTZ AUX)
    Blend: AUG-CC-PVTZ-JKFIT + DEF2-UNIVERSAL-JKFIT
  @DF-RHF Final Energy:  -161.67603173303087
    Total Energy =                       -161.6760317330308681
  Basis Set: (AUG-CC-PVTZ AUX)
	 Singles Energy            =      -0.0000000000000000 [Eh]
	 Same-Spin Energy          =      -0.0022011295437350 [Eh]
	 Opposite-Spin Energy      =      -0.0086120329941290 [Eh]
	 Correlation Energy        =      -0.0108131625378640 [Eh]
	 Total Energy              =    -161.6868448955687256 [Eh]
	 SCS Total Energy          =    -161.6870998824717276 [Eh]
                               Psi4 1.9 release
    Molecular point group: c1

    Geometry (in Bohr), charge = 0, multiplicity = 1:

       Center              X                  Y                   Z               Mass
    ------------   -----------------  -----------------  -----------------  -----------------
         NA           0.000000000000     0.000000000000     0.000000000000    22.989769282000
         F            4.764857497940     0.000000000000     0.000000000000    18.998403162730

  Charge       = 0
  Multiplicity = 1
  Basis Set: AUG-CC-PVTZ
    Blend: AUG-CC-PVTZ
  Basis Set: (AUG-CC-PVTZ AUX)
    Blend: AUG-CC-PVTZ-JKFIT + DEF2-UNIVERSAL-JKFIT

    Orbital Energies [Eh]
    ---------------------

    Doubly Occupied:

       1A    -40.536219     2A    -26.041655     3A     -2.850329
       4A     -1.574347     5A     -1.574347     6A     -1.570720
       7A     -1.284818     8A     -0.391632     9A     -0.389075
      10A     -0.389075

  @DF-RHF Final Energy:  -261.33893084988563

   => Energetics <=

    Nuclear Repulsion Energy =             20.7771166383880086
    One-Electron Energy =                -411.0276617446039040
    Two-Electron Energy =                 128.9116142563302674
    Total Energy =                       -261.3389308498856280
 Dipole X            :        -47.2873734           42.8837175           -4.4036559
 Dipole Y            :          0.0000000            0.0000000            0.0000000
 Dipole Z            :         -0.0000000            0.0000000           -0.0000000
 Magnitude           :                                                    4.4036559
  Basis Set: (AUG-CC-PVTZ AUX)
    Blend: AUG-CC-PVTZ-RI + DEF2-QZVPP-RI
	 Reference Energy          =    -261.3389308498856280 [Eh]
	 Singles Energy            =      -0.0000000000000000 [Eh]
	 Same-Spin Energy          =      -0.0837047167786522 [Eh]
	 Opposite-Spin Energy      =      -0.2352317442613159 [Eh]
	 Correlation Energy        =      -0.3189364610399680 [Eh]
	 Total Energy              =    -261.6578673109256101 [Eh]

	 ================> DF-SCS-MP2 Energies <==================
	-----------------------------------------------------------
	 SCS Same-Spin Scale       =       0.3333333333333333 [-]
	 SCS Opposite-Spin Scale   =       1.2000000000000000 [-]
	 SCS Same-Spin Energy      =      -0.0279015722595507 [Eh]
	 SCS Opposite-Spin Energy  =      -0.2822780931135790 [Eh]
	 SCS Correlation Energy    =      -0.3101796653731297 [Eh]
	 SCS Total Energy          =    -261.6491105152587693 [Eh]
	-----------------------------------------------------------

*** Psi4 exiting successfully. Buy a developer a beer!
