                               Psi4 1.9 release

  ==> Input File <==

--------------------------------------------------------------------------
MEMORY 60 GB

molecule dimer {
1 1
Na     0.000000     0.000000     0.000000
--
-1 1
F     2.133538     0.000000     0.000000

units ang
no_reorient
no_com
symmetry c1
}

set {
basis        aug-cc-pVTZ
scf_type     df
}

energy("mp2", bsse_type="cp")
--------------------------------------------------------------------------

                               Psi4 1.9 release
    Molecular point group: c1
  Charge       = -1
  Multiplicity = 1
  Basis Set: AUG-CC-PVTZ
    Blend: AUG-CC-PVTZ
  Basis Set: (AUG-CC-PVTZ AUX)
    Blend: AUG-CC-PVTZ-JKFIT + DEF2-UNIVERSAL-JKFIT
  @DF-RHF Final Energy:   -99.45085846915929
    Total Energy =                        -99.4508584691592716
 Dipole X            :        -40.3190683           36.2862225           -4.0328458
 Dipole Y            :         -0.0000000            0.0000000           -0.0000000
 Dipole Z            :         -0.0000000            0.0000000           -0.0000000
 Magnitude           :                                                    4.0328458
  Basis Set: (AUG-CC-PVTZ AUX)
    Blend: AUG-CC-PVTZ-RI + DEF2-QZVPP-RI
	 Reference Energy          =     -99.4508584691592858 [Eh]
	 Singles Energy            =      -0.0000000000000000 [Eh]
	 Same-Spin Energy          =      -0.0816965789740375 [Eh]
	 Opposite-Spin Energy      =      -0.2270898734990736 [Eh]
	 Correlation Energy        =      -0.3087864524731111 [Eh]
	 Total Energy              =     -99.7596449216324004 [Eh]
	 SCS Total Energy          =     -99.7505985103495192 [Eh]
                               Psi4 1.9 release
    Molecular point group: c1
  Multiplicity = 1
  Basis Set: AUG-CC-PVTZ
    Blend: AUG-CC-PVTZ
  Basis Set: (AUG-CC-PVTZ AUX)
    Blend: AUG-CC-PVTZ-JKFIT + DEF2-UNIVERSAL-JKFIT
  @DF-RHF Final Energy:  -161.67603499499103
    Total Energy =                       -161.6760349949910278
  Basis Set: (AUG-CC-PVTZ AUX)
	 Singles Energy            =      -0.0000000000000000 [Eh]
	 Same-Spin Energy          =      -0.0022714596859745 [Eh]
	 Opposite-Spin Energy      =      -0.0087971238328604 [Eh]
	 Correlation Energy        =      -0.0110685835188350 [Eh]
	 Total Energy              =    -161.6871035785098627 [Eh]
	 SCS Total Energy          =    -161.6873486968191287 [Eh]
                               Psi4 1.9 release
    Molecular point group: c1

    Geometry (in Bohr), charge = 0, multiplicity = 1:

       Center              X                  Y                   Z               Mass
    ------------   -----------------  -----------------  -----------------  -----------------
         NA           0.000000000000     0.000000000000     0.000000000000    22.989769282000
         F            4.031802498257     0.000000000000     0.000000000000    18.998403162730

  Charge       = 0
  Multiplicity = 1
  Basis Set: AUG-CC-PVTZ
    Blend: AUG-CC-PVTZ
  Basis Set: (AUG-CC-PVTZ AUX)
    Blend: AUG-CC-PVTZ-JKFIT + DEF2-UNIVERSAL-JKFIT

    Orbital Energies [Eh]
    ---------------------

    Doubly Occupied:

       1A    -40.493298     2A    -26.060844     3A     -2.811656
       4A     -1.535638     5A     -1.535638     6A     -1.532707
       7A     -1.310423     8A     -0.422857     9A     -0.413527
      10A     -0.413527

  @DF-RHF Final Energy:  -261.36449085619319

   => Energetics <=

    Nuclear Repulsion Energy =             24.5547742090040089
    One-Electron Energy =                -418.7783028318169158
    Two-Electron Energy =                 132.8590377666197639
    Total Energy =                       -261.3644908561931288
 Dipole X            :        -39.9722285           36.2862225           -3.6860060
 Dipole Y            :         -0.0000000            0.0000000           -0.0000000
 Dipole Z            :          0.0000000            0.0000000            0.0000000
 Magnitude           :                                                    3.6860060
  Basis Set: (AUG-CC-PVTZ AUX)
    Blend: AUG-CC-PVTZ-RI + DEF2-QZVPP-RI
	 Reference Energy          =    -261.3644908561931857 [Eh]
	 Singles Energy            =      -0.0000000000000000 [Eh]
	 Same-Spin Energy          =      -0.0828811300739289 [Eh]
	 Opposite-Spin Energy      =      -0.2334848624927431 [Eh]
	 Correlation Energy        =      -0.3163659925666720 [Eh]
	 Total Energy              =    -261.6808568487598450 [Eh]

	 ================> DF-SCS-MP2 Energies <==================
	-----------------------------------------------------------
	 SCS Same-Spin Scale       =       0.3333333333333333 [-]
	 SCS Opposite-Spin Scale   =       1.2000000000000000 [-]
	 SCS Same-Spin Energy      =      -0.0276270433579763 [Eh]
	 SCS Opposite-Spin Energy  =      -0.2801818349912917 [Eh]
	 SCS Correlation Energy    =      -0.3078088783492680 [Eh]
	 SCS Total Energy          =    -261.6722997345424346 [Eh]
	-----------------------------------------------------------

*** Psi4 exiting successfully. Buy a developer a beer!
