                               Psi4 1.9 release

  ==> Input File <==

--------------------------------------------------------------------------
MEMORY 60 GB

molecule dimer {
1 1
Na     0.000000     0.000000     0.000000
--
-1 1
F     2.327496     0.000000     0.000000

units ang
no_reorient
no_com
symmetry c1
}

set {
basis        aug-cc-pVTZ
scf_type     df
}

energy("mp2", bsse_type="cp")
--------------------------------------------------------------------------

                               Psi4 1.9 release
    Molecular point group: c1
  Charge       = -1
  Multiplicity = 1
  Basis Set: AUG-CC-PVTZ
    Blend: AUG-CC-PVTZ
  Basis Set: (AUG-CC-PVTZ AUX)
    Blend: AUG-CC-PVTZ-JKFIT + DEF2-UNIVERSAL-JKFIT
  @DF-RHF Final Energy:   -99.45085333404923
    Total Energy =                        -99.4508533340492420
 Dipole X            :        -43.9843638           39.5849700           -4.3993938
 Dipole Y            :         -0.0000000            0.0000000           -0.0000000
 Dipole Z            :          0.0000000            0.0000000            0.0000000
 Magnitude           :                                                    4.3993938
  Basis Set: (AUG-CC-PVTZ AUX)
    Blend: AUG-CC-PVTZ-RI + DEF2-QZVPP-RI
	 Reference Energy          =     -99.4508533340492278 [Eh]
	 Singles Energy            =      -0.0000000000000000 [Eh]
	 Same-Spin Energy          =      -0.0816773279698312 [Eh]
	 Opposite-Spin Energy      =      -0.2269475594250063 [Eh]
	 Correlation Energy        =      -0.3086248873948375 [Eh]
	 Total Energy              =     -99.7594782214440698 [Eh]
	 SCS Total Energy          =     -99.7504161813491805 [Eh]
                               Psi4 1.9 release
    Molecular point group: c1
  Multiplicity = 1
  Basis Set: AUG-CC-PVTZ
    Blend: AUG-CC-PVTZ
  Basis Set: (AUG-CC-PVTZ AUX)
    Blend: AUG-CC-PVTZ-JKFIT + DEF2-UNIVERSAL-JKFIT
  @DF-RHF Final Energy:  -161.67603377257748
    Total Energy =                       -161.6760337725774832
  Basis Set: (AUG-CC-PVTZ AUX)
	 Singles Energy            =      -0.0000000000000000 [Eh]
	 Same-Spin Energy          =      -0.0022018733403806 [Eh]
	 Opposite-Spin Energy      =      -0.0086110845472877 [Eh]
	 Correlation Energy        =      -0.0108129578876683 [Eh]
	 Total Energy              =    -161.6868467304651631 [Eh]
	 SCS Total Energy          =    -161.6871010318143647 [Eh]
                               Psi4 1.9 release
    Molecular point group: c1

    Geometry (in Bohr), charge = 0, multiplicity = 1:

       Center              X                  Y                   Z               Mass
    ------------   -----------------  -----------------  -----------------  -----------------
         NA           0.000000000000     0.000000000000     0.000000000000    22.989769282000
         F            4.398329998099     0.000000000000     0.000000000000    18.998403162730

  Charge       = 0
  Multiplicity = 1
  Basis Set: AUG-CC-PVTZ
    Blend: AUG-CC-PVTZ
  Basis Set: (AUG-CC-PVTZ AUX)
    Blend: AUG-CC-PVTZ-JKFIT + DEF2-UNIVERSAL-JKFIT

    Orbital Energies [Eh]
    ---------------------

    Doubly Occupied:

       1A    -40.516649     2A    -26.051775     3A     -2.832150
       4A     -1.556213     5A     -1.556213     6A     -1.552387
       7A     -1.297471     8A     -0.406807     9A     -0.401047
      10A     -0.401047

  @DF-RHF Final Energy:  -261.35252591668348

   => Energetics <=

    Nuclear Repulsion Energy =             22.5085430249203426
    One-Electron Energy =                -414.5786200933110877
    Two-Electron Energy =                 130.7175511517072550
    Total Energy =                       -261.3525259166834758
 Dipole X            :        -43.6242677           39.5849700           -4.0392977
 Dipole Y            :         -0.0000000            0.0000000           -0.0000000
 Dipole Z            :          0.0000000            0.0000000            0.0000000
 Magnitude           :                                                    4.0392977
  Basis Set: (AUG-CC-PVTZ AUX)
    Blend: AUG-CC-PVTZ-RI + DEF2-QZVPP-RI
	 Reference Energy          =    -261.3525259166834758 [Eh]
	 Singles Energy            =      -0.0000000000000000 [Eh]
	 Same-Spin Energy          =      -0.0833297914943948 [Eh]
	 Opposite-Spin Energy      =      -0.2344461510725121 [Eh]
	 Correlation Energy        =      -0.3177759425669069 [Eh]
	 Total Energy              =    -261.6703018592504009 [Eh]

	 ================> DF-SCS-MP2 Energies <==================
	-----------------------------------------------------------
	 SCS Same-Spin Scale       =       0.3333333333333333 [-]
	 SCS Opposite-Spin Scale   =       1.2000000000000000 [-]
	 SCS Same-Spin Energy      =      -0.0277765971647983 [Eh]
	 SCS Opposite-Spin Energy  =      -0.2813353812870145 [Eh]
	 SCS Correlation Energy    =      -0.3091119784518128 [Eh]
	 SCS Total Energy          =    -261.6616378951352999 [Eh]
	-----------------------------------------------------------

*** Psi4 exiting successfully. Buy a developer a beer!
