                               Psi4 1.9 release

  ==> Input File <==

--------------------------------------------------------------------------
MEMORY 60 GB

molecule dimer {
1 1
Na     0.000000     0.000000     0.000000
--
-1 1
F     2.715412     0.000000     0.000000

units ang
no_reorient
no_com
symmetry c1
}

set {
basis        aug-cc-pVTZ
scf_type     df
}

energy("mp2", bsse_type="cp")
--------------------------------------------------------------------------

                               Psi4 1.9 release
    Molecular point group: c1
  Charge       = -1
  Multiplicity = 1
  Basis Set: AUG-CC-PVTZ
    Blend: AUG-CC-PVTZ
  Basis Set: (AUG-CC-PVTZ AUX)
    Blend: AUG-CC-PVTZ-JKFIT + DEF2-UNIVERSAL-JKFIT
  @DF-RHF Final Energy:   -99.45083205976543
    Total Energy =                        -99.4508320597654318
 Dipole X            :        -51.3141538           46.1824650           -5.1316888
 Dipole Y            :         -0.0000000            0.0000000           -0.0000000
 Dipole Z            :          0.0000000            0.0000000            0.0000000
 Magnitude           :                                                    5.1316888
  Basis Set: (AUG-CC-PVTZ AUX)
    Blend: AUG-CC-PVTZ-RI + DEF2-QZVPP-RI
	 Reference Energy          =     -99.4508320597654318 [Eh]
	 Singles Energy            =      -0.0000000000000000 [Eh]
	 Same-Spin Energy          =      -0.0816403748272913 [Eh]
	 Opposite-Spin Energy      =      -0.2267134819157935 [Eh]
	 Correlation Energy        =      -0.3083538567430848 [Eh]
	 Total Energy              =     -99.7591859165085140 [Eh]
	 SCS Total Energy          =     -99.7501016963401526 [Eh]
                               Psi4 1.9 release
    Molecular point group: c1
  Multiplicity = 1
  Basis Set: AUG-CC-PVTZ
    Blend: AUG-CC-PVTZ
  Basis Set: (AUG-CC-PVTZ AUX)
    Blend: AUG-CC-PVTZ-JKFIT + DEF2-UNIVERSAL-JKFIT
  @DF-RHF Final Energy:  -161.67602983460881
    Total Energy =                       -161.6760298346088405
  Basis Set: (AUG-CC-PVTZ AUX)
	 Singles Energy            =      -0.0000000000000000 [Eh]
	 Same-Spin Energy          =      -0.0021638786101643 [Eh]
	 Opposite-Spin Energy      =      -0.0085037710414894 [Eh]
	 Correlation Energy        =      -0.0106676496516537 [Eh]
	 Total Energy              =    -161.6866974842604634 [Eh]
	 SCS Total Energy          =    -161.6869556527286420 [Eh]
                               Psi4 1.9 release
    Molecular point group: c1

    Geometry (in Bohr), charge = 0, multiplicity = 1:

       Center              X                  Y                   Z               Mass
    ------------   -----------------  -----------------  -----------------  -----------------
         NA           0.000000000000     0.000000000000     0.000000000000    22.989769282000
         F            5.131384997782     0.000000000000     0.000000000000    18.998403162730

  Charge       = 0
  Multiplicity = 1
  Basis Set: AUG-CC-PVTZ
    Blend: AUG-CC-PVTZ
  Basis Set: (AUG-CC-PVTZ AUX)
    Blend: AUG-CC-PVTZ-JKFIT + DEF2-UNIVERSAL-JKFIT

    Orbital Energies [Eh]
    ---------------------

    Doubly Occupied:

       1A    -40.553308     2A    -26.031153     3A     -2.866616
       4A     -1.590542     5A     -1.590542     6A     -1.587381
       7A     -1.272838     8A     -0.377730     9A     -0.377621
      10A     -0.377621

  @DF-RHF Final Energy:  -261.32547927755678

   => Energetics <=

    Nuclear Repulsion Energy =             19.2930368785031519
    One-Electron Energy =                -407.9863312111485243
    Two-Electron Energy =                 127.3678150550886414
    Total Energy =                       -261.3254792775567239
 Dipole X            :        -50.9597548           46.1824650           -4.7772898
 Dipole Y            :          0.0000000            0.0000000            0.0000000
 Dipole Z            :          0.0000000            0.0000000            0.0000000
 Magnitude           :                                                    4.7772898
  Basis Set: (AUG-CC-PVTZ AUX)
    Blend: AUG-CC-PVTZ-RI + DEF2-QZVPP-RI
	 Reference Energy          =    -261.3254792775567807 [Eh]
	 Singles Energy            =      -0.0000000000000000 [Eh]
	 Same-Spin Energy          =      -0.0839240346485604 [Eh]
	 Opposite-Spin Energy      =      -0.2356337854447018 [Eh]
	 Correlation Energy        =      -0.3195578200932622 [Eh]
	 Total Energy              =    -261.6450370976500608 [Eh]

	 ================> DF-SCS-MP2 Energies <==================
	-----------------------------------------------------------
	 SCS Same-Spin Scale       =       0.3333333333333333 [-]
	 SCS Opposite-Spin Scale   =       1.2000000000000000 [-]
	 SCS Same-Spin Energy      =      -0.0279746782161868 [Eh]
	 SCS Opposite-Spin Energy  =      -0.2827605425336422 [Eh]
	 SCS Correlation Energy    =      -0.3107352207498290 [Eh]
	 SCS Total Energy          =    -261.6362144983066287 [Eh]
	-----------------------------------------------------------

*** Psi4 exiting successfully. Buy a developer a beer!
