                               Psi4 1.9 release

  ==> Input File <==

--------------------------------------------------------------------------
MEMORY 60 GB

molecule dimer {
1 1
Na     0.000000     0.000000     0.000000
--
-1 1
F     1.939580     0.000000     0.000000

units ang
no_reorient
no_com
symmetry c1
}

set {
basis        aug-cc-pVTZ
scf_type     df
}

energy("mp2", bsse_type="cp")
--------------------------------------------------------------------------

                               Psi4 1.9 release
    Molecular point group: c1
  Charge       = -1
  Multiplicity = 1
  Basis Set: AUG-CC-PVTZ
    Blend: AUG-CC-PVTZ
  Basis Set: (AUG-CC-PVTZ AUX)
    Blend: AUG-CC-PVTZ-JKFIT + DEF2-UNIVERSAL-JKFIT
  @DF-RHF Final Energy:   -99.45085562405117
    Total Energy =                        -99.4508556240511723
 Dipole X            :        -36.6535709           32.9874750           -3.6660959
 Dipole Y            :         -0.0000000            0.0000000           -0.0000000
 Dipole Z            :          0.0000000            0.0000000            0.0000000
 Magnitude           :                                                    3.6660959
  Basis Set: (AUG-CC-PVTZ AUX)
    Blend: AUG-CC-PVTZ-RI + DEF2-QZVPP-RI
	 Reference Energy          =     -99.4508556240511723 [Eh]
	 Singles Energy            =      -0.0000000000000000 [Eh]
	 Same-Spin Energy          =      -0.0817105664732149 [Eh]
	 Opposite-Spin Energy      =      -0.2271979299598288 [Eh]
	 Correlation Energy        =      -0.3089084964330437 [Eh]
	 Total Energy              =     -99.7597641204842205 [Eh]
	 SCS Total Energy          =     -99.7507299954940407 [Eh]
                               Psi4 1.9 release
    Molecular point group: c1
  Multiplicity = 1
  Basis Set: AUG-CC-PVTZ
    Blend: AUG-CC-PVTZ
  Basis Set: (AUG-CC-PVTZ AUX)
    Blend: AUG-CC-PVTZ-JKFIT + DEF2-UNIVERSAL-JKFIT
  @DF-RHF Final Energy:  -161.67603768666322
    Total Energy =                       -161.6760376866632214
  Basis Set: (AUG-CC-PVTZ AUX)
	 Singles Energy            =      -0.0000000000000000 [Eh]
	 Same-Spin Energy          =      -0.0026261086663808 [Eh]
	 Opposite-Spin Energy      =      -0.0098478241132013 [Eh]
	 Correlation Energy        =      -0.0124739327795821 [Eh]
	 Total Energy              =    -161.6885116194428065 [Eh]
	 SCS Total Energy          =    -161.6887304451545333 [Eh]
                               Psi4 1.9 release
    Molecular point group: c1

    Geometry (in Bohr), charge = 0, multiplicity = 1:

       Center              X                  Y                   Z               Mass
    ------------   -----------------  -----------------  -----------------  -----------------
         NA           0.000000000000     0.000000000000     0.000000000000    22.989769282000
         F            3.665274998415     0.000000000000     0.000000000000    18.998403162730

  Charge       = 0
  Multiplicity = 1
  Basis Set: AUG-CC-PVTZ
    Blend: AUG-CC-PVTZ
  Basis Set: (AUG-CC-PVTZ AUX)
    Blend: AUG-CC-PVTZ-JKFIT + DEF2-UNIVERSAL-JKFIT

    Orbital Energies [Eh]
    ---------------------

    Doubly Occupied:

       1A    -40.464061     2A    -26.067833     3A     -2.788423
       4A     -1.513497     5A     -1.512033     6A     -1.512033
       7A     -1.322042     8A     -0.438581     9A     -0.426588
      10A     -0.426588

  @DF-RHF Final Energy:  -261.37050845583508

   => Energetics <=

    Nuclear Repulsion Energy =             27.0102516299044133
    One-Electron Energy =                -423.8181652660169902
    Two-Electron Energy =                 135.4374051802774659
    Total Energy =                       -261.3705084558350791
 Dipole X            :        -36.3329776           32.9874750           -3.3455026
 Dipole Y            :         -0.0000000            0.0000000           -0.0000000
 Dipole Z            :          0.0000000            0.0000000            0.0000000
 Magnitude           :                                                    3.3455026
  Basis Set: (AUG-CC-PVTZ AUX)
    Blend: AUG-CC-PVTZ-RI + DEF2-QZVPP-RI
	 Reference Energy          =    -261.3705084558350791 [Eh]
	 Singles Energy            =      -0.0000000000000000 [Eh]
	 Same-Spin Energy          =      -0.0825751247833913 [Eh]
	 Opposite-Spin Energy      =      -0.2329171932444306 [Eh]
	 Correlation Energy        =      -0.3154923180278219 [Eh]
	 Total Energy              =    -261.6860007738629292 [Eh]

	 ================> DF-SCS-MP2 Energies <==================
	-----------------------------------------------------------
	 SCS Same-Spin Scale       =       0.3333333333333333 [-]
	 SCS Opposite-Spin Scale   =       1.2000000000000000 [-]
	 SCS Same-Spin Energy      =      -0.0275250415944638 [Eh]
	 SCS Opposite-Spin Energy  =      -0.2795006318933167 [Eh]
	 SCS Correlation Energy    =      -0.3070256734877805 [Eh]
	 SCS Total Energy          =    -261.6775341293228507 [Eh]
	-----------------------------------------------------------

*** Psi4 exiting successfully. Buy a developer a beer!
