                               Psi4 1.9 release

  ==> Input File <==

--------------------------------------------------------------------------
MEMORY 60 GB

molecule dimer {
1 1
Na     0.000000     0.000000     0.000000
--
-1 1
F     2.036559     0.000000     0.000000

units ang
no_reorient
no_com
symmetry c1
}

set {
basis        aug-cc-pVTZ
scf_type     df
}

energy("mp2", bsse_type="cp")
--------------------------------------------------------------------------

                               Psi4 1.9 release
    Molecular point group: c1
  Charge       = -1
  Multiplicity = 1
  Basis Set: AUG-CC-PVTZ
    Blend: AUG-CC-PVTZ
  Basis Set: (AUG-CC-PVTZ AUX)
    Blend: AUG-CC-PVTZ-JKFIT + DEF2-UNIVERSAL-JKFIT
  @DF-RHF Final Energy:   -99.45085727106870
    Total Energy =                        -99.4508572710686849
 Dipole X            :        -38.4862970           34.6368487           -3.8494483
 Dipole Y            :          0.0000000            0.0000000            0.0000000
 Dipole Z            :         -0.0000000            0.0000000           -0.0000000
 Magnitude           :                                                    3.8494483
  Basis Set: (AUG-CC-PVTZ AUX)
    Blend: AUG-CC-PVTZ-RI + DEF2-QZVPP-RI
	 Reference Energy          =     -99.4508572710686991 [Eh]
	 Singles Energy            =      -0.0000000000000000 [Eh]
	 Same-Spin Energy          =      -0.0817043279305779 [Eh]
	 Opposite-Spin Energy      =      -0.2271505565268535 [Eh]
	 Correlation Energy        =      -0.3088548844574313 [Eh]
	 Total Energy              =     -99.7597121555261310 [Eh]
	 SCS Total Energy          =     -99.7506727148777799 [Eh]
                               Psi4 1.9 release
    Molecular point group: c1
  Multiplicity = 1
  Basis Set: AUG-CC-PVTZ
    Blend: AUG-CC-PVTZ
  Basis Set: (AUG-CC-PVTZ AUX)
    Blend: AUG-CC-PVTZ-JKFIT + DEF2-UNIVERSAL-JKFIT
  @DF-RHF Final Energy:  -161.67603599992827
    Total Energy =                       -161.6760359999282741
  Basis Set: (AUG-CC-PVTZ AUX)
	 Singles Energy            =      -0.0000000000000000 [Eh]
	 Same-Spin Energy          =      -0.0024025285919195 [Eh]
	 Opposite-Spin Energy      =      -0.0091743238558187 [Eh]
	 Correlation Energy        =      -0.0115768524477382 [Eh]
	 Total Energy              =    -161.6876128523760201 [Eh]
	 SCS Total Energy          =    -161.6878460314192409 [Eh]
                               Psi4 1.9 release
    Molecular point group: c1

    Geometry (in Bohr), charge = 0, multiplicity = 1:

       Center              X                  Y                   Z               Mass
    ------------   -----------------  -----------------  -----------------  -----------------
         NA           0.000000000000     0.000000000000     0.000000000000    22.989769282000
         F            3.848538748336     0.000000000000     0.000000000000    18.998403162730

  Charge       = 0
  Multiplicity = 1
  Basis Set: AUG-CC-PVTZ
    Blend: AUG-CC-PVTZ
  Basis Set: (AUG-CC-PVTZ AUX)
    Blend: AUG-CC-PVTZ-JKFIT + DEF2-UNIVERSAL-JKFIT

    Orbital Energies [Eh]
    ---------------------

    Doubly Occupied:

       1A    -40.479546     2A    -26.064686     3A     -2.800383
       4A     -1.524230     5A     -1.524230     6A     -1.522790
       7A     -1.316616     8A     -0.430890     9A     -0.419978
      10A     -0.419978

  @DF-RHF Final Energy:  -261.36868563997706

   => Energetics <=

    Nuclear Repulsion Energy =             25.7240491713375370
    One-Electron Energy =                -421.1788166495335304
    Two-Electron Energy =                 134.0860818382189166
    Total Energy =                       -261.3686856399771159
 Dipole X            :        -38.1508358           34.6368487           -3.5139870
 Dipole Y            :          0.0000000            0.0000000            0.0000000
 Dipole Z            :         -0.0000000            0.0000000           -0.0000000
 Magnitude           :                                                    3.5139870
  Basis Set: (AUG-CC-PVTZ AUX)
    Blend: AUG-CC-PVTZ-RI + DEF2-QZVPP-RI
	 Reference Energy          =    -261.3686856399770591 [Eh]
	 Singles Energy            =      -0.0000000000000000 [Eh]
	 Same-Spin Energy          =      -0.0826983086211689 [Eh]
	 Opposite-Spin Energy      =      -0.2331175681494271 [Eh]
	 Correlation Energy        =      -0.3158158767705959 [Eh]
	 Total Energy              =    -261.6845015167476731 [Eh]

	 ================> DF-SCS-MP2 Energies <==================
	-----------------------------------------------------------
	 SCS Same-Spin Scale       =       0.3333333333333333 [-]
	 SCS Opposite-Spin Scale   =       1.2000000000000000 [-]
	 SCS Same-Spin Energy      =      -0.0275661028737230 [Eh]
	 SCS Opposite-Spin Energy  =      -0.2797410817793125 [Eh]
	 SCS Correlation Energy    =      -0.3073071846530354 [Eh]
	 SCS Total Energy          =    -261.6759928246301001 [Eh]
	-----------------------------------------------------------

*** Psi4 exiting successfully. Buy a developer a beer!
