                               Psi4 1.9 release

  ==> Input File <==

--------------------------------------------------------------------------
MEMORY 60 GB

molecule dimer {
1 1
Na     0.000000     0.000000     0.000000
--
-1 1
F     1.745622     0.000000     0.000000

units ang
no_reorient
no_com
symmetry c1
}

set {
basis        aug-cc-pVTZ
scf_type     df
}

energy("mp2", bsse_type="cp")
--------------------------------------------------------------------------

                               Psi4 1.9 release
    Molecular point group: c1
  Charge       = -1
  Multiplicity = 1
  Basis Set: AUG-CC-PVTZ
    Blend: AUG-CC-PVTZ
  Basis Set: (AUG-CC-PVTZ AUX)
    Blend: AUG-CC-PVTZ-JKFIT + DEF2-UNIVERSAL-JKFIT
  @DF-RHF Final Energy:   -99.45085626446502
    Total Energy =                        -99.4508562644650169
 Dipole X            :        -32.9886257           29.6887275           -3.2998983
 Dipole Y            :         -0.0000000            0.0000000           -0.0000000
 Dipole Z            :         -0.0000000            0.0000000           -0.0000000
 Magnitude           :                                                    3.2998983
  Basis Set: (AUG-CC-PVTZ AUX)
    Blend: AUG-CC-PVTZ-RI + DEF2-QZVPP-RI
	 Reference Energy          =     -99.4508562644650169 [Eh]
	 Singles Energy            =      -0.0000000000000000 [Eh]
	 Same-Spin Energy          =      -0.0817208718724359 [Eh]
	 Opposite-Spin Energy      =      -0.2272597716958528 [Eh]
	 Correlation Energy        =      -0.3089806435682888 [Eh]
	 Total Energy              =     -99.7598369080333072 [Eh]
	 SCS Total Energy          =     -99.7508082811241792 [Eh]
                               Psi4 1.9 release
    Molecular point group: c1
  Multiplicity = 1
  Basis Set: AUG-CC-PVTZ
    Blend: AUG-CC-PVTZ
  Basis Set: (AUG-CC-PVTZ AUX)
    Blend: AUG-CC-PVTZ-JKFIT + DEF2-UNIVERSAL-JKFIT
  @DF-RHF Final Energy:  -161.67604378540710
    Total Energy =                       -161.6760437854071029
  Basis Set: (AUG-CC-PVTZ AUX)
	 Singles Energy            =      -0.0000000000000000 [Eh]
	 Same-Spin Energy          =      -0.0034177683169103 [Eh]
	 Opposite-Spin Energy      =      -0.0122579557168990 [Eh]
	 Correlation Energy        =      -0.0156757240338092 [Eh]
	 Total Energy              =    -161.6917195094409010 [Eh]
	 SCS Total Energy          =    -161.6918925883730083 [Eh]
                               Psi4 1.9 release
    Molecular point group: c1

    Geometry (in Bohr), charge = 0, multiplicity = 1:

       Center              X                  Y                   Z               Mass
    ------------   -----------------  -----------------  -----------------  -----------------
         NA           0.000000000000     0.000000000000     0.000000000000    22.989769282000
         F            3.298747498574     0.000000000000     0.000000000000    18.998403162730

  Charge       = 0
  Multiplicity = 1
  Basis Set: AUG-CC-PVTZ
    Blend: AUG-CC-PVTZ
  Basis Set: (AUG-CC-PVTZ AUX)
    Blend: AUG-CC-PVTZ-JKFIT + DEF2-UNIVERSAL-JKFIT

    Orbital Energies [Eh]
    ---------------------

    Doubly Occupied:

       1A    -40.427108     2A    -26.070999     3A     -2.763010
       4A     -1.501950     5A     -1.485595     6A     -1.485595
       7A     -1.326096     8A     -0.450863     9A     -0.440337
      10A     -0.440337

  @DF-RHF Final Energy:  -261.36027087144191

   => Energetics <=

    Nuclear Repulsion Energy =             30.0113906998937914
    One-Electron Energy =                -429.9595413754415745
    Two-Electron Energy =                 138.5878798041058531
    Total Energy =                       -261.3602708714419123
 Dipole X            :        -32.7106778           29.6887275           -3.0219503
 Dipole Y            :         -0.0000000            0.0000000           -0.0000000
 Dipole Z            :         -0.0000000            0.0000000           -0.0000000
 Magnitude           :                                                    3.0219503
  Basis Set: (AUG-CC-PVTZ AUX)
    Blend: AUG-CC-PVTZ-RI + DEF2-QZVPP-RI
	 Reference Energy          =    -261.3602708714419123 [Eh]
	 Singles Energy            =      -0.0000000000000000 [Eh]
	 Same-Spin Energy          =      -0.0825951034998040 [Eh]
	 Opposite-Spin Energy      =      -0.2331857731602287 [Eh]
	 Correlation Energy        =      -0.3157808766600327 [Eh]
	 Total Energy              =    -261.6760517481019406 [Eh]

	 ================> DF-SCS-MP2 Energies <==================
	-----------------------------------------------------------
	 SCS Same-Spin Scale       =       0.3333333333333333 [-]
	 SCS Opposite-Spin Scale   =       1.2000000000000000 [-]
	 SCS Same-Spin Energy      =      -0.0275317011666013 [Eh]
	 SCS Opposite-Spin Energy  =      -0.2798229277922744 [Eh]
	 SCS Correlation Energy    =      -0.3073546289588758 [Eh]
	 SCS Total Energy          =    -261.6676255004007885 [Eh]
	-----------------------------------------------------------

*** Psi4 exiting successfully. Buy a developer a beer!
