                               Psi4 1.9 release

  ==> Input File <==

--------------------------------------------------------------------------
MEMORY 60 GB

molecule dimer {
1 1
Na     0.000000     0.000000     0.000000
--
-1 1
Cl     2.488608     0.000000     0.000000

units ang
no_reorient
no_com
symmetry c1
}

set {
basis        aug-cc-pVTZ
scf_type     df
}

energy("mp2", bsse_type="cp")
--------------------------------------------------------------------------

                               Psi4 1.9 release
    Molecular point group: c1
  Charge       = -1
  Multiplicity = 1
  Basis Set: AUG-CC-PVTZ
    Blend: AUG-CC-PVTZ
  Basis Set: (AUG-CC-PVTZ AUX)
    Blend: AUG-CC-PVTZ-JKFIT + DEF2-UNIVERSAL-JKFIT
  @DF-RHF Final Energy:  -459.57350492923257
    Total Energy =                       -459.5735049292325129
 Dipole X            :        -84.6503686           79.9473884           -4.7029802
 Dipole Y            :          0.0000000            0.0000000            0.0000000
 Dipole Z            :         -0.0000000            0.0000000           -0.0000000
 Magnitude           :                                                    4.7029802
  Basis Set: (AUG-CC-PVTZ AUX)
    Blend: AUG-CC-PVTZ-RI + DEF2-QZVPP-RI
	 Reference Energy          =    -459.5735049292325698 [Eh]
	 Singles Energy            =      -0.0000000000000000 [Eh]
	 Same-Spin Energy          =      -0.0626577732412187 [Eh]
	 Opposite-Spin Energy      =      -0.1800119478798658 [Eh]
	 Correlation Energy        =      -0.2426697211210844 [Eh]
	 Total Energy              =    -459.8161746503536733 [Eh]
	 SCS Total Energy          =    -459.8104051911021202 [Eh]
                               Psi4 1.9 release
    Molecular point group: c1
  Multiplicity = 1
  Basis Set: AUG-CC-PVTZ
    Blend: AUG-CC-PVTZ
  Basis Set: (AUG-CC-PVTZ AUX)
    Blend: AUG-CC-PVTZ-JKFIT + DEF2-UNIVERSAL-JKFIT
  @DF-RHF Final Energy:  -161.67603587828222
    Total Energy =                       -161.6760358782822209
  Basis Set: (AUG-CC-PVTZ AUX)
	 Singles Energy            =      -0.0000000000000000 [Eh]
	 Same-Spin Energy          =      -0.0023692731644510 [Eh]
	 Opposite-Spin Energy      =      -0.0090627679453433 [Eh]
	 Correlation Energy        =      -0.0114320411097943 [Eh]
	 Total Energy              =    -161.6874679193920201 [Eh]
	 SCS Total Energy          =    -161.6877009575381123 [Eh]
                               Psi4 1.9 release
    Molecular point group: c1

    Geometry (in Bohr), charge = 0, multiplicity = 1:

       Center              X                  Y                   Z               Mass
    ------------   -----------------  -----------------  -----------------  -----------------
         NA           0.000000000000     0.000000000000     0.000000000000    22.989769282000
         CL           4.702787553623     0.000000000000     0.000000000000    34.968852682000

  Charge       = 0
  Multiplicity = 1
  Basis Set: AUG-CC-PVTZ
    Blend: AUG-CC-PVTZ
  Basis Set: (AUG-CC-PVTZ AUX)
    Blend: AUG-CC-PVTZ-JKFIT + DEF2-UNIVERSAL-JKFIT

    Orbital Energies [Eh]
    ---------------------

    Doubly Occupied:

       1A   -104.700924     2A    -40.512232     3A    -10.425439
       4A     -7.891622     5A     -7.891370     6A     -7.891370
       7A     -2.831514     8A     -1.554694     9A     -1.554694
      10A     -1.553293    11A     -0.935612    12A     -0.362895
      13A     -0.347417    14A     -0.347417

  @DF-RHF Final Energy:  -621.45404361852673

   => Energetics <=

    Nuclear Repulsion Energy =             39.7636503600767952
    One-Electron Energy =                -944.8343956941363331
    Two-Electron Energy =                 283.6167017155328267
    Total Energy =                       -621.4540436185267254
 Dipole X            :        -83.8363394           79.9473884           -3.8889510
 Dipole Y            :          0.0000000            0.0000000            0.0000000
 Dipole Z            :          0.0000000            0.0000000            0.0000000
 Magnitude           :                                                    3.8889510
  Basis Set: (AUG-CC-PVTZ AUX)
    Blend: AUG-CC-PVTZ-RI + DEF2-QZVPP-RI
	 Reference Energy          =    -621.4540436185267254 [Eh]
	 Singles Energy            =      -0.0000000000000000 [Eh]
	 Same-Spin Energy          =      -0.0651080876766008 [Eh]
	 Opposite-Spin Energy      =      -0.1888298438417879 [Eh]
	 Correlation Energy        =      -0.2539379315183887 [Eh]
	 Total Energy              =    -621.7079815500451332 [Eh]

	 ================> DF-SCS-MP2 Energies <==================
	-----------------------------------------------------------
	 SCS Same-Spin Scale       =       0.3333333333333333 [-]
	 SCS Opposite-Spin Scale   =       1.2000000000000000 [-]
	 SCS Same-Spin Energy      =      -0.0217026958922003 [Eh]
	 SCS Opposite-Spin Energy  =      -0.2265958126101455 [Eh]
	 SCS Correlation Energy    =      -0.2482985085023458 [Eh]
	 SCS Total Energy          =    -621.7023421270290555 [Eh]
	-----------------------------------------------------------

*** Psi4 exiting successfully. Buy a developer a beer!
