                               Psi4 1.9 release

  ==> Input File <==

--------------------------------------------------------------------------
MEMORY 60 GB

molecule dimer {
1 1
Na     0.000000     0.000000     0.000000
--
-1 1
Cl     2.251598     0.000000     0.000000

units ang
no_reorient
no_com
symmetry c1
}

set {
basis        aug-cc-pVTZ
scf_type     df
}

energy("mp2", bsse_type="cp")
--------------------------------------------------------------------------

                               Psi4 1.9 release
    Molecular point group: c1
  Charge       = -1
  Multiplicity = 1
  Basis Set: AUG-CC-PVTZ
    Blend: AUG-CC-PVTZ
  Basis Set: (AUG-CC-PVTZ AUX)
    Blend: AUG-CC-PVTZ-JKFIT + DEF2-UNIVERSAL-JKFIT
  @DF-RHF Final Energy:  -459.57350953536286
    Total Energy =                       -459.5735095353628594
 Dipole X            :        -76.5888994           72.3333606           -4.2555388
 Dipole Y            :         -0.0000000            0.0000000           -0.0000000
 Dipole Z            :          0.0000000            0.0000000            0.0000000
 Magnitude           :                                                    4.2555388
  Basis Set: (AUG-CC-PVTZ AUX)
    Blend: AUG-CC-PVTZ-RI + DEF2-QZVPP-RI
	 Reference Energy          =    -459.5735095353628594 [Eh]
	 Singles Energy            =      -0.0000000000000000 [Eh]
	 Same-Spin Energy          =      -0.0627112288507874 [Eh]
	 Opposite-Spin Energy      =      -0.1802011590759864 [Eh]
	 Correlation Energy        =      -0.2429123879267738 [Eh]
	 Total Energy              =    -459.8164219232896244 [Eh]
	 SCS Total Energy          =    -459.8106546692043253 [Eh]
                               Psi4 1.9 release
    Molecular point group: c1
  Multiplicity = 1
  Basis Set: AUG-CC-PVTZ
    Blend: AUG-CC-PVTZ
  Basis Set: (AUG-CC-PVTZ AUX)
    Blend: AUG-CC-PVTZ-JKFIT + DEF2-UNIVERSAL-JKFIT
  @DF-RHF Final Energy:  -161.67603788027057
    Total Energy =                       -161.6760378802705702
  Basis Set: (AUG-CC-PVTZ AUX)
	 Singles Energy            =      -0.0000000000000000 [Eh]
	 Same-Spin Energy          =      -0.0028372510208815 [Eh]
	 Opposite-Spin Energy      =      -0.0103990313228065 [Eh]
	 Correlation Energy        =      -0.0132362823436880 [Eh]
	 Total Energy              =    -161.6892741626142538 [Eh]
	 SCS Total Energy          =    -161.6894624681982293 [Eh]
                               Psi4 1.9 release
    Molecular point group: c1

    Geometry (in Bohr), charge = 0, multiplicity = 1:

       Center              X                  Y                   Z               Mass
    ------------   -----------------  -----------------  -----------------  -----------------
         NA           0.000000000000     0.000000000000     0.000000000000    22.989769282000
         CL           4.254903564629     0.000000000000     0.000000000000    34.968852682000

  Charge       = 0
  Multiplicity = 1
  Basis Set: AUG-CC-PVTZ
    Blend: AUG-CC-PVTZ
  Basis Set: (AUG-CC-PVTZ AUX)
    Blend: AUG-CC-PVTZ-JKFIT + DEF2-UNIVERSAL-JKFIT

    Orbital Energies [Eh]
    ---------------------

    Doubly Occupied:

       1A   -104.705130     2A    -40.487332     3A    -10.431275
       4A     -7.897515     5A     -7.897123     6A     -7.897123
       7A     -2.812470     8A     -1.536319     9A     -1.534883
      10A     -1.534883    11A     -0.947536    12A     -0.374881
      13A     -0.358645    14A     -0.358645

  @DF-RHF Final Energy:  -621.45184327669335

   => Energetics <=

    Nuclear Repulsion Energy =             43.9492921894983013
    One-Electron Energy =                -953.2547499373011988
    Two-Electron Energy =                 287.8536144711094948
    Total Energy =                       -621.4518432766933529
 Dipole X            :        -75.8229589           72.3333606           -3.4895983
 Dipole Y            :          0.0000000            0.0000000            0.0000000
 Dipole Z            :          0.0000000            0.0000000            0.0000000
 Magnitude           :                                                    3.4895983
  Basis Set: (AUG-CC-PVTZ AUX)
    Blend: AUG-CC-PVTZ-RI + DEF2-QZVPP-RI
	 Reference Energy          =    -621.4518432766933529 [Eh]
	 Singles Energy            =      -0.0000000000000000 [Eh]
	 Same-Spin Energy          =      -0.0656261794818786 [Eh]
	 Opposite-Spin Energy      =      -0.1898993999446722 [Eh]
	 Correlation Energy        =      -0.2555255794265507 [Eh]
	 Total Energy              =    -621.7073688561199560 [Eh]

	 ================> DF-SCS-MP2 Energies <==================
	-----------------------------------------------------------
	 SCS Same-Spin Scale       =       0.3333333333333333 [-]
	 SCS Opposite-Spin Scale   =       1.2000000000000000 [-]
	 SCS Same-Spin Energy      =      -0.0218753931606262 [Eh]
	 SCS Opposite-Spin Energy  =      -0.2278792799336066 [Eh]
	 SCS Correlation Energy    =      -0.2497546730942328 [Eh]
	 SCS Total Energy          =    -621.7015979497875833 [Eh]
	-----------------------------------------------------------

*** Psi4 exiting successfully. Buy a developer a beer!
