                               Psi4 1.9 release

  ==> Input File <==

--------------------------------------------------------------------------
MEMORY 60 GB

molecule dimer {
1 1
Na     0.000000     0.000000     0.000000
--
-1 1
Cl     1.896082     0.000000     0.000000

units ang
no_reorient
no_com
symmetry c1
}

set {
basis        aug-cc-pVTZ
scf_type     df
}

energy("mp2", bsse_type="cp")
--------------------------------------------------------------------------

                               Psi4 1.9 release
    Molecular point group: c1
  Charge       = -1
  Multiplicity = 1
  Basis Set: AUG-CC-PVTZ
    Blend: AUG-CC-PVTZ
  Basis Set: (AUG-CC-PVTZ AUX)
    Blend: AUG-CC-PVTZ-JKFIT + DEF2-UNIVERSAL-JKFIT
  @DF-RHF Final Energy:  -459.57351507769698
    Total Energy =                       -459.5735150776970386
 Dipole X            :        -64.4965397           60.9122868           -3.5842529
 Dipole Y            :         -0.0000000            0.0000000           -0.0000000
 Dipole Z            :          0.0000000            0.0000000            0.0000000
 Magnitude           :                                                    3.5842529
  Basis Set: (AUG-CC-PVTZ AUX)
    Blend: AUG-CC-PVTZ-RI + DEF2-QZVPP-RI
	 Reference Energy          =    -459.5735150776969817 [Eh]
	 Singles Energy            =      -0.0000000000000000 [Eh]
	 Same-Spin Energy          =      -0.0627847164181159 [Eh]
	 Opposite-Spin Energy      =      -0.1804538267295650 [Eh]
	 Correlation Energy        =      -0.2432385431476809 [Eh]
	 Total Energy              =    -459.8167536208446791 [Eh]
	 SCS Total Energy          =    -459.8109879085785110 [Eh]
                               Psi4 1.9 release
    Molecular point group: c1
  Multiplicity = 1
  Basis Set: AUG-CC-PVTZ
    Blend: AUG-CC-PVTZ
  Basis Set: (AUG-CC-PVTZ AUX)
    Blend: AUG-CC-PVTZ-JKFIT + DEF2-UNIVERSAL-JKFIT
  @DF-RHF Final Energy:  -161.67604334731919
    Total Energy =                       -161.6760433473191938
  Basis Set: (AUG-CC-PVTZ AUX)
	 Singles Energy            =      -0.0000000000000000 [Eh]
	 Same-Spin Energy          =      -0.0044048489320517 [Eh]
	 Opposite-Spin Energy      =      -0.0147030346966806 [Eh]
	 Correlation Energy        =      -0.0191078836287323 [Eh]
	 Total Energy              =    -161.6951512309479142 [Eh]
	 SCS Total Energy          =    -161.6951552719325491 [Eh]
                               Psi4 1.9 release
    Molecular point group: c1

    Geometry (in Bohr), charge = 0, multiplicity = 1:

       Center              X                  Y                   Z               Mass
    ------------   -----------------  -----------------  -----------------  -----------------
         NA           0.000000000000     0.000000000000     0.000000000000    22.989769282000
         CL           3.583075691410     0.000000000000     0.000000000000    34.968852682000

  Charge       = 0
  Multiplicity = 1
  Basis Set: AUG-CC-PVTZ
    Blend: AUG-CC-PVTZ
  Basis Set: (AUG-CC-PVTZ AUX)
    Blend: AUG-CC-PVTZ-JKFIT + DEF2-UNIVERSAL-JKFIT

    Orbital Energies [Eh]
    ---------------------

    Doubly Occupied:

       1A   -104.705120     2A    -40.447954     3A    -10.436586
       4A     -7.903139     5A     -7.901774     6A     -7.901774
       7A     -2.792138     8A     -1.527488     9A     -1.510972
      10A     -1.510972    11A     -0.961956    12A     -0.380911
      13A     -0.378072    14A     -0.378072

  @DF-RHF Final Energy:  -621.39382029760600

   => Energetics <=

    Nuclear Repulsion Energy =             52.1897989619067104
    One-Electron Energy =                -969.6933817319631999
    Two-Electron Energy =                 296.1097624724504840
    Total Energy =                       -621.3938202976059983
 Dipole X            :        -63.8779109           60.9122868           -2.9656242
 Dipole Y            :         -0.0000000            0.0000000           -0.0000000
 Dipole Z            :          0.0000000            0.0000000            0.0000000
 Magnitude           :                                                    2.9656242
  Basis Set: (AUG-CC-PVTZ AUX)
    Blend: AUG-CC-PVTZ-RI + DEF2-QZVPP-RI
	 Reference Energy          =    -621.3938202976059983 [Eh]
	 Singles Energy            =      -0.0000000000000000 [Eh]
	 Same-Spin Energy          =      -0.0674707464193916 [Eh]
	 Opposite-Spin Energy      =      -0.1939774166689357 [Eh]
	 Correlation Energy        =      -0.2614481630883273 [Eh]
	 Total Energy              =    -621.6552684606942876 [Eh]

	 ================> DF-SCS-MP2 Energies <==================
	-----------------------------------------------------------
	 SCS Same-Spin Scale       =       0.3333333333333333 [-]
	 SCS Opposite-Spin Scale   =       1.2000000000000000 [-]
	 SCS Same-Spin Energy      =      -0.0224902488064639 [Eh]
	 SCS Opposite-Spin Energy  =      -0.2327729000027229 [Eh]
	 SCS Correlation Energy    =      -0.2552631488091867 [Eh]
	 SCS Total Energy          =    -621.6490834464151476 [Eh]
	-----------------------------------------------------------

*** Psi4 exiting successfully. Buy a developer a beer!
