                               Psi4 1.9 release

  ==> Input File <==

--------------------------------------------------------------------------
MEMORY 60 GB

molecule dimer {
1 1
Na     0.000000     0.000000     0.000000
--
-1 1
Cl     2.607113     0.000000     0.000000

units ang
no_reorient
no_com
symmetry c1
}

set {
basis        aug-cc-pVTZ
scf_type     df
}

energy("mp2", bsse_type="cp")
--------------------------------------------------------------------------

                               Psi4 1.9 release
    Molecular point group: c1
  Charge       = -1
  Multiplicity = 1
  Basis Set: AUG-CC-PVTZ
    Blend: AUG-CC-PVTZ
  Basis Set: (AUG-CC-PVTZ AUX)
    Blend: AUG-CC-PVTZ-JKFIT + DEF2-UNIVERSAL-JKFIT
  @DF-RHF Final Energy:  -459.57350259969735
    Total Energy =                       -459.5735025996973491
 Dipole X            :        -88.6811979           83.7544023           -4.9267956
 Dipole Y            :         -0.0000000            0.0000000           -0.0000000
 Dipole Z            :          0.0000000            0.0000000            0.0000000
 Magnitude           :                                                    4.9267956
  Basis Set: (AUG-CC-PVTZ AUX)
    Blend: AUG-CC-PVTZ-RI + DEF2-QZVPP-RI
	 Reference Energy          =    -459.5735025996973491 [Eh]
	 Singles Energy            =      -0.0000000000000000 [Eh]
	 Same-Spin Energy          =      -0.0626232483793163 [Eh]
	 Opposite-Spin Energy      =      -0.1798844657270148 [Eh]
	 Correlation Energy        =      -0.2425077141063312 [Eh]
	 Total Energy              =    -459.8160103138037016 [Eh]
	 SCS Total Energy          =    -459.8102383746962118 [Eh]
                               Psi4 1.9 release
    Molecular point group: c1
  Multiplicity = 1
  Basis Set: AUG-CC-PVTZ
    Blend: AUG-CC-PVTZ
  Basis Set: (AUG-CC-PVTZ AUX)
    Blend: AUG-CC-PVTZ-JKFIT + DEF2-UNIVERSAL-JKFIT
  @DF-RHF Final Energy:  -161.67603455809859
    Total Energy =                       -161.6760345580985927
  Basis Set: (AUG-CC-PVTZ AUX)
	 Singles Energy            =      -0.0000000000000000 [Eh]
	 Same-Spin Energy          =      -0.0022924581501381 [Eh]
	 Opposite-Spin Energy      =      -0.0088726519169729 [Eh]
	 Correlation Energy        =      -0.0111651100671109 [Eh]
	 Total Energy              =    -161.6871996681657038 [Eh]
	 SCS Total Energy          =    -161.6874458931156653 [Eh]
                               Psi4 1.9 release
    Molecular point group: c1

    Geometry (in Bohr), charge = 0, multiplicity = 1:

       Center              X                  Y                   Z               Mass
    ------------   -----------------  -----------------  -----------------  -----------------
         NA           0.000000000000     0.000000000000     0.000000000000    22.989769282000
         CL           4.926729548121     0.000000000000     0.000000000000    34.968852682000

  Charge       = 0
  Multiplicity = 1
  Basis Set: AUG-CC-PVTZ
    Blend: AUG-CC-PVTZ
  Basis Set: (AUG-CC-PVTZ AUX)
    Blend: AUG-CC-PVTZ-JKFIT + DEF2-UNIVERSAL-JKFIT

    Orbital Energies [Eh]
    ---------------------

    Doubly Occupied:

       1A   -104.697848     2A    -40.523480     3A    -10.421869
       4A     -7.888034     5A     -7.887806     6A     -7.887806
       7A     -2.841019     8A     -1.564388     9A     -1.564388
      10A     -1.562438    11A     -0.929729    12A     -0.356205
      13A     -0.342067    14A     -0.342067

  @DF-RHF Final Energy:  -621.45092102332728

   => Energetics <=

    Nuclear Repulsion Energy =             37.9562137871622767
    One-Electron Energy =                -941.1959828199794629
    Two-Electron Energy =                 281.7888480094899251
    Total Energy =                       -621.4509210233272825
 Dipole X            :        -87.8544603           83.7544023           -4.1000579
 Dipole Y            :         -0.0000000            0.0000000           -0.0000000
 Dipole Z            :          0.0000000            0.0000000            0.0000000
 Magnitude           :                                                    4.1000579
  Basis Set: (AUG-CC-PVTZ AUX)
    Blend: AUG-CC-PVTZ-RI + DEF2-QZVPP-RI
	 Reference Energy          =    -621.4509210233272825 [Eh]
	 Singles Energy            =      -0.0000000000000000 [Eh]
	 Same-Spin Energy          =      -0.0650238599995543 [Eh]
	 Opposite-Spin Energy      =      -0.1887430962722816 [Eh]
	 Correlation Energy        =      -0.2537669562718359 [Eh]
	 Total Energy              =    -621.7046879795991572 [Eh]

	 ================> DF-SCS-MP2 Energies <==================
	-----------------------------------------------------------
	 SCS Same-Spin Scale       =       0.3333333333333333 [-]
	 SCS Opposite-Spin Scale   =       1.2000000000000000 [-]
	 SCS Same-Spin Energy      =      -0.0216746199998514 [Eh]
	 SCS Opposite-Spin Energy  =      -0.2264917155267379 [Eh]
	 SCS Correlation Energy    =      -0.2481663355265893 [Eh]
	 SCS Total Energy          =    -621.6990873588538307 [Eh]
	-----------------------------------------------------------

*** Psi4 exiting successfully. Buy a developer a beer!
