                               Psi4 1.9 release

  ==> Input File <==

--------------------------------------------------------------------------
MEMORY 60 GB

molecule dimer {
1 1
Na     0.000000     0.000000     0.000000
--
-1 1
Cl     3.081134     0.000000     0.000000

units ang
no_reorient
no_com
symmetry c1
}

set {
basis        aug-cc-pVTZ
scf_type     df
}

energy("mp2", bsse_type="cp")
--------------------------------------------------------------------------

                               Psi4 1.9 release
    Molecular point group: c1
  Charge       = -1
  Multiplicity = 1
  Basis Set: AUG-CC-PVTZ
    Blend: AUG-CC-PVTZ
  Basis Set: (AUG-CC-PVTZ AUX)
    Blend: AUG-CC-PVTZ-JKFIT + DEF2-UNIVERSAL-JKFIT
  @DF-RHF Final Energy:  -459.57349698478691
    Total Energy =                       -459.5734969847869138
 Dipole X            :       -104.8047781           98.9824901           -5.8222881
 Dipole Y            :         -0.0000000            0.0000000           -0.0000000
 Dipole Z            :          0.0000000            0.0000000            0.0000000
 Magnitude           :                                                    5.8222881
  Basis Set: (AUG-CC-PVTZ AUX)
    Blend: AUG-CC-PVTZ-RI + DEF2-QZVPP-RI
	 Reference Energy          =    -459.5734969847869138 [Eh]
	 Singles Energy            =      -0.0000000000000000 [Eh]
	 Same-Spin Energy          =      -0.0624931963038007 [Eh]
	 Opposite-Spin Energy      =      -0.1794113135460831 [Eh]
	 Correlation Energy        =      -0.2419045098498838 [Eh]
	 Total Energy              =    -459.8154014946367738 [Eh]
	 SCS Total Energy          =    -459.8096216264768259 [Eh]
                               Psi4 1.9 release
    Molecular point group: c1
  Multiplicity = 1
  Basis Set: AUG-CC-PVTZ
    Blend: AUG-CC-PVTZ
  Basis Set: (AUG-CC-PVTZ AUX)
    Blend: AUG-CC-PVTZ-JKFIT + DEF2-UNIVERSAL-JKFIT
  @DF-RHF Final Energy:  -161.67603168887265
    Total Energy =                       -161.6760316888726834
  Basis Set: (AUG-CC-PVTZ AUX)
	 Singles Energy            =      -0.0000000000000000 [Eh]
	 Same-Spin Energy          =      -0.0022434168558428 [Eh]
	 Opposite-Spin Energy      =      -0.0087329678162587 [Eh]
	 Correlation Energy        =      -0.0109763846721015 [Eh]
	 Total Energy              =    -161.6870080735447459 [Eh]
	 SCS Total Energy          =    -161.6872590558707827 [Eh]
                               Psi4 1.9 release
    Molecular point group: c1

    Geometry (in Bohr), charge = 0, multiplicity = 1:

       Center              X                  Y                   Z               Mass
    ------------   -----------------  -----------------  -----------------  -----------------
         NA           0.000000000000     0.000000000000     0.000000000000    22.989769282000
         CL           5.822499415836     0.000000000000     0.000000000000    34.968852682000

  Charge       = 0
  Multiplicity = 1
  Basis Set: AUG-CC-PVTZ
    Blend: AUG-CC-PVTZ
  Basis Set: (AUG-CC-PVTZ AUX)
    Blend: AUG-CC-PVTZ-JKFIT + DEF2-UNIVERSAL-JKFIT

    Orbital Energies [Eh]
    ---------------------

    Doubly Occupied:

       1A   -104.681699     2A    -40.562280     3A    -10.404966
       4A     -7.871098     5A     -7.870863     6A     -7.870863
       7A     -2.876409     8A     -1.599984     9A     -1.599984
      10A     -1.597883    11A     -0.907690    12A     -0.329643
      13A     -0.321835    14A     -0.321835

  @DF-RHF Final Energy:  -621.42908763879632

   => Energetics <=

    Nuclear Repulsion Energy =             32.1167915434025275
    One-Electron Energy =                -929.4576980087097127
    Two-Electron Energy =                 275.9118188265107392
    Total Energy =                       -621.4290876387964317
 Dipole X            :       -103.9858668           98.9824901           -5.0033768
 Dipole Y            :          0.0000000            0.0000000            0.0000000
 Dipole Z            :          0.0000000            0.0000000            0.0000000
 Magnitude           :                                                    5.0033768
  Basis Set: (AUG-CC-PVTZ AUX)
    Blend: AUG-CC-PVTZ-RI + DEF2-QZVPP-RI
	 Reference Energy          =    -621.4290876387963181 [Eh]
	 Singles Energy            =      -0.0000000000000000 [Eh]
	 Same-Spin Energy          =      -0.0649677393752187 [Eh]
	 Opposite-Spin Energy      =      -0.1888329854338573 [Eh]
	 Correlation Energy        =      -0.2538007248090761 [Eh]
	 Total Energy              =    -621.6828883636053433 [Eh]

	 ================> DF-SCS-MP2 Energies <==================
	-----------------------------------------------------------
	 SCS Same-Spin Scale       =       0.3333333333333333 [-]
	 SCS Opposite-Spin Scale   =       1.2000000000000000 [-]
	 SCS Same-Spin Energy      =      -0.0216559131250729 [Eh]
	 SCS Opposite-Spin Energy  =      -0.2265995825206288 [Eh]
	 SCS Correlation Energy    =      -0.2482554956457017 [Eh]
	 SCS Total Energy          =    -621.6773431344420260 [Eh]
	-----------------------------------------------------------

*** Psi4 exiting successfully. Buy a developer a beer!
