                               Psi4 1.9 release

  ==> Input File <==

--------------------------------------------------------------------------
MEMORY 60 GB

molecule dimer {
1 1
Na     0.000000     0.000000     0.000000
--
-1 1
Cl     3.555154     0.000000     0.000000

units ang
no_reorient
no_com
symmetry c1
}

set {
basis        aug-cc-pVTZ
scf_type     df
}

energy("mp2", bsse_type="cp")
--------------------------------------------------------------------------

                               Psi4 1.9 release
    Molecular point group: c1
  Charge       = -1
  Multiplicity = 1
  Basis Set: AUG-CC-PVTZ
    Blend: AUG-CC-PVTZ
  Basis Set: (AUG-CC-PVTZ AUX)
    Blend: AUG-CC-PVTZ-JKFIT + DEF2-UNIVERSAL-JKFIT
  @DF-RHF Final Energy:  -459.57349289114927
    Total Energy =                       -459.5734928911492716
 Dipole X            :       -120.9287470          114.2105457           -6.7182013
 Dipole Y            :          0.0000000            0.0000000            0.0000000
 Dipole Z            :          0.0000000            0.0000000            0.0000000
 Magnitude           :                                                    6.7182013
  Basis Set: (AUG-CC-PVTZ AUX)
    Blend: AUG-CC-PVTZ-RI + DEF2-QZVPP-RI
	 Reference Energy          =    -459.5734928911492716 [Eh]
	 Singles Energy            =      -0.0000000000000000 [Eh]
	 Same-Spin Energy          =      -0.0624187089282118 [Eh]
	 Opposite-Spin Energy      =      -0.1791429346051061 [Eh]
	 Correlation Energy        =      -0.2415616435333179 [Eh]
	 Total Energy              =    -459.8150545346825879 [Eh]
	 SCS Total Energy          =    -459.8092706489848069 [Eh]
                               Psi4 1.9 release
    Molecular point group: c1
  Multiplicity = 1
  Basis Set: AUG-CC-PVTZ
    Blend: AUG-CC-PVTZ
  Basis Set: (AUG-CC-PVTZ AUX)
    Blend: AUG-CC-PVTZ-JKFIT + DEF2-UNIVERSAL-JKFIT
  @DF-RHF Final Energy:  -161.67602980084172
    Total Energy =                       -161.6760298008417180
  Basis Set: (AUG-CC-PVTZ AUX)
	 Singles Energy            =      -0.0000000000000000 [Eh]
	 Same-Spin Energy          =      -0.0020679254519002 [Eh]
	 Opposite-Spin Energy      =      -0.0082198482412197 [Eh]
	 Correlation Energy        =      -0.0102877736931199 [Eh]
	 Total Energy              =    -161.6863175745348258 [Eh]
	 SCS Total Energy          =    -161.6865829272151416 [Eh]
                               Psi4 1.9 release
    Molecular point group: c1

    Geometry (in Bohr), charge = 0, multiplicity = 1:

       Center              X                  Y                   Z               Mass
    ------------   -----------------  -----------------  -----------------  -----------------
         NA           0.000000000000     0.000000000000     0.000000000000    22.989769282000
         CL           6.718267393826     0.000000000000     0.000000000000    34.968852682000

  Charge       = 0
  Multiplicity = 1
  Basis Set: AUG-CC-PVTZ
    Blend: AUG-CC-PVTZ
  Basis Set: (AUG-CC-PVTZ AUX)
    Blend: AUG-CC-PVTZ-JKFIT + DEF2-UNIVERSAL-JKFIT

    Orbital Energies [Eh]
    ---------------------

    Doubly Occupied:

       1A   -104.663578     2A    -40.593388     3A    -10.386830
       4A     -7.852951     5A     -7.852707     6A     -7.852707
       7A     -2.906052     8A     -1.629571     9A     -1.629571
      10A     -1.627940    11A     -0.888182    12A     -0.306645
      13A     -0.303366    14A     -0.303366

  @DF-RHF Final Energy:  -621.40597400466254

   => Energetics <=

    Nuclear Repulsion Energy =             27.8345574890117291
    One-Electron Energy =                -920.8873547851998183
    Two-Electron Energy =                 271.6468232915255498
    Total Energy =                       -621.4059740046625393
 Dipole X            :       -120.1801999          114.2105457           -5.9696542
 Dipole Y            :          0.0000000            0.0000000            0.0000000
 Dipole Z            :          0.0000000            0.0000000            0.0000000
 Magnitude           :                                                    5.9696542
  Basis Set: (AUG-CC-PVTZ AUX)
    Blend: AUG-CC-PVTZ-RI + DEF2-QZVPP-RI
	 Reference Energy          =    -621.4059740046625393 [Eh]
	 Singles Energy            =      -0.0000000000000000 [Eh]
	 Same-Spin Energy          =      -0.0647792853133055 [Eh]
	 Opposite-Spin Energy      =      -0.1883069229907949 [Eh]
	 Correlation Energy        =      -0.2530862083041004 [Eh]
	 Total Energy              =    -621.6590602129666649 [Eh]

	 ================> DF-SCS-MP2 Energies <==================
	-----------------------------------------------------------
	 SCS Same-Spin Scale       =       0.3333333333333333 [-]
	 SCS Opposite-Spin Scale   =       1.2000000000000000 [-]
	 SCS Same-Spin Energy      =      -0.0215930951044352 [Eh]
	 SCS Opposite-Spin Energy  =      -0.2259683075889539 [Eh]
	 SCS Correlation Energy    =      -0.2475614026933890 [Eh]
	 SCS Total Energy          =    -621.6535354073558892 [Eh]
	-----------------------------------------------------------

*** Psi4 exiting successfully. Buy a developer a beer!
