                               Psi4 1.9 release

  ==> Input File <==

--------------------------------------------------------------------------
MEMORY 60 GB

molecule dimer {
1 1
Na     0.000000     0.000000     0.000000
--
-1 1
Cl     2.844124     0.000000     0.000000

units ang
no_reorient
no_com
symmetry c1
}

set {
basis        aug-cc-pVTZ
scf_type     df
}

energy("mp2", bsse_type="cp")
--------------------------------------------------------------------------

                               Psi4 1.9 release
    Molecular point group: c1
  Charge       = -1
  Multiplicity = 1
  Basis Set: AUG-CC-PVTZ
    Blend: AUG-CC-PVTZ
  Basis Set: (AUG-CC-PVTZ AUX)
    Blend: AUG-CC-PVTZ-JKFIT + DEF2-UNIVERSAL-JKFIT
  @DF-RHF Final Energy:  -459.57349903518843
    Total Energy =                       -459.5734990351884335
 Dipole X            :        -96.7429562           91.3684623           -5.3744939
 Dipole Y            :          0.0000000            0.0000000            0.0000000
 Dipole Z            :         -0.0000000            0.0000000           -0.0000000
 Magnitude           :                                                    5.3744939
  Basis Set: (AUG-CC-PVTZ AUX)
    Blend: AUG-CC-PVTZ-RI + DEF2-QZVPP-RI
	 Reference Energy          =    -459.5734990351884335 [Eh]
	 Singles Energy            =      -0.0000000000000000 [Eh]
	 Same-Spin Energy          =      -0.0625511289123203 [Eh]
	 Opposite-Spin Energy      =      -0.1796209940946212 [Eh]
	 Correlation Energy        =      -0.2421721230069415 [Eh]
	 Total Energy              =    -459.8156711581953573 [Eh]
	 SCS Total Energy          =    -459.8098946044061108 [Eh]
                               Psi4 1.9 release
    Molecular point group: c1
  Multiplicity = 1
  Basis Set: AUG-CC-PVTZ
    Blend: AUG-CC-PVTZ
  Basis Set: (AUG-CC-PVTZ AUX)
    Blend: AUG-CC-PVTZ-JKFIT + DEF2-UNIVERSAL-JKFIT
  @DF-RHF Final Energy:  -161.67603264048819
    Total Energy =                       -161.6760326404881880
  Basis Set: (AUG-CC-PVTZ AUX)
	 Singles Energy            =      -0.0000000000000000 [Eh]
	 Same-Spin Energy          =      -0.0022869648294951 [Eh]
	 Opposite-Spin Energy      =      -0.0088676792775014 [Eh]
	 Correlation Energy        =      -0.0111546441069965 [Eh]
	 Total Energy              =    -161.6871872845951827 [Eh]
	 SCS Total Energy          =    -161.6874361772310351 [Eh]
                               Psi4 1.9 release
    Molecular point group: c1

    Geometry (in Bohr), charge = 0, multiplicity = 1:

       Center              X                  Y                   Z               Mass
    ------------   -----------------  -----------------  -----------------  -----------------
         NA           0.000000000000     0.000000000000     0.000000000000    22.989769282000
         CL           5.374615426842     0.000000000000     0.000000000000    34.968852682000

  Charge       = 0
  Multiplicity = 1
  Basis Set: AUG-CC-PVTZ
    Blend: AUG-CC-PVTZ
  Basis Set: (AUG-CC-PVTZ AUX)
    Blend: AUG-CC-PVTZ-JKFIT + DEF2-UNIVERSAL-JKFIT

    Orbital Energies [Eh]
    ---------------------

    Doubly Occupied:

       1A   -104.690321     2A    -40.543929     3A    -10.413793
       4A     -7.879936     5A     -7.879713     6A     -7.879713
       7A     -2.859326     8A     -1.582867     9A     -1.582867
      10A     -1.580628    11A     -0.918392    12A     -0.342652
      13A     -0.331736    14A     -0.331736

  @DF-RHF Final Energy:  -621.44094779116608

   => Energetics <=

    Nuclear Repulsion Energy =             34.7931870745755134
    One-Electron Energy =                -934.8330533825916291
    Two-Electron Energy =                 278.5989185168500626
    Total Energy =                       -621.4409477911660815
 Dipole X            :        -95.9097783           91.3684623           -4.5413160
 Dipole Y            :          0.0000000            0.0000000            0.0000000
 Dipole Z            :         -0.0000000            0.0000000           -0.0000000
 Magnitude           :                                                    4.5413160
  Basis Set: (AUG-CC-PVTZ AUX)
    Blend: AUG-CC-PVTZ-RI + DEF2-QZVPP-RI
	 Reference Energy          =    -621.4409477911660815 [Eh]
	 Singles Energy            =      -0.0000000000000000 [Eh]
	 Same-Spin Energy          =      -0.0650131221012957 [Eh]
	 Opposite-Spin Energy      =      -0.1888829744399942 [Eh]
	 Correlation Energy        =      -0.2538960965412899 [Eh]
	 Total Energy              =    -621.6948438877074068 [Eh]

	 ================> DF-SCS-MP2 Energies <==================
	-----------------------------------------------------------
	 SCS Same-Spin Scale       =       0.3333333333333333 [-]
	 SCS Opposite-Spin Scale   =       1.2000000000000000 [-]
	 SCS Same-Spin Energy      =      -0.0216710407004319 [Eh]
	 SCS Opposite-Spin Energy  =      -0.2266595693279930 [Eh]
	 SCS Correlation Energy    =      -0.2483306100284249 [Eh]
	 SCS Total Energy          =    -621.6892784011945423 [Eh]
	-----------------------------------------------------------

*** Psi4 exiting successfully. Buy a developer a beer!
