                               Psi4 1.9 release

  ==> Input File <==

--------------------------------------------------------------------------
MEMORY 60 GB

molecule dimer {
1 1
Na     0.000000     0.000000     0.000000
--
-1 1
Cl     2.133093     0.000000     0.000000

units ang
no_reorient
no_com
symmetry c1
}

set {
basis        aug-cc-pVTZ
scf_type     df
}

energy("mp2", bsse_type="cp")
--------------------------------------------------------------------------

                               Psi4 1.9 release
    Molecular point group: c1
  Charge       = -1
  Multiplicity = 1
  Basis Set: AUG-CC-PVTZ
    Blend: AUG-CC-PVTZ
  Basis Set: (AUG-CC-PVTZ AUX)
    Blend: AUG-CC-PVTZ-JKFIT + DEF2-UNIVERSAL-JKFIT
  @DF-RHF Final Energy:  -459.57351182022046
    Total Energy =                       -459.5735118202204603
 Dipole X            :        -72.5581932           68.5263467           -4.0318465
 Dipole Y            :          0.0000000            0.0000000            0.0000000
 Dipole Z            :          0.0000000            0.0000000            0.0000000
 Magnitude           :                                                    4.0318465
  Basis Set: (AUG-CC-PVTZ AUX)
    Blend: AUG-CC-PVTZ-RI + DEF2-QZVPP-RI
	 Reference Energy          =    -459.5735118202204603 [Eh]
	 Singles Energy            =      -0.0000000000000000 [Eh]
	 Same-Spin Energy          =      -0.0627359000116469 [Eh]
	 Opposite-Spin Energy      =      -0.1802812999143652 [Eh]
	 Correlation Energy        =      -0.2430171999260121 [Eh]
	 Total Energy              =    -459.8165290201464472 [Eh]
	 SCS Total Energy          =    -459.8107613467882402 [Eh]
                               Psi4 1.9 release
    Molecular point group: c1
  Multiplicity = 1
  Basis Set: AUG-CC-PVTZ
    Blend: AUG-CC-PVTZ
  Basis Set: (AUG-CC-PVTZ AUX)
    Blend: AUG-CC-PVTZ-JKFIT + DEF2-UNIVERSAL-JKFIT
  @DF-RHF Final Energy:  -161.67603861473023
    Total Energy =                       -161.6760386147302597
  Basis Set: (AUG-CC-PVTZ AUX)
	 Singles Energy            =      -0.0000000000000000 [Eh]
	 Same-Spin Energy          =      -0.0031601971791556 [Eh]
	 Opposite-Spin Energy      =      -0.0113959030056259 [Eh]
	 Correlation Energy        =      -0.0145561001847815 [Eh]
	 Total Energy              =    -161.6905947149150222 [Eh]
	 SCS Total Energy          =    -161.6907670973967015 [Eh]
                               Psi4 1.9 release
    Molecular point group: c1

    Geometry (in Bohr), charge = 0, multiplicity = 1:

       Center              X                  Y                   Z               Mass
    ------------   -----------------  -----------------  -----------------  -----------------
         NA           0.000000000000     0.000000000000     0.000000000000    22.989769282000
         CL           4.030961570131     0.000000000000     0.000000000000    34.968852682000

  Charge       = 0
  Multiplicity = 1
  Basis Set: AUG-CC-PVTZ
    Blend: AUG-CC-PVTZ
  Basis Set: (AUG-CC-PVTZ AUX)
    Blend: AUG-CC-PVTZ-JKFIT + DEF2-UNIVERSAL-JKFIT

    Orbital Energies [Eh]
    ---------------------

    Doubly Occupied:

       1A   -104.706016     2A    -40.474020     3A    -10.433433
       4A     -7.899724     5A     -7.899169     6A     -7.899169
       7A     -2.803739     8A     -1.529799     9A     -1.525438
      10A     -1.525438    11A     -0.953239    12A     -0.379282
      13A     -0.364645    14A     -0.364645

  @DF-RHF Final Energy:  -621.44304586212968

   => Energetics <=

    Nuclear Repulsion Energy =             46.3909160994340084
    One-Electron Energy =                -958.1524066692842325
    Two-Electron Energy =                 290.3184447077205164
    Total Energy =                       -621.4430458621297930
 Dipole X            :        -71.8298352           68.5263467           -3.3034885
 Dipole Y            :         -0.0000000            0.0000000           -0.0000000
 Dipole Z            :          0.0000000            0.0000000            0.0000000
 Magnitude           :                                                    3.3034885
  Basis Set: (AUG-CC-PVTZ AUX)
    Blend: AUG-CC-PVTZ-RI + DEF2-QZVPP-RI
	 Reference Energy          =    -621.4430458621296793 [Eh]
	 Singles Energy            =      -0.0000000000000000 [Eh]
	 Same-Spin Energy          =      -0.0660031996909984 [Eh]
	 Opposite-Spin Energy      =      -0.1907659840435649 [Eh]
	 Correlation Energy        =      -0.2567691837345633 [Eh]
	 Total Energy              =    -621.6998150458642840 [Eh]

	 ================> DF-SCS-MP2 Energies <==================
	-----------------------------------------------------------
	 SCS Same-Spin Scale       =       0.3333333333333333 [-]
	 SCS Opposite-Spin Scale   =       1.2000000000000000 [-]
	 SCS Same-Spin Energy      =      -0.0220010665636661 [Eh]
	 SCS Opposite-Spin Energy  =      -0.2289191808522778 [Eh]
	 SCS Correlation Energy    =      -0.2509202474159440 [Eh]
	 SCS Total Energy          =    -621.6939661095456131 [Eh]
	-----------------------------------------------------------

*** Psi4 exiting successfully. Buy a developer a beer!
