                               Psi4 1.9 release

  ==> Input File <==

--------------------------------------------------------------------------
MEMORY 60 GB

molecule dimer {
1 1
Na     0.000000     0.000000     0.000000
--
-1 1
Cl     3.318144     0.000000     0.000000

units ang
no_reorient
no_com
symmetry c1
}

set {
basis        aug-cc-pVTZ
scf_type     df
}

energy("mp2", bsse_type="cp")
--------------------------------------------------------------------------

                               Psi4 1.9 release
    Molecular point group: c1
  Charge       = -1
  Multiplicity = 1
  Basis Set: AUG-CC-PVTZ
    Blend: AUG-CC-PVTZ
  Basis Set: (AUG-CC-PVTZ AUX)
    Blend: AUG-CC-PVTZ-JKFIT + DEF2-UNIVERSAL-JKFIT
  @DF-RHF Final Energy:  -459.57349512162074
    Total Energy =                       -459.5734951216207378
 Dipole X            :       -112.8667305          106.5965179           -6.2702126
 Dipole Y            :          0.0000000            0.0000000            0.0000000
 Dipole Z            :         -0.0000000            0.0000000           -0.0000000
 Magnitude           :                                                    6.2702126
  Basis Set: (AUG-CC-PVTZ AUX)
    Blend: AUG-CC-PVTZ-RI + DEF2-QZVPP-RI
	 Reference Energy          =    -459.5734951216207378 [Eh]
	 Singles Energy            =      -0.0000000000000000 [Eh]
	 Same-Spin Energy          =      -0.0624505196929569 [Eh]
	 Opposite-Spin Energy      =      -0.1792569998008536 [Eh]
	 Correlation Energy        =      -0.2417075194938105 [Eh]
	 Total Energy              =    -459.8152026411145243 [Eh]
	 SCS Total Energy          =    -459.8094203612794217 [Eh]
                               Psi4 1.9 release
    Molecular point group: c1
  Multiplicity = 1
  Basis Set: AUG-CC-PVTZ
    Blend: AUG-CC-PVTZ
  Basis Set: (AUG-CC-PVTZ AUX)
    Blend: AUG-CC-PVTZ-JKFIT + DEF2-UNIVERSAL-JKFIT
  @DF-RHF Final Energy:  -161.67603102025782
    Total Energy =                       -161.6760310202577955
  Basis Set: (AUG-CC-PVTZ AUX)
	 Singles Energy            =      -0.0000000000000000 [Eh]
	 Same-Spin Energy          =      -0.0021557721781607 [Eh]
	 Opposite-Spin Energy      =      -0.0084733075713622 [Eh]
	 Correlation Energy        =      -0.0106290797495229 [Eh]
	 Total Energy              =    -161.6866601000073445 [Eh]
	 SCS Total Energy          =    -161.6869175800695189 [Eh]
                               Psi4 1.9 release
    Molecular point group: c1

    Geometry (in Bohr), charge = 0, multiplicity = 1:

       Center              X                  Y                   Z               Mass
    ------------   -----------------  -----------------  -----------------  -----------------
         NA           0.000000000000     0.000000000000     0.000000000000    22.989769282000
         CL           6.270383404831     0.000000000000     0.000000000000    34.968852682000

  Charge       = 0
  Multiplicity = 1
  Basis Set: AUG-CC-PVTZ
    Blend: AUG-CC-PVTZ
  Basis Set: (AUG-CC-PVTZ AUX)
    Blend: AUG-CC-PVTZ-JKFIT + DEF2-UNIVERSAL-JKFIT

    Orbital Energies [Eh]
    ---------------------

    Doubly Occupied:

       1A   -104.672644     2A    -40.578744     3A    -10.395867
       4A     -7.861993     5A     -7.861748     6A     -7.861748
       7A     -2.892015     8A     -1.615570     9A     -1.615570
      10A     -1.613705    11A     -0.897623    12A     -0.317602
      13A     -0.312367    14A     -0.312367

  @DF-RHF Final Energy:  -621.41717642306480

   => Energetics <=

    Nuclear Repulsion Energy =             29.8227377700575964
    One-Electron Energy =                -924.8607005399522905
    Two-Electron Energy =                 273.6207863468298456
    Total Energy =                       -621.4171764230648023
 Dipole X            :       -112.0775457          106.5965179           -5.4810278
 Dipole Y            :         -0.0000000            0.0000000           -0.0000000
 Dipole Z            :          0.0000000            0.0000000            0.0000000
 Magnitude           :                                                    5.4810278
  Basis Set: (AUG-CC-PVTZ AUX)
    Blend: AUG-CC-PVTZ-RI + DEF2-QZVPP-RI
	 Reference Energy          =    -621.4171764230648023 [Eh]
	 Singles Energy            =      -0.0000000000000000 [Eh]
	 Same-Spin Energy          =      -0.0648767552762783 [Eh]
	 Opposite-Spin Energy      =      -0.1885968787136539 [Eh]
	 Correlation Energy        =      -0.2534736339899322 [Eh]
	 Total Energy              =    -621.6706500570547860 [Eh]

	 ================> DF-SCS-MP2 Energies <==================
	-----------------------------------------------------------
	 SCS Same-Spin Scale       =       0.3333333333333333 [-]
	 SCS Opposite-Spin Scale   =       1.2000000000000000 [-]
	 SCS Same-Spin Energy      =      -0.0216255850920928 [Eh]
	 SCS Opposite-Spin Energy  =      -0.2263162544563846 [Eh]
	 SCS Correlation Energy    =      -0.2479418395484774 [Eh]
	 SCS Total Energy          =    -621.6651182626133050 [Eh]
	-----------------------------------------------------------

*** Psi4 exiting successfully. Buy a developer a beer!
