                               Psi4 1.9 release

  ==> Input File <==

--------------------------------------------------------------------------
MEMORY 60 GB

molecule dimer {
1 1
Na     0.000000     0.000000     0.000000
--
-1 1
Cl     4.740206     0.000000     0.000000

units ang
no_reorient
no_com
symmetry c1
}

set {
basis        aug-cc-pVTZ
scf_type     df
}

energy("mp2", bsse_type="cp")
--------------------------------------------------------------------------

                               Psi4 1.9 release
    Molecular point group: c1
  Charge       = -1
  Multiplicity = 1
  Basis Set: AUG-CC-PVTZ
    Blend: AUG-CC-PVTZ
  Basis Set: (AUG-CC-PVTZ AUX)
    Blend: AUG-CC-PVTZ-JKFIT + DEF2-UNIVERSAL-JKFIT
  @DF-RHF Final Energy:  -459.57348612252963
    Total Energy =                       -459.5734861225296299
 Dipole X            :       -161.2385512          152.2807490           -8.9578022
 Dipole Y            :         -0.0000000            0.0000000           -0.0000000
 Dipole Z            :         -0.0000000            0.0000000           -0.0000000
 Magnitude           :                                                    8.9578022
  Basis Set: (AUG-CC-PVTZ AUX)
    Blend: AUG-CC-PVTZ-RI + DEF2-QZVPP-RI
	 Reference Energy          =    -459.5734861225296299 [Eh]
	 Singles Energy            =      -0.0000000000000000 [Eh]
	 Same-Spin Energy          =      -0.0623349308476905 [Eh]
	 Opposite-Spin Energy      =      -0.1788639842924523 [Eh]
	 Correlation Energy        =      -0.2411989151401428 [Eh]
	 Total Energy              =    -459.8146850376697898 [Eh]
	 SCS Total Energy          =    -459.8089012139631109 [Eh]
                               Psi4 1.9 release
    Molecular point group: c1
  Multiplicity = 1
  Basis Set: AUG-CC-PVTZ
    Blend: AUG-CC-PVTZ
  Basis Set: (AUG-CC-PVTZ AUX)
    Blend: AUG-CC-PVTZ-JKFIT + DEF2-UNIVERSAL-JKFIT
  @DF-RHF Final Energy:  -161.67602469176487
    Total Energy =                       -161.6760246917648942
  Basis Set: (AUG-CC-PVTZ AUX)
	 Singles Energy            =      -0.0000000000000000 [Eh]
	 Same-Spin Energy          =      -0.0019305593278446 [Eh]
	 Opposite-Spin Energy      =      -0.0078364710520192 [Eh]
	 Correlation Energy        =      -0.0097670303798638 [Eh]
	 Total Energy              =    -161.6857917221447281 [Eh]
	 SCS Total Energy          =    -161.6860719768032482 [Eh]
                               Psi4 1.9 release
    Molecular point group: c1

    Geometry (in Bohr), charge = 0, multiplicity = 1:

       Center              X                  Y                   Z               Mass
    ------------   -----------------  -----------------  -----------------  -----------------
         NA           0.000000000000     0.000000000000     0.000000000000    22.989769282000
         CL           8.957691118252     0.000000000000     0.000000000000    34.968852682000

  Charge       = 0
  Multiplicity = 1
  Basis Set: AUG-CC-PVTZ
    Blend: AUG-CC-PVTZ
  Basis Set: (AUG-CC-PVTZ AUX)
    Blend: AUG-CC-PVTZ-JKFIT + DEF2-UNIVERSAL-JKFIT

    Orbital Energies [Eh]
    ---------------------

    Doubly Occupied:

       1A   -104.624347     2A    -40.643955     3A    -10.347895
       4A     -7.813982     5A     -7.813825     6A     -7.813825
       7A     -2.955651     8A     -1.678987     9A     -1.678987
      10A     -1.678261    11A     -0.850032    12A     -0.266221
      13A     -0.266221    14A     -0.266080

  @DF-RHF Final Energy:  -621.36438313846645

   => Energetics <=

    Nuclear Repulsion Energy =             20.8759151807516403
    One-Electron Energy =                -907.0840594226833673
    Two-Electron Energy =                 264.8437611034652832
    Total Energy =                       -621.3643831384663372
 Dipole X            :       -160.7457008          152.2807490           -8.4649518
 Dipole Y            :         -0.0000000            0.0000000           -0.0000000
 Dipole Z            :         -0.0000000            0.0000000           -0.0000000
 Magnitude           :                                                    8.4649518
  Basis Set: (AUG-CC-PVTZ AUX)
    Blend: AUG-CC-PVTZ-RI + DEF2-QZVPP-RI
	 Reference Energy          =    -621.3643831384664509 [Eh]
	 Singles Energy            =      -0.0000000000000000 [Eh]
	 Same-Spin Energy          =      -0.0644905986209840 [Eh]
	 Opposite-Spin Energy      =      -0.1873157508012913 [Eh]
	 Correlation Energy        =      -0.2518063494222753 [Eh]
	 Total Energy              =    -621.6161894878887324 [Eh]

	 ================> DF-SCS-MP2 Energies <==================
	-----------------------------------------------------------
	 SCS Same-Spin Scale       =       0.3333333333333333 [-]
	 SCS Opposite-Spin Scale   =       1.2000000000000000 [-]
	 SCS Same-Spin Energy      =      -0.0214968662069947 [Eh]
	 SCS Opposite-Spin Energy  =      -0.2247789009615496 [Eh]
	 SCS Correlation Energy    =      -0.2462757671685442 [Eh]
	 SCS Total Energy          =    -621.6106589056349776 [Eh]
	-----------------------------------------------------------

*** Psi4 exiting successfully. Buy a developer a beer!
