                               Psi4 1.9 release

  ==> Input File <==

--------------------------------------------------------------------------
MEMORY 60 GB

molecule dimer {
1 1
Na     0.000000     0.000000     0.000000
--
-1 1
Br     2.011327     0.000000     0.000000

units ang
no_reorient
no_com
symmetry c1
}

set {
basis        aug-cc-pVTZ
scf_type     df
}

energy("mp2", bsse_type="cp")
--------------------------------------------------------------------------

                               Psi4 1.9 release
    Molecular point group: c1
  Charge       = -1
  Multiplicity = 1
  Basis Set: AUG-CC-PVTZ
    Blend: AUG-CC-PVTZ
  Basis Set: (AUG-CC-PVTZ AUX)
    Blend: AUG-CC-PVTZ-JKFIT + DEF2-UNIVERSAL-JKFIT
  @DF-RHF Final Energy: -2572.53369082073459
    Total Energy =                      -2572.5336908207345914
 Dipole X            :       -136.8317486          133.0300013           -3.8017474
 Dipole Y            :          0.0000000            0.0000000            0.0000000
 Dipole Z            :          0.0000000            0.0000000            0.0000000
 Magnitude           :                                                    3.8017474
  Basis Set: (AUG-CC-PVTZ AUX)
    Blend: AUG-CC-PVTZ-RI + DEF2-QZVPP-RI
	 Reference Energy          =   -2572.5336908207345914 [Eh]
	 Singles Energy            =      -0.0000000000000000 [Eh]
	 Same-Spin Energy          =      -0.0887135273523630 [Eh]
	 Opposite-Spin Energy      =      -0.2056244978298963 [Eh]
	 Correlation Energy        =      -0.2943380251822593 [Eh]
	 Total Energy              =   -2572.8280288459168332 [Eh]
	 SCS Total Energy          =   -2572.8100113939144649 [Eh]
                               Psi4 1.9 release
    Molecular point group: c1
  Multiplicity = 1
  Basis Set: AUG-CC-PVTZ
    Blend: AUG-CC-PVTZ
  Basis Set: (AUG-CC-PVTZ AUX)
    Blend: AUG-CC-PVTZ-JKFIT + DEF2-UNIVERSAL-JKFIT
  @DF-RHF Final Energy:  -161.67604332831988
    Total Energy =                       -161.6760433283199063
  Basis Set: (AUG-CC-PVTZ AUX)
	 Singles Energy            =      -0.0000000000000000 [Eh]
	 Same-Spin Energy          =      -0.0037880709961769 [Eh]
	 Opposite-Spin Energy      =      -0.0131022552484525 [Eh]
	 Correlation Energy        =      -0.0168903262446294 [Eh]
	 Total Energy              =    -161.6929336545645128 [Eh]
	 SCS Total Energy          =    -161.6930287249500680 [Eh]
                               Psi4 1.9 release
    Molecular point group: c1

    Geometry (in Bohr), charge = 0, multiplicity = 1:

       Center              X                  Y                   Z               Mass
    ------------   -----------------  -----------------  -----------------  -----------------
         NA           0.000000000000     0.000000000000     0.000000000000    22.989769282000
         BR           3.800857178739     0.000000000000     0.000000000000    78.918337600000

  Charge       = 0
  Multiplicity = 1
  Basis Set: AUG-CC-PVTZ
    Blend: AUG-CC-PVTZ
  Basis Set: (AUG-CC-PVTZ AUX)
    Blend: AUG-CC-PVTZ-JKFIT + DEF2-UNIVERSAL-JKFIT

    Orbital Energies [Eh]
    ---------------------

    Doubly Occupied:

       1A   -489.918401     2A    -65.060955     3A    -58.415181
       4A    -58.415181     5A    -58.415163     6A    -40.463310
       7A     -9.735761     8A     -7.344346     9A     -7.342757
      10A     -7.342757    11A     -3.085399    12A     -3.084777
      13A     -3.084777    14A     -3.084201    15A     -3.084201
      16A     -2.805013    17A     -1.538246    18A     -1.523713
      19A     -1.523713    20A     -0.905260    21A     -0.360063
      22A     -0.354601    23A     -0.354601

  @DF-RHF Final Energy: -2734.34583699744644

   => Energetics <=

    Nuclear Repulsion Energy =            101.2929404855351692
    One-Electron Energy =               -4016.7928053217283377
    Two-Electron Energy =                1181.1540278387467424
    Total Energy =                      -2734.3458369974459856
 Dipole X            :       -136.0273989          133.0300013           -2.9973977
 Dipole Y            :          0.0000000            0.0000000            0.0000000
 Dipole Z            :          0.0000000            0.0000000            0.0000000
 Magnitude           :                                                    2.9973977
  Basis Set: (AUG-CC-PVTZ AUX)
    Blend: AUG-CC-PVTZ-RI + DEF2-QZVPP-RI
	 Reference Energy          =   -2734.3458369974464404 [Eh]
	 Singles Energy            =      -0.0000000000000000 [Eh]
	 Same-Spin Energy          =      -0.0932908247316843 [Eh]
	 Opposite-Spin Energy      =      -0.2183120641852698 [Eh]
	 Correlation Energy        =      -0.3116028889169541 [Eh]
	 Total Energy              =   -2734.6574398863635906 [Eh]

	 ================> DF-SCS-MP2 Energies <==================
	-----------------------------------------------------------
	 SCS Same-Spin Scale       =       0.3333333333333333 [-]
	 SCS Opposite-Spin Scale   =       1.2000000000000000 [-]
	 SCS Same-Spin Energy      =      -0.0310969415772281 [Eh]
	 SCS Opposite-Spin Energy  =      -0.2619744770223237 [Eh]
	 SCS Correlation Energy    =      -0.2930714185995518 [Eh]
	 SCS Total Energy          =   -2734.6389084160459788 [Eh]
	-----------------------------------------------------------

*** Psi4 exiting successfully. Buy a developer a beer!
