                               Psi4 1.9 release

  ==> Input File <==

--------------------------------------------------------------------------
MEMORY 60 GB

molecule dimer {
1 1
Na     0.000000     0.000000     0.000000
--
-1 1
Br     3.268407     0.000000     0.000000

units ang
no_reorient
no_com
symmetry c1
}

set {
basis        aug-cc-pVTZ
scf_type     df
}

energy("mp2", bsse_type="cp")
--------------------------------------------------------------------------

                               Psi4 1.9 release
    Molecular point group: c1
  Charge       = -1
  Multiplicity = 1
  Basis Set: AUG-CC-PVTZ
    Blend: AUG-CC-PVTZ
  Basis Set: (AUG-CC-PVTZ AUX)
    Blend: AUG-CC-PVTZ-JKFIT + DEF2-UNIVERSAL-JKFIT
  @DF-RHF Final Energy: -2572.53367728457943
    Total Energy =                      -2572.5336772845794258
 Dipole X            :       -222.3503063          216.1737934           -6.1765129
 Dipole Y            :          0.0000000            0.0000000            0.0000000
 Dipole Z            :          0.0000000            0.0000000            0.0000000
 Magnitude           :                                                    6.1765129
  Basis Set: (AUG-CC-PVTZ AUX)
    Blend: AUG-CC-PVTZ-RI + DEF2-QZVPP-RI
	 Reference Energy          =   -2572.5336772845794258 [Eh]
	 Singles Energy            =      -0.0000000000000000 [Eh]
	 Same-Spin Energy          =      -0.0874240233661153 [Eh]
	 Opposite-Spin Energy      =      -0.2026788200992246 [Eh]
	 Correlation Energy        =      -0.2901028434653400 [Eh]
	 Total Energy              =   -2572.8237801280447457 [Eh]
	 SCS Total Energy          =   -2572.8060332098207255 [Eh]
                               Psi4 1.9 release
    Molecular point group: c1
  Multiplicity = 1
  Basis Set: AUG-CC-PVTZ
    Blend: AUG-CC-PVTZ
  Basis Set: (AUG-CC-PVTZ AUX)
    Blend: AUG-CC-PVTZ-JKFIT + DEF2-UNIVERSAL-JKFIT
  @DF-RHF Final Energy:  -161.67603189714237
    Total Energy =                       -161.6760318971423658
  Basis Set: (AUG-CC-PVTZ AUX)
	 Singles Energy            =      -0.0000000000000000 [Eh]
	 Same-Spin Energy          =      -0.0022075999741274 [Eh]
	 Opposite-Spin Energy      =      -0.0086332380106073 [Eh]
	 Correlation Energy        =      -0.0108408379847347 [Eh]
	 Total Energy              =    -161.6868727351271104 [Eh]
	 SCS Total Energy          =    -161.6871276494131280 [Eh]
                               Psi4 1.9 release
    Molecular point group: c1

    Geometry (in Bohr), charge = 0, multiplicity = 1:

       Center              X                  Y                   Z               Mass
    ------------   -----------------  -----------------  -----------------  -----------------
         NA           0.000000000000     0.000000000000     0.000000000000    22.989769282000
         BR           6.176394096529     0.000000000000     0.000000000000    78.918337600000

  Charge       = 0
  Multiplicity = 1
  Basis Set: AUG-CC-PVTZ
    Blend: AUG-CC-PVTZ
  Basis Set: (AUG-CC-PVTZ AUX)
    Blend: AUG-CC-PVTZ-JKFIT + DEF2-UNIVERSAL-JKFIT

    Orbital Energies [Eh]
    ---------------------

    Doubly Occupied:

       1A   -489.887527     2A    -65.027352     3A    -58.381995
       4A    -58.381740     5A    -58.381740     6A    -40.567976
       7A     -9.699466     8A     -7.307542     9A     -7.306326
      10A     -7.306326    11A     -3.049503    12A     -3.048963
      13A     -3.048963    14A     -3.047378    15A     -3.047378
      16A     -2.882042    17A     -1.605508    18A     -1.605508
      19A     -1.603684    20A     -0.851322    21A     -0.310485
      22A     -0.301537    23A     -0.301537

  @DF-RHF Final Energy: -2734.38125630932336

   => Energetics <=

    Nuclear Repulsion Energy =             62.3341053020477602
    One-Electron Energy =               -3939.5271293278283338
    Two-Electron Energy =                1142.8117677164573252
    Total Energy =                      -2734.3812563093233621
 Dipole X            :       -221.3254897          216.1737934           -5.1516964
 Dipole Y            :          0.0000000            0.0000000            0.0000000
 Dipole Z            :          0.0000000            0.0000000            0.0000000
 Magnitude           :                                                    5.1516964
  Basis Set: (AUG-CC-PVTZ AUX)
    Blend: AUG-CC-PVTZ-RI + DEF2-QZVPP-RI
	 Reference Energy          =   -2734.3812563093233621 [Eh]
	 Singles Energy            =      -0.0000000000000000 [Eh]
	 Same-Spin Energy          =      -0.0898799852338180 [Eh]
	 Opposite-Spin Energy      =      -0.2121677814327625 [Eh]
	 Correlation Energy        =      -0.3020477666665806 [Eh]
	 Total Energy              =   -2734.6833040759897813 [Eh]

	 ================> DF-SCS-MP2 Energies <==================
	-----------------------------------------------------------
	 SCS Same-Spin Scale       =       0.3333333333333333 [-]
	 SCS Opposite-Spin Scale   =       1.2000000000000000 [-]
	 SCS Same-Spin Energy      =      -0.0299599950779393 [Eh]
	 SCS Opposite-Spin Energy  =      -0.2546013377193150 [Eh]
	 SCS Correlation Energy    =      -0.2845613327972544 [Eh]
	 SCS Total Energy          =   -2734.6658176421206008 [Eh]
	-----------------------------------------------------------

*** Psi4 exiting successfully. Buy a developer a beer!
