                               Psi4 1.9 release

  ==> Input File <==

--------------------------------------------------------------------------
MEMORY 60 GB

molecule dimer {
1 1
Na     0.000000     0.000000     0.000000
--
-1 1
Br     2.639867     0.000000     0.000000

units ang
no_reorient
no_com
symmetry c1
}

set {
basis        aug-cc-pVTZ
scf_type     df
}

energy("mp2", bsse_type="cp")
--------------------------------------------------------------------------

                               Psi4 1.9 release
    Molecular point group: c1
  Charge       = -1
  Multiplicity = 1
  Basis Set: AUG-CC-PVTZ
    Blend: AUG-CC-PVTZ
  Basis Set: (AUG-CC-PVTZ AUX)
    Blend: AUG-CC-PVTZ-JKFIT + DEF2-UNIVERSAL-JKFIT
  @DF-RHF Final Energy: -2572.53368572241743
    Total Energy =                      -2572.5336857224174310
 Dipole X            :       -179.5909628          174.6018973           -4.9890655
 Dipole Y            :         -0.0000000            0.0000000           -0.0000000
 Dipole Z            :          0.0000000            0.0000000            0.0000000
 Magnitude           :                                                    4.9890655
  Basis Set: (AUG-CC-PVTZ AUX)
    Blend: AUG-CC-PVTZ-RI + DEF2-QZVPP-RI
	 Reference Energy          =   -2572.5336857224174310 [Eh]
	 Singles Energy            =      -0.0000000000000000 [Eh]
	 Same-Spin Energy          =      -0.0880736029965949 [Eh]
	 Opposite-Spin Energy      =      -0.2041770933415160 [Eh]
	 Correlation Energy        =      -0.2922506963381108 [Eh]
	 Total Energy              =   -2572.8259364187556457 [Eh]
	 SCS Total Energy          =   -2572.8080561020929053 [Eh]
                               Psi4 1.9 release
    Molecular point group: c1
  Multiplicity = 1
  Basis Set: AUG-CC-PVTZ
    Blend: AUG-CC-PVTZ
  Basis Set: (AUG-CC-PVTZ AUX)
    Blend: AUG-CC-PVTZ-JKFIT + DEF2-UNIVERSAL-JKFIT
  @DF-RHF Final Energy:  -161.67603528959285
    Total Energy =                       -161.6760352895928463
  Basis Set: (AUG-CC-PVTZ AUX)
	 Singles Energy            =      -0.0000000000000000 [Eh]
	 Same-Spin Energy          =      -0.0023490729180236 [Eh]
	 Opposite-Spin Energy      =      -0.0090258443399103 [Eh]
	 Correlation Energy        =      -0.0113749172579339 [Eh]
	 Total Energy              =    -161.6874102068507852 [Eh]
	 SCS Total Energy          =    -161.6876493271067545 [Eh]
                               Psi4 1.9 release
    Molecular point group: c1

    Geometry (in Bohr), charge = 0, multiplicity = 1:

       Center              X                  Y                   Z               Mass
    ------------   -----------------  -----------------  -----------------  -----------------
         NA           0.000000000000     0.000000000000     0.000000000000    22.989769282000
         BR           4.988625637634     0.000000000000     0.000000000000    78.918337600000

  Charge       = 0
  Multiplicity = 1
  Basis Set: AUG-CC-PVTZ
    Blend: AUG-CC-PVTZ
  Basis Set: (AUG-CC-PVTZ AUX)
    Blend: AUG-CC-PVTZ-JKFIT + DEF2-UNIVERSAL-JKFIT

    Orbital Energies [Eh]
    ---------------------

    Doubly Occupied:

       1A   -489.906909     2A    -65.047130     3A    -58.401671
       4A    -58.401556     5A    -58.401556     6A    -40.519348
       7A     -9.719562     8A     -7.327526     9A     -7.326632
      10A     -7.326632    11A     -3.069290    12A     -3.068898
      13A     -3.068898    14A     -3.067882    15A     -3.067882
      16A     -2.838281    17A     -1.561302    18A     -1.561302
      19A     -1.560188    20A     -0.877617    21A     -0.342289
      22A     -0.325367    23A     -0.325367

  @DF-RHF Final Energy: -2734.40526193677533

   => Energetics <=

    Nuclear Repulsion Energy =             77.1755645674384283
    One-Electron Energy =               -3968.9354852028636742
    Two-Electron Energy =                1157.3546586986499278
    Total Energy =                      -2734.4052619367753323
 Dipole X            :       -178.5673277          174.6018973           -3.9654304
 Dipole Y            :         -0.0000000            0.0000000           -0.0000000
 Dipole Z            :          0.0000000            0.0000000            0.0000000
 Magnitude           :                                                    3.9654304
  Basis Set: (AUG-CC-PVTZ AUX)
    Blend: AUG-CC-PVTZ-RI + DEF2-QZVPP-RI
	 Reference Energy          =   -2734.4052619367753323 [Eh]
	 Singles Energy            =      -0.0000000000000000 [Eh]
	 Same-Spin Energy          =      -0.0906891146313509 [Eh]
	 Opposite-Spin Energy      =      -0.2133586698009342 [Eh]
	 Correlation Energy        =      -0.3040477844322851 [Eh]
	 Total Energy              =   -2734.7093097212077737 [Eh]

	 ================> DF-SCS-MP2 Energies <==================
	-----------------------------------------------------------
	 SCS Same-Spin Scale       =       0.3333333333333333 [-]
	 SCS Opposite-Spin Scale   =       1.2000000000000000 [-]
	 SCS Same-Spin Energy      =      -0.0302297048771170 [Eh]
	 SCS Opposite-Spin Energy  =      -0.2560304037611210 [Eh]
	 SCS Correlation Energy    =      -0.2862601086382380 [Eh]
	 SCS Total Energy          =   -2734.6915220454134214 [Eh]
	-----------------------------------------------------------

*** Psi4 exiting successfully. Buy a developer a beer!
