                               Psi4 1.9 release

  ==> Input File <==

--------------------------------------------------------------------------
MEMORY 60 GB

molecule dimer {
1 1
Na     0.000000     0.000000     0.000000
--
-1 1
Br     3.016991     0.000000     0.000000

units ang
no_reorient
no_com
symmetry c1
}

set {
basis        aug-cc-pVTZ
scf_type     df
}

energy("mp2", bsse_type="cp")
--------------------------------------------------------------------------

                               Psi4 1.9 release
    Molecular point group: c1
  Charge       = -1
  Multiplicity = 1
  Basis Set: AUG-CC-PVTZ
    Blend: AUG-CC-PVTZ
  Basis Set: (AUG-CC-PVTZ AUX)
    Blend: AUG-CC-PVTZ-JKFIT + DEF2-UNIVERSAL-JKFIT
  @DF-RHF Final Energy: -2572.53367993689653
    Total Energy =                      -2572.5336799368965330
 Dipole X            :       -205.2465301          199.5450350           -5.7014951
 Dipole Y            :         -0.0000000            0.0000000           -0.0000000
 Dipole Z            :          0.0000000            0.0000000            0.0000000
 Magnitude           :                                                    5.7014951
  Basis Set: (AUG-CC-PVTZ AUX)
    Blend: AUG-CC-PVTZ-RI + DEF2-QZVPP-RI
	 Reference Energy          =   -2572.5336799368965330 [Eh]
	 Singles Energy            =      -0.0000000000000000 [Eh]
	 Same-Spin Energy          =      -0.0876144157350182 [Eh]
	 Opposite-Spin Energy      =      -0.2031324352959892 [Eh]
	 Correlation Energy        =      -0.2907468510310074 [Eh]
	 Total Energy              =   -2572.8244267879276777 [Eh]
	 SCS Total Energy          =   -2572.8066436644967325 [Eh]
                               Psi4 1.9 release
    Molecular point group: c1
  Multiplicity = 1
  Basis Set: AUG-CC-PVTZ
    Blend: AUG-CC-PVTZ
  Basis Set: (AUG-CC-PVTZ AUX)
    Blend: AUG-CC-PVTZ-JKFIT + DEF2-UNIVERSAL-JKFIT
  @DF-RHF Final Energy:  -161.67603269814200
    Total Energy =                       -161.6760326981419666
  Basis Set: (AUG-CC-PVTZ AUX)
	 Singles Energy            =      -0.0000000000000000 [Eh]
	 Same-Spin Energy          =      -0.0022822962626332 [Eh]
	 Opposite-Spin Energy      =      -0.0088554049328061 [Eh]
	 Correlation Energy        =      -0.0111377011954392 [Eh]
	 Total Energy              =    -161.6871703993374467 [Eh]
	 SCS Total Energy          =    -161.6874199494822335 [Eh]
                               Psi4 1.9 release
    Molecular point group: c1

    Geometry (in Bohr), charge = 0, multiplicity = 1:

       Center              X                  Y                   Z               Mass
    ------------   -----------------  -----------------  -----------------  -----------------
         NA           0.000000000000     0.000000000000     0.000000000000    22.989769282000
         BR           5.701286712971     0.000000000000     0.000000000000    78.918337600000

  Charge       = 0
  Multiplicity = 1
  Basis Set: AUG-CC-PVTZ
    Blend: AUG-CC-PVTZ
  Basis Set: (AUG-CC-PVTZ AUX)
    Blend: AUG-CC-PVTZ-JKFIT + DEF2-UNIVERSAL-JKFIT

    Orbital Energies [Eh]
    ---------------------

    Doubly Occupied:

       1A   -489.895877     2A    -65.035761     3A    -58.390384
       4A    -58.390164     5A    -58.390164     6A    -40.549840
       7A     -9.707909     8A     -7.315954     9A     -7.314824
      10A     -7.314824    11A     -3.057879    12A     -3.057374
      13A     -3.057374    14A     -3.055920    15A     -3.055920
      16A     -2.865169    17A     -1.588579    18A     -1.588579
      19A     -1.586675    20A     -0.861342    21A     -0.322934
      22A     -0.310742    23A     -0.310742

  @DF-RHF Final Energy: -2734.39274595408278

   => Energetics <=

    Nuclear Repulsion Energy =             67.5286157989698950
    One-Electron Energy =               -3949.7928700768238741
    Two-Electron Energy =                1147.8715083237716499
    Total Energy =                      -2734.3927459540823293
 Dipole X            :       -204.2034023          199.5450350           -4.6583673
 Dipole Y            :         -0.0000000            0.0000000           -0.0000000
 Dipole Z            :          0.0000000            0.0000000            0.0000000
 Magnitude           :                                                    4.6583673
  Basis Set: (AUG-CC-PVTZ AUX)
    Blend: AUG-CC-PVTZ-RI + DEF2-QZVPP-RI
	 Reference Energy          =   -2734.3927459540827840 [Eh]
	 Singles Energy            =      -0.0000000000000000 [Eh]
	 Same-Spin Energy          =      -0.0901408908664909 [Eh]
	 Opposite-Spin Energy      =      -0.2126316827910709 [Eh]
	 Correlation Energy        =      -0.3027725736575617 [Eh]
	 Total Energy              =   -2734.6955185277402052 [Eh]

	 ================> DF-SCS-MP2 Energies <==================
	-----------------------------------------------------------
	 SCS Same-Spin Scale       =       0.3333333333333333 [-]
	 SCS Opposite-Spin Scale   =       1.2000000000000000 [-]
	 SCS Same-Spin Energy      =      -0.0300469636221636 [Eh]
	 SCS Opposite-Spin Energy  =      -0.2551580193492850 [Eh]
	 SCS Correlation Energy    =      -0.2852049829714486 [Eh]
	 SCS Total Energy          =   -2734.6779509370544474 [Eh]
	-----------------------------------------------------------

*** Psi4 exiting successfully. Buy a developer a beer!
