                               Psi4 1.9 release

  ==> Input File <==

--------------------------------------------------------------------------
MEMORY 60 GB

molecule dimer {
1 1
Na     0.000000     0.000000     0.000000
--
-1 1
Br     3.771238     0.000000     0.000000

units ang
no_reorient
no_com
symmetry c1
}

set {
basis        aug-cc-pVTZ
scf_type     df
}

energy("mp2", bsse_type="cp")
--------------------------------------------------------------------------

                               Psi4 1.9 release
    Molecular point group: c1
  Charge       = -1
  Multiplicity = 1
  Basis Set: AUG-CC-PVTZ
    Blend: AUG-CC-PVTZ
  Basis Set: (AUG-CC-PVTZ AUX)
    Blend: AUG-CC-PVTZ-JKFIT + DEF2-UNIVERSAL-JKFIT
  @DF-RHF Final Energy: -2572.53367466907412
    Total Energy =                      -2572.5336746690736618
 Dipole X            :       -256.5579651          249.4312441           -7.1267211
 Dipole Y            :         -0.0000000            0.0000000           -0.0000000
 Dipole Z            :         -0.0000000            0.0000000           -0.0000000
 Magnitude           :                                                    7.1267211
  Basis Set: (AUG-CC-PVTZ AUX)
    Blend: AUG-CC-PVTZ-RI + DEF2-QZVPP-RI
	 Reference Energy          =   -2572.5336746690741165 [Eh]
	 Singles Energy            =      -0.0000000000000000 [Eh]
	 Same-Spin Energy          =      -0.0871965797681447 [Eh]
	 Opposite-Spin Energy      =      -0.2021284771625037 [Eh]
	 Correlation Energy        =      -0.2893250569306483 [Eh]
	 Total Energy              =   -2572.8229997260045820 [Eh]
	 SCS Total Energy          =   -2572.8052943682587284 [Eh]
                               Psi4 1.9 release
    Molecular point group: c1
  Multiplicity = 1
  Basis Set: AUG-CC-PVTZ
    Blend: AUG-CC-PVTZ
  Basis Set: (AUG-CC-PVTZ AUX)
    Blend: AUG-CC-PVTZ-JKFIT + DEF2-UNIVERSAL-JKFIT
  @DF-RHF Final Energy:  -161.67602908071547
    Total Energy =                       -161.6760290807154661
  Basis Set: (AUG-CC-PVTZ AUX)
	 Singles Energy            =      -0.0000000000000000 [Eh]
	 Same-Spin Energy          =      -0.0020399664466047 [Eh]
	 Opposite-Spin Energy      =      -0.0081448112565025 [Eh]
	 Correlation Energy        =      -0.0101847777031073 [Eh]
	 Total Energy              =    -161.6862138584185686 [Eh]
	 SCS Total Energy          =    -161.6864828430388172 [Eh]
                               Psi4 1.9 release
    Molecular point group: c1

    Geometry (in Bohr), charge = 0, multiplicity = 1:

       Center              X                  Y                   Z               Mass
    ------------   -----------------  -----------------  -----------------  -----------------
         NA           0.000000000000     0.000000000000     0.000000000000    22.989769282000
         BR           7.126606973919     0.000000000000     0.000000000000    78.918337600000

  Charge       = 0
  Multiplicity = 1
  Basis Set: AUG-CC-PVTZ
    Blend: AUG-CC-PVTZ
  Basis Set: (AUG-CC-PVTZ AUX)
    Blend: AUG-CC-PVTZ-JKFIT + DEF2-UNIVERSAL-JKFIT

    Orbital Energies [Eh]
    ---------------------

    Doubly Occupied:

       1A   -489.870312     2A    -65.010159     3A    -58.364797
       4A    -58.364536     5A    -58.364536     6A    -40.598812
       7A     -9.682322     8A     -7.290373     9A     -7.289173
      10A     -7.289173    11A     -3.032322    12A     -3.031800
      13A     -3.031800    14A     -3.030243    15A     -3.030243
      16A     -2.911438    17A     -1.634885    18A     -1.634885
      19A     -1.633434    20A     -0.833037    21A     -0.288447
      22A     -0.284326    23A     -0.284326

  @DF-RHF Final Energy: -2734.35880891177931

   => Energetics <=

    Nuclear Repulsion Energy =             54.0229033829076855
    One-Electron Energy =               -3923.1926655329557434
    Two-Electron Energy =                1134.8109532382684392
    Total Energy =                      -2734.3588089117793061
 Dipole X            :       -255.6184843          249.4312441           -6.1872402
 Dipole Y            :          0.0000000            0.0000000            0.0000000
 Dipole Z            :          0.0000000            0.0000000            0.0000000
 Magnitude           :                                                    6.1872402
  Basis Set: (AUG-CC-PVTZ AUX)
    Blend: AUG-CC-PVTZ-RI + DEF2-QZVPP-RI
	 Reference Energy          =   -2734.3588089117793061 [Eh]
	 Singles Energy            =      -0.0000000000000000 [Eh]
	 Same-Spin Energy          =      -0.0894954673087925 [Eh]
	 Opposite-Spin Energy      =      -0.2112776613017676 [Eh]
	 Correlation Energy        =      -0.3007731286105602 [Eh]
	 Total Energy              =   -2734.6595820403899779 [Eh]

	 ================> DF-SCS-MP2 Energies <==================
	-----------------------------------------------------------
	 SCS Same-Spin Scale       =       0.3333333333333333 [-]
	 SCS Opposite-Spin Scale   =       1.2000000000000000 [-]
	 SCS Same-Spin Energy      =      -0.0298318224362642 [Eh]
	 SCS Opposite-Spin Energy  =      -0.2535331935621212 [Eh]
	 SCS Correlation Energy    =      -0.2833650159983853 [Eh]
	 SCS Total Energy          =   -2734.6421739277775487 [Eh]
	-----------------------------------------------------------

*** Psi4 exiting successfully. Buy a developer a beer!
