                               Psi4 1.9 release

  ==> Input File <==

--------------------------------------------------------------------------
MEMORY 60 GB

molecule dimer {
1 1
Na     0.000000     0.000000     0.000000
--
-1 1
Br     2.514159     0.000000     0.000000

units ang
no_reorient
no_com
symmetry c1
}

set {
basis        aug-cc-pVTZ
scf_type     df
}

energy("mp2", bsse_type="cp")
--------------------------------------------------------------------------

                               Psi4 1.9 release
    Molecular point group: c1
  Charge       = -1
  Multiplicity = 1
  Basis Set: AUG-CC-PVTZ
    Blend: AUG-CC-PVTZ
  Basis Set: (AUG-CC-PVTZ AUX)
    Blend: AUG-CC-PVTZ-JKFIT + DEF2-UNIVERSAL-JKFIT
  @DF-RHF Final Energy: -2572.53368738574636
    Total Energy =                      -2572.5336873857468163
 Dipole X            :       -171.0391614          166.2875181           -4.7516433
 Dipole Y            :          0.0000000            0.0000000            0.0000000
 Dipole Z            :         -0.0000000            0.0000000           -0.0000000
 Magnitude           :                                                    4.7516433
  Basis Set: (AUG-CC-PVTZ AUX)
    Blend: AUG-CC-PVTZ-RI + DEF2-QZVPP-RI
	 Reference Energy          =   -2572.5336873857463615 [Eh]
	 Singles Energy            =      -0.0000000000000000 [Eh]
	 Same-Spin Energy          =      -0.0882500605654783 [Eh]
	 Opposite-Spin Energy      =      -0.2045662680770650 [Eh]
	 Correlation Energy        =      -0.2928163286425434 [Eh]
	 Total Energy              =   -2572.8265037143887639 [Eh]
	 SCS Total Energy          =   -2572.8085835942938502 [Eh]
                               Psi4 1.9 release
    Molecular point group: c1
  Multiplicity = 1
  Basis Set: AUG-CC-PVTZ
    Blend: AUG-CC-PVTZ
  Basis Set: (AUG-CC-PVTZ AUX)
    Blend: AUG-CC-PVTZ-JKFIT + DEF2-UNIVERSAL-JKFIT
  @DF-RHF Final Energy:  -161.67603682872524
    Total Energy =                       -161.6760368287252732
  Basis Set: (AUG-CC-PVTZ AUX)
	 Singles Energy            =      -0.0000000000000000 [Eh]
	 Same-Spin Energy          =      -0.0024503018708367 [Eh]
	 Opposite-Spin Energy      =      -0.0092821321759780 [Eh]
	 Correlation Energy        =      -0.0117324340468147 [Eh]
	 Total Energy              =    -161.6877692627720648 [Eh]
	 SCS Total Energy          =    -161.6879921546266985 [Eh]
                               Psi4 1.9 release
    Molecular point group: c1

    Geometry (in Bohr), charge = 0, multiplicity = 1:

       Center              X                  Y                   Z               Mass
    ------------   -----------------  -----------------  -----------------  -----------------
         NA           0.000000000000     0.000000000000     0.000000000000    22.989769282000
         BR           4.751071945855     0.000000000000     0.000000000000    78.918337600000

  Charge       = 0
  Multiplicity = 1
  Basis Set: AUG-CC-PVTZ
    Blend: AUG-CC-PVTZ
  Basis Set: (AUG-CC-PVTZ AUX)
    Blend: AUG-CC-PVTZ-JKFIT + DEF2-UNIVERSAL-JKFIT

    Orbital Energies [Eh]
    ---------------------

    Doubly Occupied:

       1A   -489.909928     2A    -65.050377     3A    -58.404871
       4A    -58.404803     5A    -58.404803     6A    -40.508213
       7A     -9.723022     8A     -7.330968     9A     -7.330152
      10A     -7.330152    11A     -3.072639    12A     -3.072289
      13A     -3.072289    14A     -3.071473    15A     -3.071473
      16A     -2.829344    17A     -1.552054    18A     -1.552054
      19A     -1.551869    20A     -0.883368    21A     -0.348351
      22A     -0.330535    23A     -0.330535

  @DF-RHF Final Energy: -2734.40586250362048

   => Energetics <=

    Nuclear Repulsion Energy =             81.0343443306290538
    One-Electron Energy =               -3976.6092870345505617
    Two-Electron Energy =                1161.1690802003008685
    Total Energy =                      -2734.4058625036204830
 Dipole X            :       -170.0379579          166.2875181           -3.7504398
 Dipole Y            :          0.0000000            0.0000000            0.0000000
 Dipole Z            :         -0.0000000            0.0000000           -0.0000000
 Magnitude           :                                                    3.7504398
  Basis Set: (AUG-CC-PVTZ AUX)
    Blend: AUG-CC-PVTZ-RI + DEF2-QZVPP-RI
	 Reference Energy          =   -2734.4058625036204830 [Eh]
	 Singles Energy            =      -0.0000000000000000 [Eh]
	 Same-Spin Energy          =      -0.0910030436781759 [Eh]
	 Opposite-Spin Energy      =      -0.2138333151795120 [Eh]
	 Correlation Energy        =      -0.3048363588576879 [Eh]
	 Total Energy              =   -2734.7106988624782389 [Eh]

	 ================> DF-SCS-MP2 Energies <==================
	-----------------------------------------------------------
	 SCS Same-Spin Scale       =       0.3333333333333333 [-]
	 SCS Opposite-Spin Scale   =       1.2000000000000000 [-]
	 SCS Same-Spin Energy      =      -0.0303343478927253 [Eh]
	 SCS Opposite-Spin Energy  =      -0.2565999782154144 [Eh]
	 SCS Correlation Energy    =      -0.2869343261081397 [Eh]
	 SCS Total Energy          =   -2734.6927968297286498 [Eh]
	-----------------------------------------------------------

*** Psi4 exiting successfully. Buy a developer a beer!
