                               Psi4 1.9 release

  ==> Input File <==

--------------------------------------------------------------------------
MEMORY 60 GB

molecule dimer {
1 1
Na     0.000000     0.000000     0.000000
--
-1 1
Br     2.388451     0.000000     0.000000

units ang
no_reorient
no_com
symmetry c1
}

set {
basis        aug-cc-pVTZ
scf_type     df
}

energy("mp2", bsse_type="cp")
--------------------------------------------------------------------------

                               Psi4 1.9 release
    Molecular point group: c1
  Charge       = -1
  Multiplicity = 1
  Basis Set: AUG-CC-PVTZ
    Blend: AUG-CC-PVTZ
  Basis Set: (AUG-CC-PVTZ AUX)
    Blend: AUG-CC-PVTZ-JKFIT + DEF2-UNIVERSAL-JKFIT
  @DF-RHF Final Energy: -2572.53368850218976
    Total Energy =                      -2572.5336885021897615
 Dipole X            :       -162.4873840          157.9731389           -4.5142451
 Dipole Y            :         -0.0000000            0.0000000           -0.0000000
 Dipole Z            :          0.0000000            0.0000000            0.0000000
 Magnitude           :                                                    4.5142451
  Basis Set: (AUG-CC-PVTZ AUX)
    Blend: AUG-CC-PVTZ-RI + DEF2-QZVPP-RI
	 Reference Energy          =   -2572.5336885021897615 [Eh]
	 Singles Energy            =      -0.0000000000000000 [Eh]
	 Same-Spin Energy          =      -0.0883985400863684 [Eh]
	 Opposite-Spin Energy      =      -0.2048932825669471 [Eh]
	 Correlation Energy        =      -0.2932918226533154 [Eh]
	 Total Energy              =   -2572.8269803248431344 [Eh]
	 SCS Total Energy          =   -2572.8090266212989263 [Eh]
                               Psi4 1.9 release
    Molecular point group: c1
  Multiplicity = 1
  Basis Set: AUG-CC-PVTZ
    Blend: AUG-CC-PVTZ
  Basis Set: (AUG-CC-PVTZ AUX)
    Blend: AUG-CC-PVTZ-JKFIT + DEF2-UNIVERSAL-JKFIT
  @DF-RHF Final Energy:  -161.67603833397507
    Total Energy =                       -161.6760383339750717
  Basis Set: (AUG-CC-PVTZ AUX)
	 Singles Energy            =      -0.0000000000000000 [Eh]
	 Same-Spin Energy          =      -0.0026491079392239 [Eh]
	 Opposite-Spin Energy      =      -0.0098295041892882 [Eh]
	 Correlation Energy        =      -0.0124786121285120 [Eh]
	 Total Energy              =    -161.6885169461035900 [Eh]
	 SCS Total Energy          =    -161.6887167749819696 [Eh]
                               Psi4 1.9 release
    Molecular point group: c1

    Geometry (in Bohr), charge = 0, multiplicity = 1:

       Center              X                  Y                   Z               Mass
    ------------   -----------------  -----------------  -----------------  -----------------
         NA           0.000000000000     0.000000000000     0.000000000000    22.989769282000
         BR           4.513518254076     0.000000000000     0.000000000000    78.918337600000

  Charge       = 0
  Multiplicity = 1
  Basis Set: AUG-CC-PVTZ
    Blend: AUG-CC-PVTZ
  Basis Set: (AUG-CC-PVTZ AUX)
    Blend: AUG-CC-PVTZ-JKFIT + DEF2-UNIVERSAL-JKFIT

    Orbital Energies [Eh]
    ---------------------

    Doubly Occupied:

       1A   -489.912535     2A    -65.053298     3A    -58.407732
       4A    -58.407713     5A    -58.407713     6A    -40.496595
       7A     -9.726246     8A     -7.334200     9A     -7.333427
      10A     -7.333427    11A     -3.075756    12A     -3.075435
      13A     -3.075435    14A     -3.074821    15A     -3.074821
      16A     -2.820794    17A     -1.544445    18A     -1.543028
      19A     -1.543028    20A     -0.889219    21A     -0.353751
      22A     -0.335927    23A     -0.335927

  @DF-RHF Final Energy: -2734.40279142376130

   => Energetics <=

    Nuclear Repulsion Energy =             85.2993116073765236
    One-Electron Energy =               -3985.0936654903148337
    Two-Electron Energy =                1165.3915624591768392
    Total Energy =                      -2734.4027914237613004
 Dipole X            :       -161.5181359          157.9731389           -3.5449970
 Dipole Y            :         -0.0000000            0.0000000           -0.0000000
 Dipole Z            :          0.0000000            0.0000000            0.0000000
 Magnitude           :                                                    3.5449970
  Basis Set: (AUG-CC-PVTZ AUX)
    Blend: AUG-CC-PVTZ-RI + DEF2-QZVPP-RI
	 Reference Energy          =   -2734.4027914237613004 [Eh]
	 Singles Energy            =      -0.0000000000000000 [Eh]
	 Same-Spin Energy          =      -0.0914181900264843 [Eh]
	 Opposite-Spin Energy      =      -0.2145625256505224 [Eh]
	 Correlation Energy        =      -0.3059807156770067 [Eh]
	 Total Energy              =   -2734.7087721394382243 [Eh]

	 ================> DF-SCS-MP2 Energies <==================
	-----------------------------------------------------------
	 SCS Same-Spin Scale       =       0.3333333333333333 [-]
	 SCS Opposite-Spin Scale   =       1.2000000000000000 [-]
	 SCS Same-Spin Energy      =      -0.0304727300088281 [Eh]
	 SCS Opposite-Spin Energy  =      -0.2574750307806269 [Eh]
	 SCS Correlation Energy    =      -0.2879477607894550 [Eh]
	 SCS Total Energy          =   -2734.6907391845506936 [Eh]
	-----------------------------------------------------------

*** Psi4 exiting successfully. Buy a developer a beer!
