                               Psi4 1.9 release

  ==> Input File <==

--------------------------------------------------------------------------
MEMORY 60 GB

molecule dimer {
1 1
Na     0.000000     0.000000     0.000000
--
-1 1
Br     2.262743     0.000000     0.000000

units ang
no_reorient
no_com
symmetry c1
}

set {
basis        aug-cc-pVTZ
scf_type     df
}

energy("mp2", bsse_type="cp")
--------------------------------------------------------------------------

                               Psi4 1.9 release
    Molecular point group: c1
  Charge       = -1
  Multiplicity = 1
  Basis Set: AUG-CC-PVTZ
    Blend: AUG-CC-PVTZ
  Basis Set: (AUG-CC-PVTZ AUX)
    Blend: AUG-CC-PVTZ-JKFIT + DEF2-UNIVERSAL-JKFIT
  @DF-RHF Final Energy: -2572.53368917430907
    Total Energy =                      -2572.5336891743090746
 Dipole X            :       -153.9355752          149.6587597           -4.2768156
 Dipole Y            :          0.0000000            0.0000000            0.0000000
 Dipole Z            :          0.0000000            0.0000000            0.0000000
 Magnitude           :                                                    4.2768156
  Basis Set: (AUG-CC-PVTZ AUX)
    Blend: AUG-CC-PVTZ-RI + DEF2-QZVPP-RI
	 Reference Energy          =   -2572.5336891743090746 [Eh]
	 Singles Energy            =      -0.0000000000000000 [Eh]
	 Same-Spin Energy          =      -0.0885148000532908 [Eh]
	 Opposite-Spin Energy      =      -0.2051536707494786 [Eh]
	 Correlation Energy        =      -0.2936684708027694 [Eh]
	 Total Energy              =   -2572.8273576451119879 [Eh]
	 SCS Total Energy          =   -2572.8093785125597606 [Eh]
                               Psi4 1.9 release
    Molecular point group: c1
  Multiplicity = 1
  Basis Set: AUG-CC-PVTZ
    Blend: AUG-CC-PVTZ
  Basis Set: (AUG-CC-PVTZ AUX)
    Blend: AUG-CC-PVTZ-JKFIT + DEF2-UNIVERSAL-JKFIT
  @DF-RHF Final Energy:  -161.67603961116211
    Total Energy =                       -161.6760396111621105
  Basis Set: (AUG-CC-PVTZ AUX)
	 Singles Energy            =      -0.0000000000000000 [Eh]
	 Same-Spin Energy          =      -0.0029162305834887 [Eh]
	 Opposite-Spin Energy      =      -0.0106241297542594 [Eh]
	 Correlation Energy        =      -0.0135403603377481 [Eh]
	 Total Energy              =    -161.6895799714998532 [Eh]
	 SCS Total Energy          =    -161.6897606437283912 [Eh]
                               Psi4 1.9 release
    Molecular point group: c1

    Geometry (in Bohr), charge = 0, multiplicity = 1:

       Center              X                  Y                   Z               Mass
    ------------   -----------------  -----------------  -----------------  -----------------
         NA           0.000000000000     0.000000000000     0.000000000000    22.989769282000
         BR           4.275964562297     0.000000000000     0.000000000000    78.918337600000

  Charge       = 0
  Multiplicity = 1
  Basis Set: AUG-CC-PVTZ
    Blend: AUG-CC-PVTZ
  Basis Set: (AUG-CC-PVTZ AUX)
    Blend: AUG-CC-PVTZ-JKFIT + DEF2-UNIVERSAL-JKFIT

    Orbital Energies [Eh]
    ---------------------

    Doubly Occupied:

       1A   -489.914728     2A    -65.055916     3A    -58.410304
       4A    -58.410304     5A    -58.410281     6A    -40.484777
       7A     -9.729289     8A     -7.337307     9A     -7.336492
      10A     -7.336492    11A     -3.078720    12A     -3.078397
      13A     -3.078397    14A     -3.077950    15A     -3.077950
      16A     -2.813181    17A     -1.538714    18A     -1.534691
      19A     -1.534691    20A     -0.895033    21A     -0.358004
      22A     -0.341628    23A     -0.341628

  @DF-RHF Final Energy: -2734.39402648992200

   => Energetics <=

    Nuclear Repulsion Energy =             90.0381643465254342
    One-Electron Energy =               -3994.5146389744572843
    Two-Electron Energy =                1170.0824481380097950
    Total Energy =                      -2734.3940264899219983
 Dipole X            :       -153.0089556          149.6587597           -3.3501959
 Dipole Y            :         -0.0000000            0.0000000           -0.0000000
 Dipole Z            :          0.0000000            0.0000000            0.0000000
 Magnitude           :                                                    3.3501959
  Basis Set: (AUG-CC-PVTZ AUX)
    Blend: AUG-CC-PVTZ-RI + DEF2-QZVPP-RI
	 Reference Energy          =   -2734.3940264899219983 [Eh]
	 Singles Energy            =      -0.0000000000000000 [Eh]
	 Same-Spin Energy          =      -0.0919016212255291 [Eh]
	 Opposite-Spin Energy      =      -0.2154968340323855 [Eh]
	 Correlation Energy        =      -0.3073984552579146 [Eh]
	 Total Energy              =   -2734.7014249451799515 [Eh]

	 ================> DF-SCS-MP2 Energies <==================
	-----------------------------------------------------------
	 SCS Same-Spin Scale       =       0.3333333333333333 [-]
	 SCS Opposite-Spin Scale   =       1.2000000000000000 [-]
	 SCS Same-Spin Energy      =      -0.0306338737418430 [Eh]
	 SCS Opposite-Spin Energy  =      -0.2585962008388626 [Eh]
	 SCS Correlation Energy    =      -0.2892300745807056 [Eh]
	 SCS Total Energy          =   -2734.6832565645026989 [Eh]
	-----------------------------------------------------------

*** Psi4 exiting successfully. Buy a developer a beer!
