                               Psi4 1.9 release

  ==> Input File <==

--------------------------------------------------------------------------
MEMORY 60 GB

molecule dimer {
1 1
Na     0.000000     0.000000     0.000000
--
-1 1
Br     3.519823     0.000000     0.000000

units ang
no_reorient
no_com
symmetry c1
}

set {
basis        aug-cc-pVTZ
scf_type     df
}

energy("mp2", bsse_type="cp")
--------------------------------------------------------------------------

                               Psi4 1.9 release
    Molecular point group: c1
  Charge       = -1
  Multiplicity = 1
  Basis Set: AUG-CC-PVTZ
    Blend: AUG-CC-PVTZ
  Basis Set: (AUG-CC-PVTZ AUX)
    Blend: AUG-CC-PVTZ-JKFIT + DEF2-UNIVERSAL-JKFIT
  @DF-RHF Final Energy: -2572.53367572944717
    Total Energy =                      -2572.5336757294471681
 Dipole X            :       -239.4541486          232.8025518           -6.6515968
 Dipole Y            :          0.0000000            0.0000000            0.0000000
 Dipole Z            :          0.0000000            0.0000000            0.0000000
 Magnitude           :                                                    6.6515968
  Basis Set: (AUG-CC-PVTZ AUX)
    Blend: AUG-CC-PVTZ-RI + DEF2-QZVPP-RI
	 Reference Energy          =   -2572.5336757294471681 [Eh]
	 Singles Energy            =      -0.0000000000000000 [Eh]
	 Same-Spin Energy          =      -0.0872924496264254 [Eh]
	 Opposite-Spin Energy      =      -0.2023597854559065 [Eh]
	 Correlation Energy        =      -0.2896522350823319 [Eh]
	 Total Energy              =   -2572.8233279645296534 [Eh]
	 SCS Total Energy          =   -2572.8056049552028526 [Eh]
                               Psi4 1.9 release
    Molecular point group: c1
  Multiplicity = 1
  Basis Set: AUG-CC-PVTZ
    Blend: AUG-CC-PVTZ
  Basis Set: (AUG-CC-PVTZ AUX)
    Blend: AUG-CC-PVTZ-JKFIT + DEF2-UNIVERSAL-JKFIT
  @DF-RHF Final Energy:  -161.67603080531313
    Total Energy =                       -161.6760308053131325
  Basis Set: (AUG-CC-PVTZ AUX)
	 Singles Energy            =      -0.0000000000000000 [Eh]
	 Same-Spin Energy          =      -0.0021189951798515 [Eh]
	 Opposite-Spin Energy      =      -0.0083727380035615 [Eh]
	 Correlation Energy        =      -0.0104917331834130 [Eh]
	 Total Energy              =    -161.6865225384965470 [Eh]
	 SCS Total Energy          =    -161.6867844226440241 [Eh]
                               Psi4 1.9 release
    Molecular point group: c1

    Geometry (in Bohr), charge = 0, multiplicity = 1:

       Center              X                  Y                   Z               Mass
    ------------   -----------------  -----------------  -----------------  -----------------
         NA           0.000000000000     0.000000000000     0.000000000000    22.989769282000
         BR           6.651501480087     0.000000000000     0.000000000000    78.918337600000

  Charge       = 0
  Multiplicity = 1
  Basis Set: AUG-CC-PVTZ
    Blend: AUG-CC-PVTZ
  Basis Set: (AUG-CC-PVTZ AUX)
    Blend: AUG-CC-PVTZ-JKFIT + DEF2-UNIVERSAL-JKFIT

    Orbital Energies [Eh]
    ---------------------

    Doubly Occupied:

       1A   -489.878902     2A    -65.018725     3A    -58.373371
       4A    -58.373105     5A    -58.373105     6A    -40.584297
       7A     -9.690855     8A     -7.298931     9A     -7.297696
      10A     -7.297696    11A     -3.040895    12A     -3.040353
      13A     -3.040353    14A     -3.038744    15A     -3.038744
      16A     -2.897511    17A     -1.620978    18A     -1.620978
      19A     -1.619335    20A     -0.841898    21A     -0.298952
      22A     -0.292726    23A     -0.292726

  @DF-RHF Final Energy: -2734.36968995358302

   => Energetics <=

    Nuclear Repulsion Energy =             57.8816679440841213
    One-Electron Energy =               -3930.7609657367192995
    Two-Electron Energy =                1138.5096078390524781
    Total Energy =                      -2734.3696899535825651
 Dipole X            :       -238.4655869          232.8025518           -5.6630351
 Dipole Y            :          0.0000000            0.0000000            0.0000000
 Dipole Z            :          0.0000000            0.0000000            0.0000000
 Magnitude           :                                                    5.6630351
  Basis Set: (AUG-CC-PVTZ AUX)
    Blend: AUG-CC-PVTZ-RI + DEF2-QZVPP-RI
	 Reference Energy          =   -2734.3696899535830198 [Eh]
	 Singles Energy            =      -0.0000000000000000 [Eh]
	 Same-Spin Energy          =      -0.0896665784848967 [Eh]
	 Opposite-Spin Energy      =      -0.2117034082376714 [Eh]
	 Correlation Energy        =      -0.3013699867225682 [Eh]
	 Total Energy              =   -2734.6710599403054403 [Eh]

	 ================> DF-SCS-MP2 Energies <==================
	-----------------------------------------------------------
	 SCS Same-Spin Scale       =       0.3333333333333333 [-]
	 SCS Opposite-Spin Scale   =       1.2000000000000000 [-]
	 SCS Same-Spin Energy      =      -0.0298888594949656 [Eh]
	 SCS Opposite-Spin Energy  =      -0.2540440898852057 [Eh]
	 SCS Correlation Energy    =      -0.2839329493801712 [Eh]
	 SCS Total Energy          =   -2734.6536229029629794 [Eh]
	-----------------------------------------------------------

*** Psi4 exiting successfully. Buy a developer a beer!
