                               Psi4 1.9 release

  ==> Input File <==

--------------------------------------------------------------------------
MEMORY 60 GB

molecule dimer {
1 1
Na     0.000000     0.000000     0.000000
--
-1 1
Br     2.765575     0.000000     0.000000

units ang
no_reorient
no_com
symmetry c1
}

set {
basis        aug-cc-pVTZ
scf_type     df
}

energy("mp2", bsse_type="cp")
--------------------------------------------------------------------------

                               Psi4 1.9 release
    Molecular point group: c1
  Charge       = -1
  Multiplicity = 1
  Basis Set: AUG-CC-PVTZ
    Blend: AUG-CC-PVTZ
  Basis Set: (AUG-CC-PVTZ AUX)
    Blend: AUG-CC-PVTZ-JKFIT + DEF2-UNIVERSAL-JKFIT
  @DF-RHF Final Energy: -2572.53368373821286
    Total Energy =                      -2572.5336837382128579
 Dipole X            :       -188.1428017          182.9162765           -5.2265251
 Dipole Y            :          0.0000000            0.0000000            0.0000000
 Dipole Z            :         -0.0000000            0.0000000           -0.0000000
 Magnitude           :                                                    5.2265251
  Basis Set: (AUG-CC-PVTZ AUX)
    Blend: AUG-CC-PVTZ-RI + DEF2-QZVPP-RI
	 Reference Energy          =   -2572.5336837382128579 [Eh]
	 Singles Energy            =      -0.0000000000000000 [Eh]
	 Same-Spin Energy          =      -0.0878972510464569 [Eh]
	 Opposite-Spin Energy      =      -0.2037828678133567 [Eh]
	 Correlation Energy        =      -0.2916801188598137 [Eh]
	 Total Energy              =   -2572.8253638570727162 [Eh]
	 SCS Total Energy          =   -2572.8075222632710393 [Eh]
                               Psi4 1.9 release
    Molecular point group: c1
  Multiplicity = 1
  Basis Set: AUG-CC-PVTZ
    Blend: AUG-CC-PVTZ
  Basis Set: (AUG-CC-PVTZ AUX)
    Blend: AUG-CC-PVTZ-JKFIT + DEF2-UNIVERSAL-JKFIT
  @DF-RHF Final Energy:  -161.67603405443029
    Total Energy =                       -161.6760340544302608
  Basis Set: (AUG-CC-PVTZ AUX)
	 Singles Energy            =      -0.0000000000000000 [Eh]
	 Same-Spin Energy          =      -0.0023167131587127 [Eh]
	 Opposite-Spin Energy      =      -0.0089508889962123 [Eh]
	 Correlation Energy        =      -0.0112676021549251 [Eh]
	 Total Energy              =    -161.6873016565852197 [Eh]
	 SCS Total Energy          =    -161.6875473589453236 [Eh]
                               Psi4 1.9 release
    Molecular point group: c1

    Geometry (in Bohr), charge = 0, multiplicity = 1:

       Center              X                  Y                   Z               Mass
    ------------   -----------------  -----------------  -----------------  -----------------
         NA           0.000000000000     0.000000000000     0.000000000000    22.989769282000
         BR           5.226179329413     0.000000000000     0.000000000000    78.918337600000

  Charge       = 0
  Multiplicity = 1
  Basis Set: AUG-CC-PVTZ
    Blend: AUG-CC-PVTZ
  Basis Set: (AUG-CC-PVTZ AUX)
    Blend: AUG-CC-PVTZ-JKFIT + DEF2-UNIVERSAL-JKFIT

    Orbital Energies [Eh]
    ---------------------

    Doubly Occupied:

       1A   -489.903518     2A    -65.043579     3A    -58.398157
       4A    -58.397999     5A    -58.397999     6A    -40.529964
       7A     -9.715869     8A     -7.323859     9A     -7.322880
      10A     -7.322880    11A     -3.065695    12A     -3.065260
      13A     -3.065260    14A     -3.064067    15A     -3.064067
      16A     -2.847327    17A     -1.570545    18A     -1.570545
      19A     -1.568938    20A     -0.872020    21A     -0.335896
      22A     -0.320365    23A     -0.320365

  @DF-RHF Final Energy: -2734.40233013906982

   => Energetics <=

    Nuclear Repulsion Energy =             73.6675830913824399
    One-Electron Energy =               -3961.9657240784677015
    Two-Electron Energy =                1153.8958108480157989
    Total Energy =                      -2734.4023301390698180
 Dipole X            :       -187.1052906          182.9162765           -4.1890141
 Dipole Y            :          0.0000000            0.0000000            0.0000000
 Dipole Z            :         -0.0000000            0.0000000           -0.0000000
 Magnitude           :                                                    4.1890141
  Basis Set: (AUG-CC-PVTZ AUX)
    Blend: AUG-CC-PVTZ-RI + DEF2-QZVPP-RI
	 Reference Energy          =   -2734.4023301390698180 [Eh]
	 Singles Energy            =      -0.0000000000000000 [Eh]
	 Same-Spin Energy          =      -0.0904649718143611 [Eh]
	 Opposite-Spin Energy      =      -0.2130678241613000 [Eh]
	 Correlation Energy        =      -0.3035327959756611 [Eh]
	 Total Energy              =   -2734.7058629350453884 [Eh]

	 ================> DF-SCS-MP2 Energies <==================
	-----------------------------------------------------------
	 SCS Same-Spin Scale       =       0.3333333333333333 [-]
	 SCS Opposite-Spin Scale   =       1.2000000000000000 [-]
	 SCS Same-Spin Energy      =      -0.0301549906047870 [Eh]
	 SCS Opposite-Spin Energy  =      -0.2556813889935600 [Eh]
	 SCS Correlation Energy    =      -0.2858363795983470 [Eh]
	 SCS Total Energy          =   -2734.6881665186683676 [Eh]
	-----------------------------------------------------------

*** Psi4 exiting successfully. Buy a developer a beer!
