                               Psi4 1.9 release

  ==> Input File <==

--------------------------------------------------------------------------
MEMORY 60 GB

molecule dimer {
1 1
Na     0.000000     0.000000     0.000000
--
-1 1
Br     5.028318     0.000000     0.000000

units ang
no_reorient
no_com
symmetry c1
}

set {
basis        aug-cc-pVTZ
scf_type     df
}

energy("mp2", bsse_type="cp")
--------------------------------------------------------------------------

                               Psi4 1.9 release
    Molecular point group: c1
  Charge       = -1
  Multiplicity = 1
  Basis Set: AUG-CC-PVTZ
    Blend: AUG-CC-PVTZ
  Basis Set: (AUG-CC-PVTZ AUX)
    Blend: AUG-CC-PVTZ-JKFIT + DEF2-UNIVERSAL-JKFIT
  @DF-RHF Final Energy: -2572.53367024868840
    Total Energy =                      -2572.5336702486883951
 Dipole X            :       -342.0773684          332.5750362           -9.5023322
 Dipole Y            :         -0.0000000            0.0000000           -0.0000000
 Dipole Z            :          0.0000000            0.0000000            0.0000000
 Magnitude           :                                                    9.5023322
  Basis Set: (AUG-CC-PVTZ AUX)
    Blend: AUG-CC-PVTZ-RI + DEF2-QZVPP-RI
	 Reference Energy          =   -2572.5336702486883951 [Eh]
	 Singles Energy            =      -0.0000000000000000 [Eh]
	 Same-Spin Energy          =      -0.0869255566552488 [Eh]
	 Opposite-Spin Energy      =      -0.2015219682340142 [Eh]
	 Correlation Energy        =      -0.2884475248892631 [Eh]
	 Total Energy              =   -2572.8221177735777019 [Eh]
	 SCS Total Energy          =   -2572.8044717961211063 [Eh]
                               Psi4 1.9 release
    Molecular point group: c1
  Multiplicity = 1
  Basis Set: AUG-CC-PVTZ
    Blend: AUG-CC-PVTZ
  Basis Set: (AUG-CC-PVTZ AUX)
    Blend: AUG-CC-PVTZ-JKFIT + DEF2-UNIVERSAL-JKFIT
  @DF-RHF Final Energy:  -161.67602482754921
    Total Energy =                       -161.6760248275492415
  Basis Set: (AUG-CC-PVTZ AUX)
	 Singles Energy            =      -0.0000000000000000 [Eh]
	 Same-Spin Energy          =      -0.0019334439783351 [Eh]
	 Opposite-Spin Energy      =      -0.0078452251442622 [Eh]
	 Correlation Energy        =      -0.0097786691225973 [Eh]
	 Total Energy              =    -161.6858034966718094 [Eh]
	 SCS Total Energy          =    -161.6860835790484430 [Eh]
                               Psi4 1.9 release
    Molecular point group: c1

    Geometry (in Bohr), charge = 0, multiplicity = 1:

       Center              X                  Y                   Z               Mass
    ------------   -----------------  -----------------  -----------------  -----------------
         NA           0.000000000000     0.000000000000     0.000000000000    22.989769282000
         BR           9.502143891710     0.000000000000     0.000000000000    78.918337600000

  Charge       = 0
  Multiplicity = 1
  Basis Set: AUG-CC-PVTZ
    Blend: AUG-CC-PVTZ
  Basis Set: (AUG-CC-PVTZ AUX)
    Blend: AUG-CC-PVTZ-JKFIT + DEF2-UNIVERSAL-JKFIT

    Orbital Energies [Eh]
    ---------------------

    Doubly Occupied:

       1A   -489.832968     2A    -64.972964     3A    -58.327527
       4A    -58.327371     5A    -58.327371     6A    -40.648879
       7A     -9.645286     8A     -7.253055     9A     -7.252335
      10A     -7.252335    11A     -2.994872    12A     -2.994570
      13A     -2.994570    14A     -2.993648    15A     -2.993648
      16A     -2.960603    17A     -1.683904    18A     -1.683904
      19A     -1.683280    20A     -0.796813    21A     -0.249424
      22A     -0.249277    23A     -0.249277

  @DF-RHF Final Energy: -2734.31857177762822

   => Energetics <=

    Nuclear Repulsion Energy =             40.5171721653145269
    One-Electron Energy =               -3896.9357204095986162
    Two-Electron Energy =                1122.0999764666557894
    Total Energy =                      -2734.3185717776282218
 Dipole X            :       -341.4501097          332.5750362           -8.8750735
 Dipole Y            :         -0.0000000            0.0000000           -0.0000000
 Dipole Z            :          0.0000000            0.0000000            0.0000000
 Magnitude           :                                                    8.8750735
  Basis Set: (AUG-CC-PVTZ AUX)
    Blend: AUG-CC-PVTZ-RI + DEF2-QZVPP-RI
	 Reference Energy          =   -2734.3185717776282218 [Eh]
	 Singles Energy            =      -0.0000000000000000 [Eh]
	 Same-Spin Energy          =      -0.0890511168066417 [Eh]
	 Opposite-Spin Energy      =      -0.2099778878443564 [Eh]
	 Correlation Energy        =      -0.2990290046509981 [Eh]
	 Total Energy              =   -2734.6176007822791689 [Eh]

	 ================> DF-SCS-MP2 Energies <==================
	-----------------------------------------------------------
	 SCS Same-Spin Scale       =       0.3333333333333333 [-]
	 SCS Opposite-Spin Scale   =       1.2000000000000000 [-]
	 SCS Same-Spin Energy      =      -0.0296837056022139 [Eh]
	 SCS Opposite-Spin Energy  =      -0.2519734654132277 [Eh]
	 SCS Correlation Energy    =      -0.2816571710154416 [Eh]
	 SCS Total Energy          =   -2734.6002289486436894 [Eh]
	-----------------------------------------------------------

*** Psi4 exiting successfully. Buy a developer a beer!
