                               Psi4 1.9 release

  ==> Input File <==

--------------------------------------------------------------------------
MEMORY 60 GB

molecule dimer {
1 1
K     0.000000     0.000000     0.000000
--
-1 1
F     3.262770     0.000000     0.000000

units ang
no_reorient
no_com
symmetry c1
}

set {
basis        aug-cc-pVTZ
scf_type     df
}

energy("mp2", bsse_type="cp")
--------------------------------------------------------------------------

                               Psi4 1.9 release
    Molecular point group: c1
  Charge       = -1
  Multiplicity = 1
  Basis Set: AUG-CC-PVTZ
    Blend: AUG-CC-PVTZ
  Basis Set: (AUG-CC-PVTZ AUX)
    Blend: AUG-CC-PVTZ-JKFIT + DEF2-UNIVERSAL-JKFIT
  @DF-RHF Final Energy:   -99.45082480731458
    Total Energy =                        -99.4508248073145751
 Dipole X            :        -61.6573200           55.4916754           -6.1656446
 Dipole Y            :          0.0000000            0.0000000            0.0000000
 Dipole Z            :         -0.0000000            0.0000000           -0.0000000
 Magnitude           :                                                    6.1656446
  Basis Set: (AUG-CC-PVTZ AUX)
    Blend: AUG-CC-PVTZ-RI + DEF2-QZVPP-RI
	 Reference Energy          =     -99.4508248073145751 [Eh]
	 Singles Energy            =      -0.0000000000000000 [Eh]
	 Same-Spin Energy          =      -0.0816109859089127 [Eh]
	 Opposite-Spin Energy      =      -0.2265640350812695 [Eh]
	 Correlation Energy        =      -0.3081750209901823 [Eh]
	 Total Energy              =     -99.7589998283047521 [Eh]
	 SCS Total Energy          =     -99.7499053113817382 [Eh]
                               Psi4 1.9 release
    Molecular point group: c1
  Multiplicity = 1
  Basis Set: AUG-CC-PVTZ
    Blend: AUG-CC-PVTZ
  Basis Set: (AUG-CC-PVTZ AUX)
    Blend: AUG-CC-PVTZ-JKFIT + DEF2-UNIVERSAL-JKFIT
  @DF-RHF Final Energy:  -599.01750661445408
    Total Energy =                       -599.0175066144540779
  Basis Set: (AUG-CC-PVTZ AUX)
	 Singles Energy            =      -0.0000000000000000 [Eh]
	 Same-Spin Energy          =      -0.0256102132013454 [Eh]
	 Opposite-Spin Energy      =      -0.0586090331970662 [Eh]
	 Correlation Energy        =      -0.0842192463984116 [Eh]
	 Total Energy              =    -599.1017258608525253 [Eh]
	 SCS Total Energy          =    -599.0963741920243137 [Eh]
                               Psi4 1.9 release
    Molecular point group: c1

    Geometry (in Bohr), charge = 0, multiplicity = 1:

       Center              X                  Y                   Z               Mass
    ------------   -----------------  -----------------  -----------------  -----------------
         K            0.000000000000     0.000000000000     0.000000000000    38.963706486400
         F            6.165741710360     0.000000000000     0.000000000000    18.998403162730

  Charge       = 0
  Multiplicity = 1
  Basis Set: AUG-CC-PVTZ
    Blend: AUG-CC-PVTZ
  Basis Set: (AUG-CC-PVTZ AUX)
    Blend: AUG-CC-PVTZ-JKFIT + DEF2-UNIVERSAL-JKFIT

    Orbital Energies [Eh]
    ---------------------

    Doubly Occupied:

       1A   -133.584544     2A    -26.000798     3A    -14.540048
       4A    -11.570145     5A    -11.570145     6A    -11.569944
       7A     -1.795645     8A     -1.242815     9A     -1.004181
      10A     -1.004181    11A     -0.998385    12A     -0.347622
      13A     -0.347598    14A     -0.347598

  @DF-RHF Final Energy:  -698.63416970637252

   => Energetics <=

    Nuclear Repulsion Energy =             27.7338896166662074
    One-Electron Energy =               -1020.8888216188593105
    Two-Electron Energy =                 294.5207622958205320
    Total Energy =                       -698.6341697063725178
 Dipole X            :        -61.2723306           55.4916754           -5.7806552
 Dipole Y            :          0.0000000            0.0000000            0.0000000
 Dipole Z            :         -0.0000000            0.0000000           -0.0000000
 Magnitude           :                                                    5.7806552
  Basis Set: (AUG-CC-PVTZ AUX)
    Blend: AUG-CC-PVTZ-RI + DEF2-QZVPP-RI
	 Reference Energy          =    -698.6341697063725178 [Eh]
	 Singles Energy            =      -0.0000000000000000 [Eh]
	 Same-Spin Energy          =      -0.1076694679752803 [Eh]
	 Opposite-Spin Energy      =      -0.2858740721701863 [Eh]
	 Correlation Energy        =      -0.3935435401454666 [Eh]
	 Total Energy              =    -699.0277132465180330 [Eh]

	 ================> DF-SCS-MP2 Energies <==================
	-----------------------------------------------------------
	 SCS Same-Spin Scale       =       0.3333333333333333 [-]
	 SCS Opposite-Spin Scale   =       1.2000000000000000 [-]
	 SCS Same-Spin Energy      =      -0.0358898226584268 [Eh]
	 SCS Opposite-Spin Energy  =      -0.3430488866042236 [Eh]
	 SCS Correlation Energy    =      -0.3789387092626503 [Eh]
	 SCS Total Energy          =    -699.0131084156352017 [Eh]
	-----------------------------------------------------------

*** Psi4 exiting successfully. Buy a developer a beer!
