                               Psi4 1.9 release

  ==> Input File <==

--------------------------------------------------------------------------
MEMORY 60 GB

molecule dimer {
1 1
K     0.000000     0.000000     0.000000
--
-1 1
F     2.392698     0.000000     0.000000

units ang
no_reorient
no_com
symmetry c1
}

set {
basis        aug-cc-pVTZ
scf_type     df
}

energy("mp2", bsse_type="cp")
--------------------------------------------------------------------------

                               Psi4 1.9 release
    Molecular point group: c1
  Charge       = -1
  Multiplicity = 1
  Basis Set: AUG-CC-PVTZ
    Blend: AUG-CC-PVTZ
  Basis Set: (AUG-CC-PVTZ AUX)
    Blend: AUG-CC-PVTZ-JKFIT + DEF2-UNIVERSAL-JKFIT
  @DF-RHF Final Energy:   -99.45083360731678
    Total Energy =                        -99.4508336073167953
 Dipole X            :        -45.2149417           40.6938953           -4.5210464
 Dipole Y            :          0.0000000            0.0000000            0.0000000
 Dipole Z            :          0.0000000            0.0000000            0.0000000
 Magnitude           :                                                    4.5210464
  Basis Set: (AUG-CC-PVTZ AUX)
    Blend: AUG-CC-PVTZ-RI + DEF2-QZVPP-RI
	 Reference Energy          =     -99.4508336073167811 [Eh]
	 Singles Energy            =      -0.0000000000000000 [Eh]
	 Same-Spin Energy          =      -0.0816368283018060 [Eh]
	 Opposite-Spin Energy      =      -0.2267325876422928 [Eh]
	 Correlation Energy        =      -0.3083694159440988 [Eh]
	 Total Energy              =     -99.7592030232608806 [Eh]
	 SCS Total Energy          =     -99.7501249885881407 [Eh]
                               Psi4 1.9 release
    Molecular point group: c1
  Multiplicity = 1
  Basis Set: AUG-CC-PVTZ
    Blend: AUG-CC-PVTZ
  Basis Set: (AUG-CC-PVTZ AUX)
    Blend: AUG-CC-PVTZ-JKFIT + DEF2-UNIVERSAL-JKFIT
  @DF-RHF Final Energy:  -599.01750745884294
    Total Energy =                       -599.0175074588428288
  Basis Set: (AUG-CC-PVTZ AUX)
	 Singles Energy            =      -0.0000000000000000 [Eh]
	 Same-Spin Energy          =      -0.0269101823693271 [Eh]
	 Opposite-Spin Energy      =      -0.0626205074460270 [Eh]
	 Correlation Energy        =      -0.0895306898153541 [Eh]
	 Total Energy              =    -599.1070381486582619 [Eh]
	 SCS Total Energy          =    -599.1016221285678967 [Eh]
                               Psi4 1.9 release
    Molecular point group: c1

    Geometry (in Bohr), charge = 0, multiplicity = 1:

       Center              X                  Y                   Z               Mass
    ------------   -----------------  -----------------  -----------------  -----------------
         K            0.000000000000     0.000000000000     0.000000000000    38.963706486400
         F            4.521543920931     0.000000000000     0.000000000000    18.998403162730

  Charge       = 0
  Multiplicity = 1
  Basis Set: AUG-CC-PVTZ
    Blend: AUG-CC-PVTZ
  Basis Set: (AUG-CC-PVTZ AUX)
    Blend: AUG-CC-PVTZ-JKFIT + DEF2-UNIVERSAL-JKFIT

    Orbital Energies [Eh]
    ---------------------

    Doubly Occupied:

       1A   -133.517999     2A    -26.044796     3A    -14.474232
       4A    -11.504255     5A    -11.504255     6A    -11.503909
       7A     -1.733483     8A     -1.298128     9A     -0.944312
      10A     -0.944312    11A     -0.933686    12A     -0.405052
      13A     -0.398352    14A     -0.398352

  @DF-RHF Final Energy:  -698.68058043859889

   => Energetics <=

    Nuclear Repulsion Energy =             37.8189403863630105
    One-Electron Energy =               -1041.7887980207487999
    Two-Electron Energy =                 305.2892771957868945
    Total Energy =                       -698.6805804385988949
 Dipole X            :        -44.6667077           40.6938953           -3.9728124
 Dipole Y            :          0.0000000            0.0000000            0.0000000
 Dipole Z            :         -0.0000000            0.0000000           -0.0000000
 Magnitude           :                                                    3.9728124
  Basis Set: (AUG-CC-PVTZ AUX)
    Blend: AUG-CC-PVTZ-RI + DEF2-QZVPP-RI
	 Reference Energy          =    -698.6805804385988949 [Eh]
	 Singles Energy            =      -0.0000000000000000 [Eh]
	 Same-Spin Energy          =      -0.1090900362666085 [Eh]
	 Opposite-Spin Energy      =      -0.2887015791817573 [Eh]
	 Correlation Energy        =      -0.3977916154483658 [Eh]
	 Total Energy              =    -699.0783720540472359 [Eh]

	 ================> DF-SCS-MP2 Energies <==================
	-----------------------------------------------------------
	 SCS Same-Spin Scale       =       0.3333333333333333 [-]
	 SCS Opposite-Spin Scale   =       1.2000000000000000 [-]
	 SCS Same-Spin Energy      =      -0.0363633454222028 [Eh]
	 SCS Opposite-Spin Energy  =      -0.3464418950181088 [Eh]
	 SCS Correlation Energy    =      -0.3828052404403116 [Eh]
	 SCS Total Energy          =    -699.0633856790392429 [Eh]
	-----------------------------------------------------------

*** Psi4 exiting successfully. Buy a developer a beer!
