                               Psi4 1.9 release

  ==> Input File <==

--------------------------------------------------------------------------
MEMORY 60 GB

molecule dimer {
1 1
K     0.000000     0.000000     0.000000
--
-1 1
F     1.740144     0.000000     0.000000

units ang
no_reorient
no_com
symmetry c1
}

set {
basis        aug-cc-pVTZ
scf_type     df
}

energy("mp2", bsse_type="cp")
--------------------------------------------------------------------------

                               Psi4 1.9 release
    Molecular point group: c1
  Charge       = -1
  Multiplicity = 1
  Basis Set: AUG-CC-PVTZ
    Blend: AUG-CC-PVTZ
  Basis Set: (AUG-CC-PVTZ AUX)
    Blend: AUG-CC-PVTZ-JKFIT + DEF2-UNIVERSAL-JKFIT
  @DF-RHF Final Energy:   -99.45084315064773
    Total Energy =                        -99.4508431506477280
 Dipole X            :        -32.8856172           29.5955602           -3.2900570
 Dipole Y            :          0.0000000            0.0000000            0.0000000
 Dipole Z            :         -0.0000000            0.0000000           -0.0000000
 Magnitude           :                                                    3.2900570
  Basis Set: (AUG-CC-PVTZ AUX)
    Blend: AUG-CC-PVTZ-RI + DEF2-QZVPP-RI
	 Reference Energy          =     -99.4508431506477280 [Eh]
	 Singles Energy            =      -0.0000000000000000 [Eh]
	 Same-Spin Energy          =      -0.0816737593053410 [Eh]
	 Opposite-Spin Energy      =      -0.2269977666172414 [Eh]
	 Correlation Energy        =      -0.3086715259225823 [Eh]
	 Total Energy              =     -99.7595146765703049 [Eh]
	 SCS Total Energy          =     -99.7504650570235327 [Eh]
                               Psi4 1.9 release
    Molecular point group: c1
  Multiplicity = 1
  Basis Set: AUG-CC-PVTZ
    Blend: AUG-CC-PVTZ
  Basis Set: (AUG-CC-PVTZ AUX)
    Blend: AUG-CC-PVTZ-JKFIT + DEF2-UNIVERSAL-JKFIT
  @DF-RHF Final Energy:  -599.01750850576013
    Total Energy =                       -599.0175085057601336
  Basis Set: (AUG-CC-PVTZ AUX)
	 Singles Energy            =      -0.0000000000000000 [Eh]
	 Same-Spin Energy          =      -0.0293656016249175 [Eh]
	 Opposite-Spin Energy      =      -0.0709484460703907 [Eh]
	 Correlation Energy        =      -0.1003140476953081 [Eh]
	 Total Energy              =    -599.1178225534554258 [Eh]
	 SCS Total Energy          =    -599.1124351749195966 [Eh]
                               Psi4 1.9 release
    Molecular point group: c1

    Geometry (in Bohr), charge = 0, multiplicity = 1:

       Center              X                  Y                   Z               Mass
    ------------   -----------------  -----------------  -----------------  -----------------
         K            0.000000000000     0.000000000000     0.000000000000    38.963706486400
         F            3.288395578859     0.000000000000     0.000000000000    18.998403162730

  Charge       = 0
  Multiplicity = 1
  Basis Set: AUG-CC-PVTZ
    Blend: AUG-CC-PVTZ
  Basis Set: (AUG-CC-PVTZ AUX)
    Blend: AUG-CC-PVTZ-JKFIT + DEF2-UNIVERSAL-JKFIT

    Orbital Energies [Eh]
    ---------------------

    Doubly Occupied:

       1A   -133.410572     2A    -26.091345     3A    -14.372947
       4A    -11.402676     5A    -11.401802     6A    -11.401802
       7A     -1.674184     8A     -1.392398     9A     -0.873009
      10A     -0.873009    11A     -0.869850    12A     -0.475089
      13A     -0.475089    14A     -0.425026

  @DF-RHF Final Energy:  -698.61168656526615

   => Energetics <=

    Nuclear Repulsion Energy =             52.0010430312491394
    One-Electron Energy =               -1070.9478607201567684
    Two-Electron Energy =                 320.3351311236415313
    Total Energy =                       -698.6116865652661545
 Dipole X            :        -31.9438379           29.5955602           -2.3482777
 Dipole Y            :          0.0000000            0.0000000            0.0000000
 Dipole Z            :          0.0000000            0.0000000            0.0000000
 Magnitude           :                                                    2.3482777
  Basis Set: (AUG-CC-PVTZ AUX)
    Blend: AUG-CC-PVTZ-RI + DEF2-QZVPP-RI
	 Reference Energy          =    -698.6116865652661545 [Eh]
	 Singles Energy            =      -0.0000000000000000 [Eh]
	 Same-Spin Energy          =      -0.1147269759900400 [Eh]
	 Opposite-Spin Energy      =      -0.2964827572258262 [Eh]
	 Correlation Energy        =      -0.4112097332158662 [Eh]
	 Total Energy              =    -699.0228962984820100 [Eh]

	 ================> DF-SCS-MP2 Energies <==================
	-----------------------------------------------------------
	 SCS Same-Spin Scale       =       0.3333333333333333 [-]
	 SCS Opposite-Spin Scale   =       1.2000000000000000 [-]
	 SCS Same-Spin Energy      =      -0.0382423253300133 [Eh]
	 SCS Opposite-Spin Energy  =      -0.3557793086709914 [Eh]
	 SCS Correlation Energy    =      -0.3940216340010048 [Eh]
	 SCS Total Energy          =    -699.0057081992671328 [Eh]
	-----------------------------------------------------------

*** Psi4 exiting successfully. Buy a developer a beer!
