                               Psi4 1.9 release

  ==> Input File <==

--------------------------------------------------------------------------
MEMORY 60 GB

molecule dimer {
1 1
K     0.000000     0.000000     0.000000
--
-1 1
F     3.045252     0.000000     0.000000

units ang
no_reorient
no_com
symmetry c1
}

set {
basis        aug-cc-pVTZ
scf_type     df
}

energy("mp2", bsse_type="cp")
--------------------------------------------------------------------------

                               Psi4 1.9 release
    Molecular point group: c1
  Charge       = -1
  Multiplicity = 1
  Basis Set: AUG-CC-PVTZ
    Blend: AUG-CC-PVTZ
  Basis Set: (AUG-CC-PVTZ AUX)
    Blend: AUG-CC-PVTZ-JKFIT + DEF2-UNIVERSAL-JKFIT
  @DF-RHF Final Energy:   -99.45082656596458
    Total Energy =                        -99.4508265659645758
 Dipole X            :        -57.5468062           51.7922304           -5.7545758
 Dipole Y            :         -0.0000000            0.0000000           -0.0000000
 Dipole Z            :          0.0000000            0.0000000            0.0000000
 Magnitude           :                                                    5.7545758
  Basis Set: (AUG-CC-PVTZ AUX)
    Blend: AUG-CC-PVTZ-RI + DEF2-QZVPP-RI
	 Reference Energy          =     -99.4508265659645758 [Eh]
	 Singles Energy            =      -0.0000000000000000 [Eh]
	 Same-Spin Energy          =      -0.0816171026005493 [Eh]
	 Opposite-Spin Energy      =      -0.2266176638781977 [Eh]
	 Correlation Energy        =      -0.3082347664787470 [Eh]
	 Total Energy              =     -99.7590613324433235 [Eh]
	 SCS Total Energy          =     -99.7499734634852615 [Eh]
                               Psi4 1.9 release
    Molecular point group: c1
  Multiplicity = 1
  Basis Set: AUG-CC-PVTZ
    Blend: AUG-CC-PVTZ
  Basis Set: (AUG-CC-PVTZ AUX)
    Blend: AUG-CC-PVTZ-JKFIT + DEF2-UNIVERSAL-JKFIT
  @DF-RHF Final Energy:  -599.01750670754791
    Total Energy =                       -599.0175067075479092
  Basis Set: (AUG-CC-PVTZ AUX)
	 Singles Energy            =      -0.0000000000000000 [Eh]
	 Same-Spin Energy          =      -0.0257993373321708 [Eh]
	 Opposite-Spin Energy      =      -0.0590553135835401 [Eh]
	 Correlation Energy        =      -0.0848546509157109 [Eh]
	 Total Energy              =    -599.1023613584636678 [Eh]
	 SCS Total Energy          =    -599.0969728629588644 [Eh]
                               Psi4 1.9 release
    Molecular point group: c1

    Geometry (in Bohr), charge = 0, multiplicity = 1:

       Center              X                  Y                   Z               Mass
    ------------   -----------------  -----------------  -----------------  -----------------
         K            0.000000000000     0.000000000000     0.000000000000    38.963706486400
         F            5.754692263003     0.000000000000     0.000000000000    18.998403162730

  Charge       = 0
  Multiplicity = 1
  Basis Set: AUG-CC-PVTZ
    Blend: AUG-CC-PVTZ
  Basis Set: (AUG-CC-PVTZ AUX)
    Blend: AUG-CC-PVTZ-JKFIT + DEF2-UNIVERSAL-JKFIT

    Orbital Energies [Eh]
    ---------------------

    Doubly Occupied:

       1A   -133.571909     2A    -26.010983     3A    -14.527417
       4A    -11.557518     5A    -11.557518     6A    -11.557283
       7A     -1.783188     8A     -1.253885     9A     -0.992158
      10A     -0.992158    11A     -0.985212    12A     -0.359710
      13A     -0.358271    14A     -0.358271

  @DF-RHF Final Energy:  -698.64558738205585

   => Energetics <=

    Nuclear Repulsion Energy =             29.7148817321423664
    One-Electron Energy =               -1024.9899740026207837
    Two-Electron Energy =                 296.6295048884225025
    Total Energy =                       -698.6455873820559646
 Dipole X            :        -57.1293683           51.7922304           -5.3371379
 Dipole Y            :         -0.0000000            0.0000000           -0.0000000
 Dipole Z            :         -0.0000000            0.0000000           -0.0000000
 Magnitude           :                                                    5.3371379
  Basis Set: (AUG-CC-PVTZ AUX)
    Blend: AUG-CC-PVTZ-RI + DEF2-QZVPP-RI
	 Reference Energy          =    -698.6455873820558509 [Eh]
	 Singles Energy            =      -0.0000000000000000 [Eh]
	 Same-Spin Energy          =      -0.1078402136435833 [Eh]
	 Opposite-Spin Energy      =      -0.2861903421692090 [Eh]
	 Correlation Energy        =      -0.3940305558127922 [Eh]
	 Total Energy              =    -699.0396179378686838 [Eh]

	 ================> DF-SCS-MP2 Energies <==================
	-----------------------------------------------------------
	 SCS Same-Spin Scale       =       0.3333333333333333 [-]
	 SCS Opposite-Spin Scale   =       1.2000000000000000 [-]
	 SCS Same-Spin Energy      =      -0.0359467378811944 [Eh]
	 SCS Opposite-Spin Energy  =      -0.3434284106030507 [Eh]
	 SCS Correlation Energy    =      -0.3793751484842451 [Eh]
	 SCS Total Energy          =    -699.0249625305400514 [Eh]
	-----------------------------------------------------------

*** Psi4 exiting successfully. Buy a developer a beer!
