                               Psi4 1.9 release

  ==> Input File <==

--------------------------------------------------------------------------
MEMORY 60 GB

molecule dimer {
1 1
K     0.000000     0.000000     0.000000
--
-1 1
F     2.066421     0.000000     0.000000

units ang
no_reorient
no_com
symmetry c1
}

set {
basis        aug-cc-pVTZ
scf_type     df
}

energy("mp2", bsse_type="cp")
--------------------------------------------------------------------------

                               Psi4 1.9 release
    Molecular point group: c1
  Charge       = -1
  Multiplicity = 1
  Basis Set: AUG-CC-PVTZ
    Blend: AUG-CC-PVTZ
  Basis Set: (AUG-CC-PVTZ AUX)
    Blend: AUG-CC-PVTZ-JKFIT + DEF2-UNIVERSAL-JKFIT
  @DF-RHF Final Energy:   -99.45084495972709
    Total Energy =                        -99.4508449597270783
 Dipole X            :        -39.0497230           35.1447277           -3.9049952
 Dipole Y            :          0.0000000            0.0000000            0.0000000
 Dipole Z            :         -0.0000000            0.0000000           -0.0000000
 Magnitude           :                                                    3.9049952
  Basis Set: (AUG-CC-PVTZ AUX)
    Blend: AUG-CC-PVTZ-RI + DEF2-QZVPP-RI
	 Reference Energy          =     -99.4508449597270925 [Eh]
	 Singles Energy            =      -0.0000000000000000 [Eh]
	 Same-Spin Energy          =      -0.0816520055129769 [Eh]
	 Opposite-Spin Energy      =      -0.2268190357690231 [Eh]
	 Correlation Energy        =      -0.3084710412820000 [Eh]
	 Total Energy              =     -99.7593160010090969 [Eh]
	 SCS Total Energy          =     -99.7502451378209116 [Eh]
                               Psi4 1.9 release
    Molecular point group: c1
  Multiplicity = 1
  Basis Set: AUG-CC-PVTZ
    Blend: AUG-CC-PVTZ
  Basis Set: (AUG-CC-PVTZ AUX)
    Blend: AUG-CC-PVTZ-JKFIT + DEF2-UNIVERSAL-JKFIT
  @DF-RHF Final Energy:  -599.01750795764303
    Total Energy =                       -599.0175079576429198
  Basis Set: (AUG-CC-PVTZ AUX)
	 Singles Energy            =      -0.0000000000000000 [Eh]
	 Same-Spin Energy          =      -0.0277782534187630 [Eh]
	 Opposite-Spin Energy      =      -0.0656650376918966 [Eh]
	 Correlation Energy        =      -0.0934432911106596 [Eh]
	 Total Energy              =    -599.1109512487537359 [Eh]
	 SCS Total Energy          =    -599.1055654206795680 [Eh]
                               Psi4 1.9 release
    Molecular point group: c1

    Geometry (in Bohr), charge = 0, multiplicity = 1:

       Center              X                  Y                   Z               Mass
    ------------   -----------------  -----------------  -----------------  -----------------
         K            0.000000000000     0.000000000000     0.000000000000    38.963706486400
         F            3.904969749895     0.000000000000     0.000000000000    18.998403162730

  Charge       = 0
  Multiplicity = 1
  Basis Set: AUG-CC-PVTZ
    Blend: AUG-CC-PVTZ
  Basis Set: (AUG-CC-PVTZ AUX)
    Blend: AUG-CC-PVTZ-JKFIT + DEF2-UNIVERSAL-JKFIT

    Orbital Energies [Eh]
    ---------------------

    Doubly Occupied:

       1A   -133.472393     2A    -26.063955     3A    -14.430992
       4A    -11.460689     5A    -11.460689     6A    -11.460519
       7A     -1.699805     8A     -1.334596     9A     -0.910789
      10A     -0.910789    11A     -0.900438    12A     -0.427792
      13A     -0.427792    14A     -0.427386

  @DF-RHF Final Energy:  -698.68017045809495

   => Energetics <=

    Nuclear Repulsion Energy =             43.7903520263150625
    One-Electron Energy =               -1054.1637968689410627
    Two-Electron Energy =                 311.6932743845309233
    Total Energy =                       -698.6801704580950627
 Dipole X            :        -38.3777486           35.1447277           -3.2330209
 Dipole Y            :         -0.0000000            0.0000000           -0.0000000
 Dipole Z            :          0.0000000            0.0000000            0.0000000
 Magnitude           :                                                    3.2330209
  Basis Set: (AUG-CC-PVTZ AUX)
    Blend: AUG-CC-PVTZ-RI + DEF2-QZVPP-RI
	 Reference Energy          =    -698.6801704580949490 [Eh]
	 Singles Energy            =      -0.0000000000000000 [Eh]
	 Same-Spin Energy          =      -0.1106912299865897 [Eh]
	 Opposite-Spin Energy      =      -0.2910002800179212 [Eh]
	 Correlation Energy        =      -0.4016915100045109 [Eh]
	 Total Energy              =    -699.0818619680994743 [Eh]

	 ================> DF-SCS-MP2 Energies <==================
	-----------------------------------------------------------
	 SCS Same-Spin Scale       =       0.3333333333333333 [-]
	 SCS Opposite-Spin Scale   =       1.2000000000000000 [-]
	 SCS Same-Spin Energy      =      -0.0368970766621966 [Eh]
	 SCS Opposite-Spin Energy  =      -0.3492003360215055 [Eh]
	 SCS Correlation Energy    =      -0.3860974126837020 [Eh]
	 SCS Total Energy          =    -699.0662678707786881 [Eh]
	-----------------------------------------------------------

*** Psi4 exiting successfully. Buy a developer a beer!
