                               Psi4 1.9 release

  ==> Input File <==

--------------------------------------------------------------------------
MEMORY 60 GB

molecule dimer {
1 1
K     0.000000     0.000000     0.000000
--
-1 1
F     2.827734     0.000000     0.000000

units ang
no_reorient
no_com
symmetry c1
}

set {
basis        aug-cc-pVTZ
scf_type     df
}

energy("mp2", bsse_type="cp")
--------------------------------------------------------------------------

                               Psi4 1.9 release
    Molecular point group: c1
  Charge       = -1
  Multiplicity = 1
  Basis Set: AUG-CC-PVTZ
    Blend: AUG-CC-PVTZ
  Basis Set: (AUG-CC-PVTZ AUX)
    Blend: AUG-CC-PVTZ-JKFIT + DEF2-UNIVERSAL-JKFIT
  @DF-RHF Final Energy:   -99.45082836709815
    Total Energy =                        -99.4508283670981541
 Dipole X            :        -53.4362342           48.0927853           -5.3434488
 Dipole Y            :         -0.0000000            0.0000000           -0.0000000
 Dipole Z            :         -0.0000000            0.0000000           -0.0000000
 Magnitude           :                                                    5.3434488
  Basis Set: (AUG-CC-PVTZ AUX)
    Blend: AUG-CC-PVTZ-RI + DEF2-QZVPP-RI
	 Reference Energy          =     -99.4508283670981541 [Eh]
	 Singles Energy            =      -0.0000000000000000 [Eh]
	 Same-Spin Energy          =      -0.0816234443948702 [Eh]
	 Opposite-Spin Energy      =      -0.2266708705350807 [Eh]
	 Correlation Energy        =      -0.3082943149299510 [Eh]
	 Total Energy              =     -99.7591226820281065 [Eh]
	 SCS Total Energy          =     -99.7500412265385421 [Eh]
                               Psi4 1.9 release
    Molecular point group: c1
  Multiplicity = 1
  Basis Set: AUG-CC-PVTZ
    Blend: AUG-CC-PVTZ
  Basis Set: (AUG-CC-PVTZ AUX)
    Blend: AUG-CC-PVTZ-JKFIT + DEF2-UNIVERSAL-JKFIT
  @DF-RHF Final Energy:  -599.01750684957733
    Total Energy =                       -599.0175068495773303
  Basis Set: (AUG-CC-PVTZ AUX)
	 Singles Energy            =      -0.0000000000000000 [Eh]
	 Same-Spin Energy          =      -0.0261106892063852 [Eh]
	 Opposite-Spin Energy      =      -0.0598771394690879 [Eh]
	 Correlation Energy        =      -0.0859878286754731 [Eh]
	 Total Energy              =    -599.1034946782527868 [Eh]
	 SCS Total Energy          =    -599.0980629800089901 [Eh]
                               Psi4 1.9 release
    Molecular point group: c1

    Geometry (in Bohr), charge = 0, multiplicity = 1:

       Center              X                  Y                   Z               Mass
    ------------   -----------------  -----------------  -----------------  -----------------
         K            0.000000000000     0.000000000000     0.000000000000    38.963706486400
         F            5.343642815645     0.000000000000     0.000000000000    18.998403162730

  Charge       = 0
  Multiplicity = 1
  Basis Set: AUG-CC-PVTZ
    Blend: AUG-CC-PVTZ
  Basis Set: (AUG-CC-PVTZ AUX)
    Blend: AUG-CC-PVTZ-JKFIT + DEF2-UNIVERSAL-JKFIT

    Orbital Energies [Eh]
    ---------------------

    Doubly Occupied:

       1A   -133.557608     2A    -26.021704     3A    -14.513083
       4A    -11.543189     5A    -11.543189     6A    -11.542913
       7A     -1.769079     8A     -1.266301     9A     -0.978590
      10A     -0.978590    11A     -0.970297    12A     -0.373336
      13A     -0.369987    14A     -0.369987

  @DF-RHF Final Energy:  -698.65781478573149

   => Energetics <=

    Nuclear Repulsion Energy =             32.0006418653840825
    One-Electron Energy =               -1029.7212056716684856
    Two-Electron Energy =                 299.0627490205529853
    Total Energy =                       -698.6578147857314889
 Dipole X            :        -52.9848538           48.0927853           -4.8920685
 Dipole Y            :          0.0000000            0.0000000            0.0000000
 Dipole Z            :          0.0000000            0.0000000            0.0000000
 Magnitude           :                                                    4.8920685
  Basis Set: (AUG-CC-PVTZ AUX)
    Blend: AUG-CC-PVTZ-RI + DEF2-QZVPP-RI
	 Reference Energy          =    -698.6578147857314889 [Eh]
	 Singles Energy            =      -0.0000000000000000 [Eh]
	 Same-Spin Energy          =      -0.1081320881503058 [Eh]
	 Opposite-Spin Energy      =      -0.2867842653963191 [Eh]
	 Correlation Energy        =      -0.3949163535466248 [Eh]
	 Total Energy              =    -699.0527311392780803 [Eh]

	 ================> DF-SCS-MP2 Energies <==================
	-----------------------------------------------------------
	 SCS Same-Spin Scale       =       0.3333333333333333 [-]
	 SCS Opposite-Spin Scale   =       1.2000000000000000 [-]
	 SCS Same-Spin Energy      =      -0.0360440293834352 [Eh]
	 SCS Opposite-Spin Energy  =      -0.3441411184755829 [Eh]
	 SCS Correlation Energy    =      -0.3801851478590181 [Eh]
	 SCS Total Energy          =    -699.0379999335905268 [Eh]
	-----------------------------------------------------------

*** Psi4 exiting successfully. Buy a developer a beer!
