                               Psi4 1.9 release

  ==> Input File <==

--------------------------------------------------------------------------
MEMORY 60 GB

molecule dimer {
1 1
K     0.000000     0.000000     0.000000
--
-1 1
F     1.957662     0.000000     0.000000

units ang
no_reorient
no_com
symmetry c1
}

set {
basis        aug-cc-pVTZ
scf_type     df
}

energy("mp2", bsse_type="cp")
--------------------------------------------------------------------------

                               Psi4 1.9 release
    Molecular point group: c1
  Charge       = -1
  Multiplicity = 1
  Basis Set: AUG-CC-PVTZ
    Blend: AUG-CC-PVTZ
  Basis Set: (AUG-CC-PVTZ AUX)
    Blend: AUG-CC-PVTZ-JKFIT + DEF2-UNIVERSAL-JKFIT
  @DF-RHF Final Energy:   -99.45084623806574
    Total Energy =                        -99.4508462380657363
 Dipole X            :        -36.9949227           33.2950052           -3.6999175
 Dipole Y            :         -0.0000000            0.0000000           -0.0000000
 Dipole Z            :         -0.0000000            0.0000000           -0.0000000
 Magnitude           :                                                    3.6999175
  Basis Set: (AUG-CC-PVTZ AUX)
    Blend: AUG-CC-PVTZ-RI + DEF2-QZVPP-RI
	 Reference Energy          =     -99.4508462380657363 [Eh]
	 Singles Energy            =      -0.0000000000000000 [Eh]
	 Same-Spin Energy          =      -0.0816585919832288 [Eh]
	 Opposite-Spin Energy      =      -0.2268680377193968 [Eh]
	 Correlation Energy        =      -0.3085266297026257 [Eh]
	 Total Energy              =     -99.7593728677683629 [Eh]
	 SCS Total Energy          =     -99.7503074139900860 [Eh]
                               Psi4 1.9 release
    Molecular point group: c1
  Multiplicity = 1
  Basis Set: AUG-CC-PVTZ
    Blend: AUG-CC-PVTZ
  Basis Set: (AUG-CC-PVTZ AUX)
    Blend: AUG-CC-PVTZ-JKFIT + DEF2-UNIVERSAL-JKFIT
  @DF-RHF Final Energy:  -599.01750811218722
    Total Energy =                       -599.0175081121872154
  Basis Set: (AUG-CC-PVTZ AUX)
	 Singles Energy            =      -0.0000000000000000 [Eh]
	 Same-Spin Energy          =      -0.0282037584557485 [Eh]
	 Opposite-Spin Energy      =      -0.0670937675926113 [Eh]
	 Correlation Energy        =      -0.0952975260483598 [Eh]
	 Total Energy              =    -599.1128056382356135 [Eh]
	 SCS Total Energy          =    -599.1074218861169811 [Eh]
                               Psi4 1.9 release
    Molecular point group: c1

    Geometry (in Bohr), charge = 0, multiplicity = 1:

       Center              X                  Y                   Z               Mass
    ------------   -----------------  -----------------  -----------------  -----------------
         K            0.000000000000     0.000000000000     0.000000000000    38.963706486400
         F            3.699445026216     0.000000000000     0.000000000000    18.998403162730

  Charge       = 0
  Multiplicity = 1
  Basis Set: AUG-CC-PVTZ
    Blend: AUG-CC-PVTZ
  Basis Set: (AUG-CC-PVTZ AUX)
    Blend: AUG-CC-PVTZ-JKFIT + DEF2-UNIVERSAL-JKFIT

    Orbital Energies [Eh]
    ---------------------

    Doubly Occupied:

       1A   -133.453426     2A    -26.071349     3A    -14.413226
       4A    -11.442742     5A    -11.442717     6A    -11.442717
       7A     -1.688391     8A     -1.351233     9A     -0.898238
      10A     -0.898238    11A     -0.889016    12A     -0.440698
      13A     -0.440698    14A     -0.431479

  @DF-RHF Final Energy:  -698.66942951274950

   => Energetics <=

    Nuclear Repulsion Energy =             46.2231493611103446
    One-Electron Energy =               -1059.1768183271140060
    Two-Electron Energy =                 314.2842394532540879
    Total Energy =                       -698.6694295127495025
 Dipole X            :        -36.2585754           33.2950052           -2.9635702
 Dipole Y            :         -0.0000000            0.0000000           -0.0000000
 Dipole Z            :         -0.0000000            0.0000000           -0.0000000
 Magnitude           :                                                    2.9635702
  Basis Set: (AUG-CC-PVTZ AUX)
    Blend: AUG-CC-PVTZ-RI + DEF2-QZVPP-RI
	 Reference Energy          =    -698.6694295127495025 [Eh]
	 Singles Energy            =      -0.0000000000000000 [Eh]
	 Same-Spin Energy          =      -0.1116545179895768 [Eh]
	 Opposite-Spin Energy      =      -0.2923061517642987 [Eh]
	 Correlation Energy        =      -0.4039606697538755 [Eh]
	 Total Energy              =    -699.0733901825034309 [Eh]

	 ================> DF-SCS-MP2 Energies <==================
	-----------------------------------------------------------
	 SCS Same-Spin Scale       =       0.3333333333333333 [-]
	 SCS Opposite-Spin Scale   =       1.2000000000000000 [-]
	 SCS Same-Spin Energy      =      -0.0372181726631923 [Eh]
	 SCS Opposite-Spin Energy  =      -0.3507673821171584 [Eh]
	 SCS Correlation Energy    =      -0.3879855547803507 [Eh]
	 SCS Total Energy          =    -699.0574150675298597 [Eh]
	-----------------------------------------------------------

*** Psi4 exiting successfully. Buy a developer a beer!
