                               Psi4 1.9 release

  ==> Input File <==

--------------------------------------------------------------------------
MEMORY 60 GB

molecule dimer {
1 1
K     0.000000     0.000000     0.000000
--
-1 1
F     4.350360     0.000000     0.000000

units ang
no_reorient
no_com
symmetry c1
}

set {
basis        aug-cc-pVTZ
scf_type     df
}

energy("mp2", bsse_type="cp")
--------------------------------------------------------------------------

                               Psi4 1.9 release
    Molecular point group: c1
  Charge       = -1
  Multiplicity = 1
  Basis Set: AUG-CC-PVTZ
    Blend: AUG-CC-PVTZ
  Basis Set: (AUG-CC-PVTZ AUX)
    Blend: AUG-CC-PVTZ-JKFIT + DEF2-UNIVERSAL-JKFIT
  @DF-RHF Final Energy:   -99.45081898266908
    Total Energy =                        -99.4508189826690767
 Dipole X            :        -82.2104137           73.9889005           -8.2215132
 Dipole Y            :         -0.0000000            0.0000000           -0.0000000
 Dipole Z            :          0.0000000            0.0000000            0.0000000
 Magnitude           :                                                    8.2215132
  Basis Set: (AUG-CC-PVTZ AUX)
    Blend: AUG-CC-PVTZ-RI + DEF2-QZVPP-RI
	 Reference Energy          =     -99.4508189826690767 [Eh]
	 Singles Energy            =      -0.0000000000000000 [Eh]
	 Same-Spin Energy          =      -0.0815884915685149 [Eh]
	 Opposite-Spin Energy      =      -0.2263848450098053 [Eh]
	 Correlation Energy        =      -0.3079733365783202 [Eh]
	 Total Energy              =     -99.7587923192473909 [Eh]
	 SCS Total Energy          =     -99.7496769605370162 [Eh]
                               Psi4 1.9 release
    Molecular point group: c1
  Multiplicity = 1
  Basis Set: AUG-CC-PVTZ
    Blend: AUG-CC-PVTZ
  Basis Set: (AUG-CC-PVTZ AUX)
    Blend: AUG-CC-PVTZ-JKFIT + DEF2-UNIVERSAL-JKFIT
  @DF-RHF Final Energy:  -599.01750599696413
    Total Energy =                       -599.0175059969642462
  Basis Set: (AUG-CC-PVTZ AUX)
	 Singles Energy            =      -0.0000000000000000 [Eh]
	 Same-Spin Energy          =      -0.0253715266765588 [Eh]
	 Opposite-Spin Energy      =      -0.0579405268598121 [Eh]
	 Correlation Energy        =      -0.0833120535363709 [Eh]
	 Total Energy              =    -599.1008180505004930 [Eh]
	 SCS Total Energy          =    -599.0954918047547153 [Eh]
                               Psi4 1.9 release
    Molecular point group: c1

    Geometry (in Bohr), charge = 0, multiplicity = 1:

       Center              X                  Y                   Z               Mass
    ------------   -----------------  -----------------  -----------------  -----------------
         K            0.000000000000     0.000000000000     0.000000000000    38.963706486400
         F            8.220988947147     0.000000000000     0.000000000000    18.998403162730

  Charge       = 0
  Multiplicity = 1
  Basis Set: AUG-CC-PVTZ
    Blend: AUG-CC-PVTZ
  Basis Set: (AUG-CC-PVTZ AUX)
    Blend: AUG-CC-PVTZ-JKFIT + DEF2-UNIVERSAL-JKFIT

    Orbital Energies [Eh]
    ---------------------

    Doubly Occupied:

       1A   -133.629940     2A    -25.959535     3A    -14.585286
       4A    -11.615377     5A    -11.615377     6A    -11.615287
       7A     -1.840270     8A     -1.201091     9A     -1.047659
      10A     -1.047659    11A     -1.045098    12A     -0.306239
      13A     -0.306239    14A     -0.304624

  @DF-RHF Final Energy:  -698.59169868681829

   => Energetics <=

    Nuclear Repulsion Energy =             20.8004172124996565
    One-Electron Energy =               -1006.5448680651894620
    Two-Electron Energy =                 287.1527521658716182
    Total Energy =                       -698.5916986868182903
 Dipole X            :        -81.9769944           73.9889005           -7.9880939
 Dipole Y            :          0.0000000            0.0000000            0.0000000
 Dipole Z            :          0.0000000            0.0000000            0.0000000
 Magnitude           :                                                    7.9880939
  Basis Set: (AUG-CC-PVTZ AUX)
    Blend: AUG-CC-PVTZ-RI + DEF2-QZVPP-RI
	 Reference Energy          =    -698.5916986868182903 [Eh]
	 Singles Energy            =      -0.0000000000000000 [Eh]
	 Same-Spin Energy          =      -0.1072801457537700 [Eh]
	 Opposite-Spin Energy      =      -0.2849390755135879 [Eh]
	 Correlation Energy        =      -0.3922192212673580 [Eh]
	 Total Energy              =    -698.9839179080856866 [Eh]

	 ================> DF-SCS-MP2 Energies <==================
	-----------------------------------------------------------
	 SCS Same-Spin Scale       =       0.3333333333333333 [-]
	 SCS Opposite-Spin Scale   =       1.2000000000000000 [-]
	 SCS Same-Spin Energy      =      -0.0357600485845900 [Eh]
	 SCS Opposite-Spin Energy  =      -0.3419268906163055 [Eh]
	 SCS Correlation Energy    =      -0.3776869392008955 [Eh]
	 SCS Total Energy          =    -698.9693856260191751 [Eh]
	-----------------------------------------------------------

*** Psi4 exiting successfully. Buy a developer a beer!
