                               Psi4 1.9 release

  ==> Input File <==

--------------------------------------------------------------------------
MEMORY 60 GB

molecule dimer {
1 1
K     0.000000     0.000000     0.000000
--
-1 1
F     2.175180     0.000000     0.000000

units ang
no_reorient
no_com
symmetry c1
}

set {
basis        aug-cc-pVTZ
scf_type     df
}

energy("mp2", bsse_type="cp")
--------------------------------------------------------------------------

                               Psi4 1.9 release
    Molecular point group: c1
  Charge       = -1
  Multiplicity = 1
  Basis Set: AUG-CC-PVTZ
    Blend: AUG-CC-PVTZ
  Basis Set: (AUG-CC-PVTZ AUX)
    Blend: AUG-CC-PVTZ-JKFIT + DEF2-UNIVERSAL-JKFIT
  @DF-RHF Final Energy:   -99.45084129429594
    Total Energy =                        -99.4508412942959410
 Dipole X            :        -41.1046698           36.9944503           -4.1102195
 Dipole Y            :          0.0000000            0.0000000            0.0000000
 Dipole Z            :          0.0000000            0.0000000            0.0000000
 Magnitude           :                                                    4.1102195
  Basis Set: (AUG-CC-PVTZ AUX)
    Blend: AUG-CC-PVTZ-RI + DEF2-QZVPP-RI
	 Reference Energy          =     -99.4508412942959410 [Eh]
	 Singles Energy            =      -0.0000000000000000 [Eh]
	 Same-Spin Energy          =      -0.0816462199191795 [Eh]
	 Opposite-Spin Energy      =      -0.2267806087701319 [Eh]
	 Correlation Energy        =      -0.3084268286893114 [Eh]
	 Total Energy              =     -99.7592681229852474 [Eh]
	 SCS Total Energy          =     -99.7501934314598202 [Eh]
                               Psi4 1.9 release
    Molecular point group: c1
  Multiplicity = 1
  Basis Set: AUG-CC-PVTZ
    Blend: AUG-CC-PVTZ
  Basis Set: (AUG-CC-PVTZ AUX)
    Blend: AUG-CC-PVTZ-JKFIT + DEF2-UNIVERSAL-JKFIT
  @DF-RHF Final Energy:  -599.01750779639224
    Total Energy =                       -599.0175077963922377
  Basis Set: (AUG-CC-PVTZ AUX)
	 Singles Energy            =      -0.0000000000000000 [Eh]
	 Same-Spin Energy          =      -0.0274310551956664 [Eh]
	 Opposite-Spin Energy      =      -0.0644808316794333 [Eh]
	 Correlation Energy        =      -0.0919118868750997 [Eh]
	 Total Energy              =    -599.1094196832673333 [Eh]
	 SCS Total Energy          =    -599.1040284794727313 [Eh]
                               Psi4 1.9 release
    Molecular point group: c1

    Geometry (in Bohr), charge = 0, multiplicity = 1:

       Center              X                  Y                   Z               Mass
    ------------   -----------------  -----------------  -----------------  -----------------
         K            0.000000000000     0.000000000000     0.000000000000    38.963706486400
         F            4.110494473573     0.000000000000     0.000000000000    18.998403162730

  Charge       = 0
  Multiplicity = 1
  Basis Set: AUG-CC-PVTZ
    Blend: AUG-CC-PVTZ
  Basis Set: (AUG-CC-PVTZ AUX)
    Blend: AUG-CC-PVTZ-JKFIT + DEF2-UNIVERSAL-JKFIT

    Orbital Energies [Eh]
    ---------------------

    Doubly Occupied:

       1A   -133.489397     2A    -26.057252     3A    -14.447000
       4A    -11.476846     5A    -11.476846     6A    -11.476568
       7A     -1.711472     8A     -1.320534     9A     -0.922709
      10A     -0.922709    11A     -0.911897    12A     -0.420945
      13A     -0.416738    14A     -0.416738

  @DF-RHF Final Energy:  -698.68411720855431

   => Energetics <=

    Nuclear Repulsion Energy =             41.6008344249993129
    One-Electron Energy =               -1049.6345966395331288
    Two-Electron Energy =                 309.3496450059795393
    Total Energy =                       -698.6841172085541984
 Dipole X            :        -40.4823886           36.9944503           -3.4879384
 Dipole Y            :          0.0000000            0.0000000            0.0000000
 Dipole Z            :         -0.0000000            0.0000000           -0.0000000
 Magnitude           :                                                    3.4879384
  Basis Set: (AUG-CC-PVTZ AUX)
    Blend: AUG-CC-PVTZ-RI + DEF2-QZVPP-RI
	 Reference Energy          =    -698.6841172085543121 [Eh]
	 Singles Energy            =      -0.0000000000000000 [Eh]
	 Same-Spin Energy          =      -0.1099868624524013 [Eh]
	 Opposite-Spin Energy      =      -0.2900318352930167 [Eh]
	 Correlation Energy        =      -0.4000186977454180 [Eh]
	 Total Energy              =    -699.0841359062997071 [Eh]

	 ================> DF-SCS-MP2 Energies <==================
	-----------------------------------------------------------
	 SCS Same-Spin Scale       =       0.3333333333333333 [-]
	 SCS Opposite-Spin Scale   =       1.2000000000000000 [-]
	 SCS Same-Spin Energy      =      -0.0366622874841338 [Eh]
	 SCS Opposite-Spin Energy  =      -0.3480382023516200 [Eh]
	 SCS Correlation Energy    =      -0.3847004898357538 [Eh]
	 SCS Total Energy          =    -699.0688176983900348 [Eh]
	-----------------------------------------------------------

*** Psi4 exiting successfully. Buy a developer a beer!
