                               Psi4 1.9 release

  ==> Input File <==

--------------------------------------------------------------------------
MEMORY 60 GB

molecule dimer {
1 1
K     0.000000     0.000000     0.000000
--
-1 1
Cl     2.370191     0.000000     0.000000

units ang
no_reorient
no_com
symmetry c1
}

set {
basis        aug-cc-pVTZ
scf_type     df
}

energy("mp2", bsse_type="cp")
--------------------------------------------------------------------------

                               Psi4 1.9 release
    Molecular point group: c1
  Charge       = -1
  Multiplicity = 1
  Basis Set: AUG-CC-PVTZ
    Blend: AUG-CC-PVTZ
  Basis Set: (AUG-CC-PVTZ AUX)
    Blend: AUG-CC-PVTZ-JKFIT + DEF2-UNIVERSAL-JKFIT
  @DF-RHF Final Energy:  -459.57349954933767
    Total Energy =                       -459.5734995493377255
 Dipole X            :        -80.6233352           76.1432015           -4.4801337
 Dipole Y            :          0.0000000            0.0000000            0.0000000
 Dipole Z            :          0.0000000            0.0000000            0.0000000
 Magnitude           :                                                    4.4801337
  Basis Set: (AUG-CC-PVTZ AUX)
    Blend: AUG-CC-PVTZ-RI + DEF2-QZVPP-RI
	 Reference Energy          =    -459.5734995493376687 [Eh]
	 Singles Energy            =      -0.0000000000000000 [Eh]
	 Same-Spin Energy          =      -0.0625243752581777 [Eh]
	 Opposite-Spin Energy      =      -0.1795085472489898 [Eh]
	 Correlation Energy        =      -0.2420329225071675 [Eh]
	 Total Energy              =    -459.8155324718448469 [Eh]
	 SCS Total Energy          =    -459.8097512644558265 [Eh]
                               Psi4 1.9 release
    Molecular point group: c1
  Multiplicity = 1
  Basis Set: AUG-CC-PVTZ
    Blend: AUG-CC-PVTZ
  Basis Set: (AUG-CC-PVTZ AUX)
    Blend: AUG-CC-PVTZ-JKFIT + DEF2-UNIVERSAL-JKFIT
  @DF-RHF Final Energy:  -599.01750853106762
    Total Energy =                       -599.0175085310676195
  Basis Set: (AUG-CC-PVTZ AUX)
	 Singles Energy            =      -0.0000000000000000 [Eh]
	 Same-Spin Energy          =      -0.0292349965495359 [Eh]
	 Opposite-Spin Energy      =      -0.0691724841223783 [Eh]
	 Correlation Energy        =      -0.0984074806719142 [Eh]
	 Total Energy              =    -599.1159160117395004 [Eh]
	 SCS Total Energy          =    -599.1102605108643502 [Eh]
                               Psi4 1.9 release
    Molecular point group: c1

    Geometry (in Bohr), charge = 0, multiplicity = 1:

       Center              X                  Y                   Z               Mass
    ------------   -----------------  -----------------  -----------------  -----------------
         K            0.000000000000     0.000000000000     0.000000000000    38.963706486400
         CL           4.479011855025     0.000000000000     0.000000000000    34.968852682000

  Charge       = 0
  Multiplicity = 1
  Basis Set: AUG-CC-PVTZ
    Blend: AUG-CC-PVTZ
  Basis Set: (AUG-CC-PVTZ AUX)
    Blend: AUG-CC-PVTZ-JKFIT + DEF2-UNIVERSAL-JKFIT

    Orbital Energies [Eh]
    ---------------------

    Doubly Occupied:

       1A   -133.492594     2A   -104.690459     3A    -14.452562
       4A    -11.482151     5A    -11.481886     6A    -11.481886
       7A    -10.418666     8A     -7.884819     9A     -7.884361
      10A     -7.884361    11A     -1.723586    12A     -0.992128
      13A     -0.932881    14A     -0.932881    15A     -0.885360
      16A     -0.353706    17A     -0.353531    18A     -0.353531

  @DF-RHF Final Energy: -1058.75008726838973

   => Energetics <=

    Nuclear Repulsion Energy =             72.1141203584057138
    One-Electron Energy =               -1606.3657186587979595
    Two-Electron Energy =                 475.5015110320025542
    Total Energy =                      -1058.7500872683897342
 Dipole X            :        -79.7197599           76.1432015           -3.5765583
 Dipole Y            :         -0.0000000            0.0000000           -0.0000000
 Dipole Z            :          0.0000000            0.0000000            0.0000000
 Magnitude           :                                                    3.5765583
  Basis Set: (AUG-CC-PVTZ AUX)
    Blend: AUG-CC-PVTZ-RI + DEF2-QZVPP-RI
	 Reference Energy          =   -1058.7500872683897342 [Eh]
	 Singles Energy            =      -0.0000000000000000 [Eh]
	 Same-Spin Energy          =      -0.0959741702917089 [Eh]
	 Opposite-Spin Energy      =      -0.2518752774143779 [Eh]
	 Correlation Energy        =      -0.3478494477060868 [Eh]
	 Total Energy              =   -1059.0979367160957736 [Eh]

	 ================> DF-SCS-MP2 Energies <==================
	-----------------------------------------------------------
	 SCS Same-Spin Scale       =       0.3333333333333333 [-]
	 SCS Opposite-Spin Scale   =       1.2000000000000000 [-]
	 SCS Same-Spin Energy      =      -0.0319913900972363 [Eh]
	 SCS Opposite-Spin Energy  =      -0.3022503328972534 [Eh]
	 SCS Correlation Energy    =      -0.3342417229944897 [Eh]
	 SCS Total Energy          =   -1059.0843289913841545 [Eh]
	-----------------------------------------------------------

*** Psi4 exiting successfully. Buy a developer a beer!
