                               Psi4 1.9 release

  ==> Input File <==

--------------------------------------------------------------------------
MEMORY 60 GB

molecule dimer {
1 1
K     0.000000     0.000000     0.000000
--
-1 1
Cl     2.896901     0.000000     0.000000

units ang
no_reorient
no_com
symmetry c1
}

set {
basis        aug-cc-pVTZ
scf_type     df
}

energy("mp2", bsse_type="cp")
--------------------------------------------------------------------------

                               Psi4 1.9 release
    Molecular point group: c1
  Charge       = -1
  Multiplicity = 1
  Basis Set: AUG-CC-PVTZ
    Blend: AUG-CC-PVTZ
  Basis Set: (AUG-CC-PVTZ AUX)
    Blend: AUG-CC-PVTZ-JKFIT + DEF2-UNIVERSAL-JKFIT
  @DF-RHF Final Energy:  -459.57349800880399
    Total Energy =                       -459.5734980088039947
 Dipole X            :        -98.5390436           93.0639415           -5.4751021
 Dipole Y            :         -0.0000000            0.0000000           -0.0000000
 Dipole Z            :         -0.0000000            0.0000000           -0.0000000
 Magnitude           :                                                    5.4751021
  Basis Set: (AUG-CC-PVTZ AUX)
    Blend: AUG-CC-PVTZ-RI + DEF2-QZVPP-RI
	 Reference Energy          =    -459.5734980088039947 [Eh]
	 Singles Energy            =      -0.0000000000000000 [Eh]
	 Same-Spin Energy          =      -0.0624985976095052 [Eh]
	 Opposite-Spin Energy      =      -0.1793665478698214 [Eh]
	 Correlation Energy        =      -0.2418651454793266 [Eh]
	 Total Energy              =    -459.8153631542833182 [Eh]
	 SCS Total Energy          =    -459.8095707321176064 [Eh]
                               Psi4 1.9 release
    Molecular point group: c1
  Multiplicity = 1
  Basis Set: AUG-CC-PVTZ
    Blend: AUG-CC-PVTZ
  Basis Set: (AUG-CC-PVTZ AUX)
    Blend: AUG-CC-PVTZ-JKFIT + DEF2-UNIVERSAL-JKFIT
  @DF-RHF Final Energy:  -599.01750739972272
    Total Energy =                       -599.0175073997226036
  Basis Set: (AUG-CC-PVTZ AUX)
	 Singles Energy            =      -0.0000000000000000 [Eh]
	 Same-Spin Energy          =      -0.0270737230927415 [Eh]
	 Opposite-Spin Energy      =      -0.0625849845870850 [Eh]
	 Correlation Energy        =      -0.0896587076798265 [Eh]
	 Total Energy              =    -599.1071661074025769 [Eh]
	 SCS Total Energy          =    -599.1016339555914101 [Eh]
                               Psi4 1.9 release
    Molecular point group: c1

    Geometry (in Bohr), charge = 0, multiplicity = 1:

       Center              X                  Y                   Z               Mass
    ------------   -----------------  -----------------  -----------------  -----------------
         K            0.000000000000     0.000000000000     0.000000000000    38.963706486400
         CL           5.474349502565     0.000000000000     0.000000000000    34.968852682000

  Charge       = 0
  Multiplicity = 1
  Basis Set: AUG-CC-PVTZ
    Blend: AUG-CC-PVTZ
  Basis Set: (AUG-CC-PVTZ AUX)
    Blend: AUG-CC-PVTZ-JKFIT + DEF2-UNIVERSAL-JKFIT

    Orbital Energies [Eh]
    ---------------------

    Doubly Occupied:

       1A   -133.546406     2A   -104.679252     3A    -14.503034
       4A    -11.532938     5A    -11.532938     6A    -11.532774
       7A    -10.403815     8A     -7.869936     9A     -7.869785
      10A     -7.869785    11A     -1.762360    12A     -0.971562
      13A     -0.971562    14A     -0.971468    15A     -0.908040
      16A     -0.336639    17A     -0.326409    18A     -0.326409

  @DF-RHF Final Energy: -1058.76828183626208

   => Energetics <=

    Nuclear Repulsion Energy =             59.0024440070302703
    One-Electron Energy =               -1579.7112229740539533
    Two-Electron Energy =                 461.9404971307614574
    Total Energy =                      -1058.7682818362620765
 Dipole X            :        -97.6962658           93.0639415           -4.6323243
 Dipole Y            :          0.0000000            0.0000000            0.0000000
 Dipole Z            :         -0.0000000            0.0000000           -0.0000000
 Magnitude           :                                                    4.6323243
  Basis Set: (AUG-CC-PVTZ AUX)
    Blend: AUG-CC-PVTZ-RI + DEF2-QZVPP-RI
	 Reference Energy          =   -1058.7682818362620765 [Eh]
	 Singles Energy            =      -0.0000000000000000 [Eh]
	 Same-Spin Energy          =      -0.0913004823064054 [Eh]
	 Opposite-Spin Energy      =      -0.2435202320741204 [Eh]
	 Correlation Energy        =      -0.3348207143805257 [Eh]
	 Total Energy              =   -1059.1031025506426886 [Eh]

	 ================> DF-SCS-MP2 Energies <==================
	-----------------------------------------------------------
	 SCS Same-Spin Scale       =       0.3333333333333333 [-]
	 SCS Opposite-Spin Scale   =       1.2000000000000000 [-]
	 SCS Same-Spin Energy      =      -0.0304334941021351 [Eh]
	 SCS Opposite-Spin Energy  =      -0.2922242784889444 [Eh]
	 SCS Correlation Energy    =      -0.3226577725910795 [Eh]
	 SCS Total Energy          =   -1059.0909396088532048 [Eh]
	-----------------------------------------------------------

*** Psi4 exiting successfully. Buy a developer a beer!
