                               Psi4 1.9 release

  ==> Input File <==

--------------------------------------------------------------------------
MEMORY 60 GB

molecule dimer {
1 1
K     0.000000     0.000000     0.000000
--
-1 1
Cl     2.501869     0.000000     0.000000

units ang
no_reorient
no_com
symmetry c1
}

set {
basis        aug-cc-pVTZ
scf_type     df
}

energy("mp2", bsse_type="cp")
--------------------------------------------------------------------------

                               Psi4 1.9 release
    Molecular point group: c1
  Charge       = -1
  Multiplicity = 1
  Basis Set: AUG-CC-PVTZ
    Blend: AUG-CC-PVTZ
  Basis Set: (AUG-CC-PVTZ AUX)
    Blend: AUG-CC-PVTZ-JKFIT + DEF2-UNIVERSAL-JKFIT
  @DF-RHF Final Energy:  -459.57349826953811
    Total Energy =                       -459.5734982695380495
 Dipole X            :        -85.1023384           80.3734026           -4.7289358
 Dipole Y            :          0.0000000            0.0000000            0.0000000
 Dipole Z            :          0.0000000            0.0000000            0.0000000
 Magnitude           :                                                    4.7289358
  Basis Set: (AUG-CC-PVTZ AUX)
    Blend: AUG-CC-PVTZ-RI + DEF2-QZVPP-RI
	 Reference Energy          =    -459.5734982695381063 [Eh]
	 Singles Energy            =      -0.0000000000000000 [Eh]
	 Same-Spin Energy          =      -0.0625125381168374 [Eh]
	 Opposite-Spin Energy      =      -0.1794507974479761 [Eh]
	 Correlation Energy        =      -0.2419633355648134 [Eh]
	 Total Energy              =    -459.8154616051029393 [Eh]
	 SCS Total Energy          =    -459.8096767391812705 [Eh]
                               Psi4 1.9 release
    Molecular point group: c1
  Multiplicity = 1
  Basis Set: AUG-CC-PVTZ
    Blend: AUG-CC-PVTZ
  Basis Set: (AUG-CC-PVTZ AUX)
    Blend: AUG-CC-PVTZ-JKFIT + DEF2-UNIVERSAL-JKFIT
  @DF-RHF Final Energy:  -599.01750816995354
    Total Energy =                       -599.0175081699535440
  Basis Set: (AUG-CC-PVTZ AUX)
	 Singles Energy            =      -0.0000000000000000 [Eh]
	 Same-Spin Energy          =      -0.0285249316617235 [Eh]
	 Opposite-Spin Energy      =      -0.0670427697392223 [Eh]
	 Correlation Energy        =      -0.0955677014009458 [Eh]
	 Total Energy              =    -599.1130758713544537 [Eh]
	 SCS Total Energy          =    -599.1074678041944708 [Eh]
                               Psi4 1.9 release
    Molecular point group: c1

    Geometry (in Bohr), charge = 0, multiplicity = 1:

       Center              X                  Y                   Z               Mass
    ------------   -----------------  -----------------  -----------------  -----------------
         K            0.000000000000     0.000000000000     0.000000000000    38.963706486400
         CL           4.727847211773     0.000000000000     0.000000000000    34.968852682000

  Charge       = 0
  Multiplicity = 1
  Basis Set: AUG-CC-PVTZ
    Blend: AUG-CC-PVTZ
  Basis Set: (AUG-CC-PVTZ AUX)
    Blend: AUG-CC-PVTZ-JKFIT + DEF2-UNIVERSAL-JKFIT

    Orbital Energies [Eh]
    ---------------------

    Doubly Occupied:

       1A   -133.507869     2A   -104.688433     3A    -14.466712
       4A    -11.496315     5A    -11.496252     6A    -11.496252
       7A    -10.415247     8A     -7.881381     9A     -7.881089
      10A     -7.881089    11A     -1.733437    12A     -0.978667
      13A     -0.942963    14A     -0.942963    15A     -0.897364
      16A     -0.351876    17A     -0.345835    18A     -0.345835

  @DF-RHF Final Energy: -1058.76289553796209

   => Energetics <=

    Nuclear Repulsion Energy =             68.3186206177901454
    One-Electron Energy =               -1598.6638726965620663
    Two-Electron Energy =                 471.5823565408097124
    Total Energy =                      -1058.7628955379620947
 Dipole X            :        -84.2139530           80.3734026           -3.8405504
 Dipole Y            :         -0.0000000            0.0000000           -0.0000000
 Dipole Z            :         -0.0000000            0.0000000           -0.0000000
 Magnitude           :                                                    3.8405504
  Basis Set: (AUG-CC-PVTZ AUX)
    Blend: AUG-CC-PVTZ-RI + DEF2-QZVPP-RI
	 Reference Energy          =   -1058.7628955379620947 [Eh]
	 Singles Energy            =      -0.0000000000000000 [Eh]
	 Same-Spin Energy          =      -0.0943601665058253 [Eh]
	 Opposite-Spin Energy      =      -0.2490447735191332 [Eh]
	 Correlation Energy        =      -0.3434049400249585 [Eh]
	 Total Energy              =   -1059.1063004779871335 [Eh]

	 ================> DF-SCS-MP2 Energies <==================
	-----------------------------------------------------------
	 SCS Same-Spin Scale       =       0.3333333333333333 [-]
	 SCS Opposite-Spin Scale   =       1.2000000000000000 [-]
	 SCS Same-Spin Energy      =      -0.0314533888352751 [Eh]
	 SCS Opposite-Spin Energy  =      -0.2988537282229597 [Eh]
	 SCS Correlation Energy    =      -0.3303071170582348 [Eh]
	 SCS Total Energy          =   -1059.0932026550203773 [Eh]
	-----------------------------------------------------------

*** Psi4 exiting successfully. Buy a developer a beer!
