                               Psi4 1.9 release

  ==> Input File <==

--------------------------------------------------------------------------
MEMORY 60 GB

molecule dimer {
1 1
K     0.000000     0.000000     0.000000
--
-1 1
Cl     2.765223     0.000000     0.000000

units ang
no_reorient
no_com
symmetry c1
}

set {
basis        aug-cc-pVTZ
scf_type     df
}

energy("mp2", bsse_type="cp")
--------------------------------------------------------------------------

                               Psi4 1.9 release
    Molecular point group: c1
  Charge       = -1
  Multiplicity = 1
  Basis Set: AUG-CC-PVTZ
    Blend: AUG-CC-PVTZ
  Basis Set: (AUG-CC-PVTZ AUX)
    Blend: AUG-CC-PVTZ-JKFIT + DEF2-UNIVERSAL-JKFIT
  @DF-RHF Final Energy:  -459.57349781900371
    Total Energy =                       -459.5734978190037054
 Dipole X            :        -94.0601146           88.8337405           -5.2263741
 Dipole Y            :         -0.0000000            0.0000000           -0.0000000
 Dipole Z            :         -0.0000000            0.0000000           -0.0000000
 Magnitude           :                                                    5.2263741
  Basis Set: (AUG-CC-PVTZ AUX)
    Blend: AUG-CC-PVTZ-RI + DEF2-QZVPP-RI
	 Reference Energy          =    -459.5734978190037054 [Eh]
	 Singles Energy            =      -0.0000000000000000 [Eh]
	 Same-Spin Energy          =      -0.0625022186179142 [Eh]
	 Opposite-Spin Energy      =      -0.1793879819485111 [Eh]
	 Correlation Energy        =      -0.2418902005664253 [Eh]
	 Total Energy              =    -459.8153880195701504 [Eh]
	 SCS Total Energy          =    -459.8095974702145554 [Eh]
                               Psi4 1.9 release
    Molecular point group: c1
  Multiplicity = 1
  Basis Set: AUG-CC-PVTZ
    Blend: AUG-CC-PVTZ
  Basis Set: (AUG-CC-PVTZ AUX)
    Blend: AUG-CC-PVTZ-JKFIT + DEF2-UNIVERSAL-JKFIT
  @DF-RHF Final Energy:  -599.01750763681980
    Total Energy =                       -599.0175076368198006
  Basis Set: (AUG-CC-PVTZ AUX)
	 Singles Energy            =      -0.0000000000000000 [Eh]
	 Same-Spin Energy          =      -0.0274566476281463 [Eh]
	 Opposite-Spin Energy      =      -0.0637633733145329 [Eh]
	 Correlation Energy        =      -0.0912200209426792 [Eh]
	 Total Energy              =    -599.1087276577625289 [Eh]
	 SCS Total Energy          =    -599.1031759006732500 [Eh]
                               Psi4 1.9 release
    Molecular point group: c1

    Geometry (in Bohr), charge = 0, multiplicity = 1:

       Center              X                  Y                   Z               Mass
    ------------   -----------------  -----------------  -----------------  -----------------
         K            0.000000000000     0.000000000000     0.000000000000    38.963706486400
         CL           5.225514145817     0.000000000000     0.000000000000    34.968852682000

  Charge       = 0
  Multiplicity = 1
  Basis Set: AUG-CC-PVTZ
    Blend: AUG-CC-PVTZ
  Basis Set: (AUG-CC-PVTZ AUX)
    Blend: AUG-CC-PVTZ-JKFIT + DEF2-UNIVERSAL-JKFIT

    Orbital Energies [Eh]
    ---------------------

    Doubly Occupied:

       1A   -133.534759     2A   -104.682743     3A    -14.491949
       4A    -11.521766     5A    -11.521766     6A    -11.521637
       7A    -10.407834     8A     -7.873958     9A     -7.873790
      10A     -7.873790    11A     -1.753064    12A     -0.968723
      13A     -0.962443    14A     -0.962443    15A     -0.908859
      16A     -0.342597    17A     -0.332415    18A     -0.332415

  @DF-RHF Final Energy: -1058.76990680034532

   => Energetics <=

    Nuclear Repulsion Energy =             61.8120994387830578
    One-Electron Energy =               -1585.4301081818969124
    Two-Electron Energy =                 464.8481019427685510
    Total Energy =                      -1058.7699068003453249
 Dipole X            :        -93.2012385           88.8337405           -4.3674980
 Dipole Y            :          0.0000000            0.0000000            0.0000000
 Dipole Z            :          0.0000000            0.0000000            0.0000000
 Magnitude           :                                                    4.3674980
  Basis Set: (AUG-CC-PVTZ AUX)
    Blend: AUG-CC-PVTZ-RI + DEF2-QZVPP-RI
	 Reference Energy          =   -1058.7699068003453249 [Eh]
	 Singles Energy            =      -0.0000000000000000 [Eh]
	 Same-Spin Energy          =      -0.0920822915839962 [Eh]
	 Opposite-Spin Energy      =      -0.2449388913179570 [Eh]
	 Correlation Energy        =      -0.3370211829019533 [Eh]
	 Total Energy              =   -1059.1069279832472603 [Eh]

	 ================> DF-SCS-MP2 Energies <==================
	-----------------------------------------------------------
	 SCS Same-Spin Scale       =       0.3333333333333333 [-]
	 SCS Opposite-Spin Scale   =       1.2000000000000000 [-]
	 SCS Same-Spin Energy      =      -0.0306940971946654 [Eh]
	 SCS Opposite-Spin Energy  =      -0.2939266695815484 [Eh]
	 SCS Correlation Energy    =      -0.3246207667762139 [Eh]
	 SCS Total Energy          =   -1059.0945275671215313 [Eh]
	-----------------------------------------------------------

*** Psi4 exiting successfully. Buy a developer a beer!
