                               Psi4 1.9 release

  ==> Input File <==

--------------------------------------------------------------------------
MEMORY 60 GB

molecule dimer {
1 1
K     0.000000     0.000000     0.000000
--
-1 1
Cl     2.633546     0.000000     0.000000

units ang
no_reorient
no_com
symmetry c1
}

set {
basis        aug-cc-pVTZ
scf_type     df
}

energy("mp2", bsse_type="cp")
--------------------------------------------------------------------------

                               Psi4 1.9 release
    Molecular point group: c1
  Charge       = -1
  Multiplicity = 1
  Basis Set: AUG-CC-PVTZ
    Blend: AUG-CC-PVTZ
  Basis Set: (AUG-CC-PVTZ AUX)
    Blend: AUG-CC-PVTZ-JKFIT + DEF2-UNIVERSAL-JKFIT
  @DF-RHF Final Energy:  -459.57349773473862
    Total Energy =                       -459.5734977347386234
 Dipole X            :        -89.5812340           84.6035715           -4.9776625
 Dipole Y            :          0.0000000            0.0000000            0.0000000
 Dipole Z            :         -0.0000000            0.0000000           -0.0000000
 Magnitude           :                                                    4.9776625
  Basis Set: (AUG-CC-PVTZ AUX)
    Blend: AUG-CC-PVTZ-RI + DEF2-QZVPP-RI
	 Reference Energy          =    -459.5734977347386234 [Eh]
	 Singles Energy            =      -0.0000000000000000 [Eh]
	 Same-Spin Energy          =      -0.0625057022492263 [Eh]
	 Opposite-Spin Energy      =      -0.1794126525490946 [Eh]
	 Correlation Energy        =      -0.2419183547983209 [Eh]
	 Total Energy              =    -459.8154160895369387 [Eh]
	 SCS Total Energy          =    -459.8096281518805881 [Eh]
                               Psi4 1.9 release
    Molecular point group: c1
  Multiplicity = 1
  Basis Set: AUG-CC-PVTZ
    Blend: AUG-CC-PVTZ
  Basis Set: (AUG-CC-PVTZ AUX)
    Blend: AUG-CC-PVTZ-JKFIT + DEF2-UNIVERSAL-JKFIT
  @DF-RHF Final Energy:  -599.01750788769982
    Total Energy =                       -599.0175078876998214
  Basis Set: (AUG-CC-PVTZ AUX)
	 Singles Energy            =      -0.0000000000000000 [Eh]
	 Same-Spin Energy          =      -0.0279330622513244 [Eh]
	 Opposite-Spin Energy      =      -0.0652394122188304 [Eh]
	 Correlation Energy        =      -0.0931724744701548 [Eh]
	 Total Energy              =    -599.1106803621700010 [Eh]
	 SCS Total Energy          =    -599.1051062031128822 [Eh]
                               Psi4 1.9 release
    Molecular point group: c1

    Geometry (in Bohr), charge = 0, multiplicity = 1:

       Center              X                  Y                   Z               Mass
    ------------   -----------------  -----------------  -----------------  -----------------
         K            0.000000000000     0.000000000000     0.000000000000    38.963706486400
         CL           4.976680678795     0.000000000000     0.000000000000    34.968852682000

  Charge       = 0
  Multiplicity = 1
  Basis Set: AUG-CC-PVTZ
    Blend: AUG-CC-PVTZ
  Basis Set: (AUG-CC-PVTZ AUX)
    Blend: AUG-CC-PVTZ-JKFIT + DEF2-UNIVERSAL-JKFIT

    Orbital Energies [Eh]
    ---------------------

    Doubly Occupied:

       1A   -133.521905     2A   -104.685839     3A    -14.479832
       4A    -11.509530     5A    -11.509530     6A    -11.509472
       7A    -10.411654     8A     -7.877781     9A     -7.877573
      10A     -7.877573    11A     -1.743360    12A     -0.970810
      13A     -0.952868    14A     -0.952868    15A     -0.905461
      16A     -0.347876    17A     -0.338854    18A     -0.338854

  @DF-RHF Final Energy: -1058.76866785110451

   => Energetics <=

    Nuclear Repulsion Energy =             64.9026973694061127
    One-Electron Energy =               -1591.7194482487818732
    Two-Electron Energy =                 468.0480830282712645
    Total Energy =                      -1058.7686678511045102
 Dipole X            :        -88.7072416           84.6035715           -4.1036701
 Dipole Y            :         -0.0000000            0.0000000           -0.0000000
 Dipole Z            :         -0.0000000            0.0000000           -0.0000000
 Magnitude           :                                                    4.1036701
  Basis Set: (AUG-CC-PVTZ AUX)
    Blend: AUG-CC-PVTZ-RI + DEF2-QZVPP-RI
	 Reference Energy          =   -1058.7686678511045102 [Eh]
	 Singles Energy            =      -0.0000000000000000 [Eh]
	 Same-Spin Energy          =      -0.0930810326993222 [Eh]
	 Opposite-Spin Energy      =      -0.2467520430025011 [Eh]
	 Correlation Energy        =      -0.3398330757018233 [Eh]
	 Total Energy              =   -1059.1085009268063004 [Eh]

	 ================> DF-SCS-MP2 Energies <==================
	-----------------------------------------------------------
	 SCS Same-Spin Scale       =       0.3333333333333333 [-]
	 SCS Opposite-Spin Scale   =       1.2000000000000000 [-]
	 SCS Same-Spin Energy      =      -0.0310270108997741 [Eh]
	 SCS Opposite-Spin Energy  =      -0.2961024516030013 [Eh]
	 SCS Correlation Energy    =      -0.3271294625027754 [Eh]
	 SCS Total Energy          =   -1059.0957973136073633 [Eh]
	-----------------------------------------------------------

*** Psi4 exiting successfully. Buy a developer a beer!
