                               Psi4 1.9 release

  ==> Input File <==

--------------------------------------------------------------------------
MEMORY 60 GB

molecule dimer {
1 1
K     0.000000     0.000000     0.000000
--
-1 1
Cl     3.160255     0.000000     0.000000

units ang
no_reorient
no_com
symmetry c1
}

set {
basis        aug-cc-pVTZ
scf_type     df
}

energy("mp2", bsse_type="cp")
--------------------------------------------------------------------------

                               Psi4 1.9 release
    Molecular point group: c1
  Charge       = -1
  Multiplicity = 1
  Basis Set: AUG-CC-PVTZ
    Blend: AUG-CC-PVTZ
  Basis Set: (AUG-CC-PVTZ AUX)
    Blend: AUG-CC-PVTZ-JKFIT + DEF2-UNIVERSAL-JKFIT
  @DF-RHF Final Energy:  -459.57349704178171
    Total Energy =                       -459.5734970417817067
 Dipole X            :       -107.4968815          101.5242794           -5.9726021
 Dipole Y            :         -0.0000000            0.0000000           -0.0000000
 Dipole Z            :          0.0000000            0.0000000            0.0000000
 Magnitude           :                                                    5.9726021
  Basis Set: (AUG-CC-PVTZ AUX)
    Blend: AUG-CC-PVTZ-RI + DEF2-QZVPP-RI
	 Reference Energy          =    -459.5734970417817067 [Eh]
	 Singles Energy            =      -0.0000000000000000 [Eh]
	 Same-Spin Energy          =      -0.0624789834875952 [Eh]
	 Opposite-Spin Energy      =      -0.1792987453151491 [Eh]
	 Correlation Energy        =      -0.2417777288027443 [Eh]
	 Total Energy              =    -459.8152747705844376 [Eh]
	 SCS Total Energy          =    -459.8094818639891059 [Eh]
                               Psi4 1.9 release
    Molecular point group: c1
  Multiplicity = 1
  Basis Set: AUG-CC-PVTZ
    Blend: AUG-CC-PVTZ
  Basis Set: (AUG-CC-PVTZ AUX)
    Blend: AUG-CC-PVTZ-JKFIT + DEF2-UNIVERSAL-JKFIT
  @DF-RHF Final Energy:  -599.01750704165249
    Total Energy =                       -599.0175070416526069
  Basis Set: (AUG-CC-PVTZ AUX)
	 Singles Energy            =      -0.0000000000000000 [Eh]
	 Same-Spin Energy          =      -0.0264908853913029 [Eh]
	 Opposite-Spin Energy      =      -0.0609297361442964 [Eh]
	 Correlation Energy        =      -0.0874206215355992 [Eh]
	 Total Energy              =    -599.1049276631880502 [Eh]
	 SCS Total Energy          =    -599.0994530201560337 [Eh]
                               Psi4 1.9 release
    Molecular point group: c1

    Geometry (in Bohr), charge = 0, multiplicity = 1:

       Center              X                  Y                   Z               Mass
    ------------   -----------------  -----------------  -----------------  -----------------
         K            0.000000000000     0.000000000000     0.000000000000    38.963706486400
         CL           5.972016436609     0.000000000000     0.000000000000    34.968852682000

  Charge       = 0
  Multiplicity = 1
  Basis Set: AUG-CC-PVTZ
    Blend: AUG-CC-PVTZ
  Basis Set: (AUG-CC-PVTZ AUX)
    Blend: AUG-CC-PVTZ-JKFIT + DEF2-UNIVERSAL-JKFIT

    Orbital Energies [Eh]
    ---------------------

    Doubly Occupied:

       1A   -133.566080     2A   -104.671455     3A    -14.522073
       4A    -11.552074     5A    -11.552074     6A    -11.551900
       7A    -10.395362     8A     -7.861476     9A     -7.861330
      10A     -7.861330    11A     -1.779314    12A     -0.988120
      13A     -0.988120    14A     -0.983789    15A     -0.900181
      16A     -0.324125    17A     -0.315402    18A     -0.315402

  @DF-RHF Final Energy: -1058.76050889596354

   => Energetics <=

    Nuclear Repulsion Energy =             54.0855845640336028
    One-Electron Energy =               -1569.7129656178633468
    Two-Electron Energy =                 456.8668721578663963
    Total Energy =                      -1058.7605088959635395
 Dipole X            :       -106.6888347          101.5242794           -5.1645552
 Dipole Y            :          0.0000000            0.0000000            0.0000000
 Dipole Z            :          0.0000000            0.0000000            0.0000000
 Magnitude           :                                                    5.1645552
  Basis Set: (AUG-CC-PVTZ AUX)
    Blend: AUG-CC-PVTZ-RI + DEF2-QZVPP-RI
	 Reference Energy          =   -1058.7605088959635395 [Eh]
	 Singles Energy            =      -0.0000000000000000 [Eh]
	 Same-Spin Energy          =      -0.0901691829752958 [Eh]
	 Opposite-Spin Energy      =      -0.2415222974116282 [Eh]
	 Correlation Energy        =      -0.3316914803869240 [Eh]
	 Total Energy              =   -1059.0922003763505472 [Eh]

	 ================> DF-SCS-MP2 Energies <==================
	-----------------------------------------------------------
	 SCS Same-Spin Scale       =       0.3333333333333333 [-]
	 SCS Opposite-Spin Scale   =       1.2000000000000000 [-]
	 SCS Same-Spin Energy      =      -0.0300563943250986 [Eh]
	 SCS Opposite-Spin Energy  =      -0.2898267568939539 [Eh]
	 SCS Correlation Energy    =      -0.3198831512190525 [Eh]
	 SCS Total Energy          =   -1059.0803920471826132 [Eh]
	-----------------------------------------------------------

*** Psi4 exiting successfully. Buy a developer a beer!
