                               Psi4 1.9 release

  ==> Input File <==

--------------------------------------------------------------------------
MEMORY 60 GB

molecule dimer {
1 1
K     0.000000     0.000000     0.000000
--
-1 1
Cl     5.267092     0.000000     0.000000

units ang
no_reorient
no_com
symmetry c1
}

set {
basis        aug-cc-pVTZ
scf_type     df
}

energy("mp2", bsse_type="cp")
--------------------------------------------------------------------------

                               Psi4 1.9 release
    Molecular point group: c1
  Charge       = -1
  Multiplicity = 1
  Basis Set: AUG-CC-PVTZ
    Blend: AUG-CC-PVTZ
  Basis Set: (AUG-CC-PVTZ AUX)
    Blend: AUG-CC-PVTZ-JKFIT + DEF2-UNIVERSAL-JKFIT
  @DF-RHF Final Energy:  -459.57348540936709
    Total Energy =                       -459.5734854093670947
 Dipole X            :       -179.1608263          169.2071431           -9.9536832
 Dipole Y            :          0.0000000            0.0000000            0.0000000
 Dipole Z            :         -0.0000000            0.0000000           -0.0000000
 Magnitude           :                                                    9.9536832
  Basis Set: (AUG-CC-PVTZ AUX)
    Blend: AUG-CC-PVTZ-RI + DEF2-QZVPP-RI
	 Reference Energy          =    -459.5734854093670947 [Eh]
	 Singles Energy            =      -0.0000000000000000 [Eh]
	 Same-Spin Energy          =      -0.0623199394481365 [Eh]
	 Opposite-Spin Energy      =      -0.1788181674967713 [Eh]
	 Correlation Energy        =      -0.2411381069449078 [Eh]
	 Total Energy              =    -459.8146235163119968 [Eh]
	 SCS Total Energy          =    -459.8088405235125720 [Eh]
                               Psi4 1.9 release
    Molecular point group: c1
  Multiplicity = 1
  Basis Set: AUG-CC-PVTZ
    Blend: AUG-CC-PVTZ
  Basis Set: (AUG-CC-PVTZ AUX)
    Blend: AUG-CC-PVTZ-JKFIT + DEF2-UNIVERSAL-JKFIT
  @DF-RHF Final Energy:  -599.01750595917542
    Total Energy =                       -599.0175059591754234
  Basis Set: (AUG-CC-PVTZ AUX)
	 Singles Energy            =      -0.0000000000000000 [Eh]
	 Same-Spin Energy          =      -0.0253365863526083 [Eh]
	 Opposite-Spin Energy      =      -0.0578089090763682 [Eh]
	 Correlation Energy        =      -0.0831454954289765 [Eh]
	 Total Energy              =    -599.1006514546044173 [Eh]
	 SCS Total Energy          =    -599.0953221788512337 [Eh]
                               Psi4 1.9 release
    Molecular point group: c1

    Geometry (in Bohr), charge = 0, multiplicity = 1:

       Center              X                  Y                   Z               Mass
    ------------   -----------------  -----------------  -----------------  -----------------
         K            0.000000000000     0.000000000000     0.000000000000    38.963706486400
         CL           9.953361357590     0.000000000000     0.000000000000    34.968852682000

  Charge       = 0
  Multiplicity = 1
  Basis Set: AUG-CC-PVTZ
    Blend: AUG-CC-PVTZ
  Basis Set: (AUG-CC-PVTZ AUX)
    Blend: AUG-CC-PVTZ-JKFIT + DEF2-UNIVERSAL-JKFIT

    Orbital Energies [Eh]
    ---------------------

    Doubly Occupied:

       1A   -133.649380     2A   -104.610319     3A    -14.604764
       4A    -11.634840     5A    -11.634840     6A    -11.634788
       7A    -10.333986     8A     -7.800059     9A     -7.799958
      10A     -7.799958    11A     -1.859803    12A     -1.066862
      13A     -1.066862    14A     -1.065321    15A     -0.836922
      16A     -0.253772    17A     -0.253252    18A     -0.253252

  @DF-RHF Final Energy: -1058.69359403520389

   => Energetics <=

    Nuclear Repulsion Energy =             32.4513486847030563
    One-Electron Energy =               -1525.9720100030938283
    Two-Electron Energy =                 434.8270672831868069
    Total Energy =                      -1058.6935940352038870
 Dipole X            :       -178.7561390          169.2071431           -9.5489959
 Dipole Y            :          0.0000000            0.0000000            0.0000000
 Dipole Z            :         -0.0000000            0.0000000           -0.0000000
 Magnitude           :                                                    9.5489959
  Basis Set: (AUG-CC-PVTZ AUX)
    Blend: AUG-CC-PVTZ-RI + DEF2-QZVPP-RI
	 Reference Energy          =   -1058.6935940352038870 [Eh]
	 Singles Energy            =      -0.0000000000000000 [Eh]
	 Same-Spin Energy          =      -0.0878528235921709 [Eh]
	 Opposite-Spin Energy      =      -0.2370376108162907 [Eh]
	 Correlation Energy        =      -0.3248904344084617 [Eh]
	 Total Energy              =   -1059.0184844696123037 [Eh]

	 ================> DF-SCS-MP2 Energies <==================
	-----------------------------------------------------------
	 SCS Same-Spin Scale       =       0.3333333333333333 [-]
	 SCS Opposite-Spin Scale   =       1.2000000000000000 [-]
	 SCS Same-Spin Energy      =      -0.0292842745307236 [Eh]
	 SCS Opposite-Spin Energy  =      -0.2844451329795489 [Eh]
	 SCS Correlation Energy    =      -0.3137294075102725 [Eh]
	 SCS Total Energy          =   -1059.0073234427140960 [Eh]
	-----------------------------------------------------------

*** Psi4 exiting successfully. Buy a developer a beer!
