                               Psi4 1.9 release

  ==> Input File <==

--------------------------------------------------------------------------
MEMORY 60 GB

molecule dimer {
1 1
K     0.000000     0.000000     0.000000
--
-1 1
Cl     3.686964     0.000000     0.000000

units ang
no_reorient
no_com
symmetry c1
}

set {
basis        aug-cc-pVTZ
scf_type     df
}

energy("mp2", bsse_type="cp")
--------------------------------------------------------------------------

                               Psi4 1.9 release
    Molecular point group: c1
  Charge       = -1
  Multiplicity = 1
  Basis Set: AUG-CC-PVTZ
    Blend: AUG-CC-PVTZ
  Basis Set: (AUG-CC-PVTZ AUX)
    Blend: AUG-CC-PVTZ-JKFIT + DEF2-UNIVERSAL-JKFIT
  @DF-RHF Final Energy:  -459.57349191722597
    Total Energy =                       -459.5734919172259652
 Dipole X            :       -125.4127231          118.4449873           -6.9677358
 Dipole Y            :         -0.0000000            0.0000000           -0.0000000
 Dipole Z            :         -0.0000000            0.0000000           -0.0000000
 Magnitude           :                                                    6.9677358
  Basis Set: (AUG-CC-PVTZ AUX)
    Blend: AUG-CC-PVTZ-RI + DEF2-QZVPP-RI
	 Reference Energy          =    -459.5734919172259652 [Eh]
	 Singles Energy            =      -0.0000000000000000 [Eh]
	 Same-Spin Energy          =      -0.0624142513324639 [Eh]
	 Opposite-Spin Energy      =      -0.1791076915218529 [Eh]
	 Correlation Energy        =      -0.2415219428543168 [Eh]
	 Total Energy              =    -459.8150138600802848 [Eh]
	 SCS Total Energy          =    -459.8092258974963329 [Eh]
                               Psi4 1.9 release
    Molecular point group: c1
  Multiplicity = 1
  Basis Set: AUG-CC-PVTZ
    Blend: AUG-CC-PVTZ
  Basis Set: (AUG-CC-PVTZ AUX)
    Blend: AUG-CC-PVTZ-JKFIT + DEF2-UNIVERSAL-JKFIT
  @DF-RHF Final Energy:  -599.01750680092698
    Total Energy =                       -599.0175068009270944
  Basis Set: (AUG-CC-PVTZ AUX)
	 Singles Energy            =      -0.0000000000000000 [Eh]
	 Same-Spin Energy          =      -0.0258542307924317 [Eh]
	 Opposite-Spin Energy      =      -0.0593369583378032 [Eh]
	 Correlation Energy        =      -0.0851911891302350 [Eh]
	 Total Energy              =    -599.1026979900572087 [Eh]
	 SCS Total Energy          =    -599.0973292278631561 [Eh]
                               Psi4 1.9 release
    Molecular point group: c1

    Geometry (in Bohr), charge = 0, multiplicity = 1:

       Center              X                  Y                   Z               Mass
    ------------   -----------------  -----------------  -----------------  -----------------
         K            0.000000000000     0.000000000000     0.000000000000    38.963706486400
         CL           6.967352194422     0.000000000000     0.000000000000    34.968852682000

  Charge       = 0
  Multiplicity = 1
  Basis Set: AUG-CC-PVTZ
    Blend: AUG-CC-PVTZ
  Basis Set: (AUG-CC-PVTZ AUX)
    Blend: AUG-CC-PVTZ-JKFIT + DEF2-UNIVERSAL-JKFIT

    Orbital Energies [Eh]
    ---------------------

    Doubly Occupied:

       1A   -133.595779     2A   -104.654299     3A    -14.551396
       4A    -11.581457     5A    -11.581457     6A    -11.581316
       7A    -10.377802     8A     -7.843905     9A     -7.843748
      10A     -7.843748    11A     -1.807252    12A     -1.015339
      13A     -1.015339    14A     -1.011119    15A     -0.880789
      16A     -0.300757    17A     -0.296058    18A     -0.296058

  @DF-RHF Final Energy: -1058.73997859713086

   => Energetics <=

    Nuclear Repulsion Energy =             46.3590745790872916
    One-Electron Energy =               -1554.0428777758295382
    Two-Electron Energy =                 448.9438245996114460
    Total Energy =                      -1058.7399785971308575
 Dipole X            :       -124.6924735          118.4449873           -6.2474862
 Dipole Y            :          0.0000000            0.0000000            0.0000000
 Dipole Z            :          0.0000000            0.0000000            0.0000000
 Magnitude           :                                                    6.2474862
  Basis Set: (AUG-CC-PVTZ AUX)
    Blend: AUG-CC-PVTZ-RI + DEF2-QZVPP-RI
	 Reference Energy          =   -1058.7399785971308575 [Eh]
	 Singles Energy            =      -0.0000000000000000 [Eh]
	 Same-Spin Energy          =      -0.0889669770486622 [Eh]
	 Opposite-Spin Energy      =      -0.2394898889276062 [Eh]
	 Correlation Energy        =      -0.3284568659762684 [Eh]
	 Total Energy              =   -1059.0684354631071074 [Eh]

	 ================> DF-SCS-MP2 Energies <==================
	-----------------------------------------------------------
	 SCS Same-Spin Scale       =       0.3333333333333333 [-]
	 SCS Opposite-Spin Scale   =       1.2000000000000000 [-]
	 SCS Same-Spin Energy      =      -0.0296556590162207 [Eh]
	 SCS Opposite-Spin Energy  =      -0.2873878667131274 [Eh]
	 SCS Correlation Energy    =      -0.3170435257293482 [Eh]
	 SCS Total Energy          =   -1059.0570221228601895 [Eh]
	-----------------------------------------------------------

*** Psi4 exiting successfully. Buy a developer a beer!
