                               Psi4 1.9 release

  ==> Input File <==

--------------------------------------------------------------------------
MEMORY 60 GB

molecule dimer {
1 1
K     0.000000     0.000000     0.000000
--
-1 1
Cl     2.106837     0.000000     0.000000

units ang
no_reorient
no_com
symmetry c1
}

set {
basis        aug-cc-pVTZ
scf_type     df
}

energy("mp2", bsse_type="cp")
--------------------------------------------------------------------------

                               Psi4 1.9 release
    Molecular point group: c1
  Charge       = -1
  Multiplicity = 1
  Basis Set: AUG-CC-PVTZ
    Blend: AUG-CC-PVTZ
  Basis Set: (AUG-CC-PVTZ AUX)
    Blend: AUG-CC-PVTZ-JKFIT + DEF2-UNIVERSAL-JKFIT
  @DF-RHF Final Energy:  -459.57350232326542
    Total Energy =                       -459.5735023232653589
 Dipole X            :        -71.6650281           67.6828637           -3.9821645
 Dipole Y            :         -0.0000000            0.0000000           -0.0000000
 Dipole Z            :         -0.0000000            0.0000000           -0.0000000
 Magnitude           :                                                    3.9821645
  Basis Set: (AUG-CC-PVTZ AUX)
    Blend: AUG-CC-PVTZ-RI + DEF2-QZVPP-RI
	 Reference Energy          =    -459.5735023232654157 [Eh]
	 Singles Energy            =      -0.0000000000000000 [Eh]
	 Same-Spin Energy          =      -0.0625653261367767 [Eh]
	 Opposite-Spin Energy      =      -0.1797033841714141 [Eh]
	 Correlation Energy        =      -0.2422687103081908 [Eh]
	 Total Energy              =    -459.8157710335735828 [Eh]
	 SCS Total Energy          =    -459.8100014929833605 [Eh]
                               Psi4 1.9 release
    Molecular point group: c1
  Multiplicity = 1
  Basis Set: AUG-CC-PVTZ
    Blend: AUG-CC-PVTZ
  Basis Set: (AUG-CC-PVTZ AUX)
    Blend: AUG-CC-PVTZ-JKFIT + DEF2-UNIVERSAL-JKFIT
  @DF-RHF Final Energy:  -599.01750958773027
    Total Energy =                       -599.0175095877302738
  Basis Set: (AUG-CC-PVTZ AUX)
	 Singles Energy            =      -0.0000000000000000 [Eh]
	 Same-Spin Energy          =      -0.0309465913734078 [Eh]
	 Opposite-Spin Energy      =      -0.0742921560592212 [Eh]
	 Correlation Energy        =      -0.1052387474326290 [Eh]
	 Total Energy              =    -599.1227483351628962 [Eh]
	 SCS Total Energy          =    -599.1169757054591400 [Eh]
                               Psi4 1.9 release
    Molecular point group: c1

    Geometry (in Bohr), charge = 0, multiplicity = 1:

       Center              X                  Y                   Z               Mass
    ------------   -----------------  -----------------  -----------------  -----------------
         K            0.000000000000     0.000000000000     0.000000000000    38.963706486400
         CL           3.981344920981     0.000000000000     0.000000000000    34.968852682000

  Charge       = 0
  Multiplicity = 1
  Basis Set: AUG-CC-PVTZ
    Blend: AUG-CC-PVTZ
  Basis Set: (AUG-CC-PVTZ AUX)
    Blend: AUG-CC-PVTZ-JKFIT + DEF2-UNIVERSAL-JKFIT

    Orbital Energies [Eh]
    ---------------------

    Doubly Occupied:

       1A   -133.458634     2A   -104.693391     3A    -14.421565
       4A    -11.451276     5A    -11.450160     6A    -11.450160
       7A    -10.426178     8A     -7.892504     9A     -7.891174
      10A     -7.891174    11A     -1.706954    12A     -1.036155
      13A     -0.913688    14A     -0.913688    15A     -0.853284
      16A     -0.372172    17A     -0.372172    18A     -0.345071

  @DF-RHF Final Energy: -1058.68670480128731

   => Energetics <=

    Nuclear Repulsion Energy =             81.1283640103197285
    One-Electron Energy =               -1624.5513342428491796
    Two-Electron Energy =                 484.7362654312421455
    Total Energy =                      -1058.6867048012873056
 Dipole X            :        -70.7151255           67.6828637           -3.0322619
 Dipole Y            :         -0.0000000            0.0000000           -0.0000000
 Dipole Z            :          0.0000000            0.0000000            0.0000000
 Magnitude           :                                                    3.0322619
  Basis Set: (AUG-CC-PVTZ AUX)
    Blend: AUG-CC-PVTZ-RI + DEF2-QZVPP-RI
	 Reference Energy          =   -1058.6867048012873056 [Eh]
	 Singles Energy            =      -0.0000000000000000 [Eh]
	 Same-Spin Energy          =      -0.1004399608760282 [Eh]
	 Opposite-Spin Energy      =      -0.2593337389120470 [Eh]
	 Correlation Energy        =      -0.3597736997880753 [Eh]
	 Total Energy              =   -1059.0464785010753985 [Eh]

	 ================> DF-SCS-MP2 Energies <==================
	-----------------------------------------------------------
	 SCS Same-Spin Scale       =       0.3333333333333333 [-]
	 SCS Opposite-Spin Scale   =       1.2000000000000000 [-]
	 SCS Same-Spin Energy      =      -0.0334799869586761 [Eh]
	 SCS Opposite-Spin Energy  =      -0.3112004866944564 [Eh]
	 SCS Correlation Energy    =      -0.3446804736531325 [Eh]
	 SCS Total Energy          =   -1059.0313852749404759 [Eh]
	-----------------------------------------------------------

*** Psi4 exiting successfully. Buy a developer a beer!
