                               Psi4 1.9 release

  ==> Input File <==

--------------------------------------------------------------------------
MEMORY 60 GB

molecule dimer {
1 1
K     0.000000     0.000000     0.000000
--
-1 1
Cl     3.423610     0.000000     0.000000

units ang
no_reorient
no_com
symmetry c1
}

set {
basis        aug-cc-pVTZ
scf_type     df
}

energy("mp2", bsse_type="cp")
--------------------------------------------------------------------------

                               Psi4 1.9 release
    Molecular point group: c1
  Charge       = -1
  Multiplicity = 1
  Basis Set: AUG-CC-PVTZ
    Blend: AUG-CC-PVTZ
  Basis Set: (AUG-CC-PVTZ AUX)
    Blend: AUG-CC-PVTZ-JKFIT + DEF2-UNIVERSAL-JKFIT
  @DF-RHF Final Energy:  -459.57349452555542
    Total Energy =                       -459.5734945255554180
 Dipole X            :       -116.4548000          109.9846494           -6.4701506
 Dipole Y            :          0.0000000            0.0000000            0.0000000
 Dipole Z            :          0.0000000            0.0000000            0.0000000
 Magnitude           :                                                    6.4701506
  Basis Set: (AUG-CC-PVTZ AUX)
    Blend: AUG-CC-PVTZ-RI + DEF2-QZVPP-RI
	 Reference Energy          =    -459.5734945255554180 [Eh]
	 Singles Energy            =      -0.0000000000000000 [Eh]
	 Same-Spin Energy          =      -0.0624463147099805 [Eh]
	 Opposite-Spin Energy      =      -0.1792017009707852 [Eh]
	 Correlation Energy        =      -0.2416480156807657 [Eh]
	 Total Energy              =    -459.8151425412361846 [Eh]
	 SCS Total Energy          =    -459.8093520049570202 [Eh]
                               Psi4 1.9 release
    Molecular point group: c1
  Multiplicity = 1
  Basis Set: AUG-CC-PVTZ
    Blend: AUG-CC-PVTZ
  Basis Set: (AUG-CC-PVTZ AUX)
    Blend: AUG-CC-PVTZ-JKFIT + DEF2-UNIVERSAL-JKFIT
  @DF-RHF Final Energy:  -599.01750687124434
    Total Energy =                       -599.0175068712443363
  Basis Set: (AUG-CC-PVTZ AUX)
	 Singles Energy            =      -0.0000000000000000 [Eh]
	 Same-Spin Energy          =      -0.0260935442925906 [Eh]
	 Opposite-Spin Energy      =      -0.0599285482072681 [Eh]
	 Correlation Energy        =      -0.0860220924998587 [Eh]
	 Total Energy              =    -599.1035289637442247 [Eh]
	 SCS Total Energy          =    -599.0981189771905520 [Eh]
                               Psi4 1.9 release
    Molecular point group: c1

    Geometry (in Bohr), charge = 0, multiplicity = 1:

       Center              X                  Y                   Z               Mass
    ------------   -----------------  -----------------  -----------------  -----------------
         K            0.000000000000     0.000000000000     0.000000000000    38.963706486400
         CL           6.469685260379     0.000000000000     0.000000000000    34.968852682000

  Charge       = 0
  Multiplicity = 1
  Basis Set: AUG-CC-PVTZ
    Blend: AUG-CC-PVTZ
  Basis Set: (AUG-CC-PVTZ AUX)
    Blend: AUG-CC-PVTZ-JKFIT + DEF2-UNIVERSAL-JKFIT

    Orbital Energies [Eh]
    ---------------------

    Doubly Occupied:

       1A   -133.582050     2A   -104.662994     3A    -14.537798
       4A    -11.567839     5A    -11.567839     6A    -11.567680
       7A    -10.386601     8A     -7.852709     9A     -7.852557
      10A     -7.852557    11A     -1.794137    12A     -1.002558
      13A     -1.002558    14A     -0.997855    15A     -0.890374
      16A     -0.311984    17A     -0.305370    18A     -0.305370

  @DF-RHF Final Energy: -1058.75038203602526

   => Energetics <=

    Nuclear Repulsion Energy =             49.9251489060991176
    One-Electron Energy =               -1561.2694017190524391
    Two-Electron Energy =                 452.5938707769281564
    Total Energy =                      -1058.7503820360252575
 Dipole X            :       -115.6869772          109.9846494           -5.7023277
 Dipole Y            :          0.0000000            0.0000000            0.0000000
 Dipole Z            :          0.0000000            0.0000000            0.0000000
 Magnitude           :                                                    5.7023277
  Basis Set: (AUG-CC-PVTZ AUX)
    Blend: AUG-CC-PVTZ-RI + DEF2-QZVPP-RI
	 Reference Energy          =   -1058.7503820360252575 [Eh]
	 Singles Energy            =      -0.0000000000000000 [Eh]
	 Same-Spin Energy          =      -0.0894308308396898 [Eh]
	 Opposite-Spin Energy      =      -0.2402734492333665 [Eh]
	 Correlation Energy        =      -0.3297042800730563 [Eh]
	 Total Energy              =   -1059.0800863160982317 [Eh]

	 ================> DF-SCS-MP2 Energies <==================
	-----------------------------------------------------------
	 SCS Same-Spin Scale       =       0.3333333333333333 [-]
	 SCS Opposite-Spin Scale   =       1.2000000000000000 [-]
	 SCS Same-Spin Energy      =      -0.0298102769465632 [Eh]
	 SCS Opposite-Spin Energy  =      -0.2883281390800398 [Eh]
	 SCS Correlation Energy    =      -0.3181384160266031 [Eh]
	 SCS Total Energy          =   -1059.0685204520518710 [Eh]
	-----------------------------------------------------------

*** Psi4 exiting successfully. Buy a developer a beer!
