                               Psi4 1.9 release

  ==> Input File <==

--------------------------------------------------------------------------
MEMORY 60 GB

molecule dimer {
1 1
K     0.000000     0.000000     0.000000
--
-1 1
Br     2.230960     0.000000     0.000000

units ang
no_reorient
no_com
symmetry c1
}

set {
basis        aug-cc-pVTZ
scf_type     df
}

energy("mp2", bsse_type="cp")
--------------------------------------------------------------------------

                               Psi4 1.9 release
    Molecular point group: c1
  Charge       = -1
  Multiplicity = 1
  Basis Set: AUG-CC-PVTZ
    Blend: AUG-CC-PVTZ
  Basis Set: (AUG-CC-PVTZ AUX)
    Blend: AUG-CC-PVTZ-JKFIT + DEF2-UNIVERSAL-JKFIT
  @DF-RHF Final Energy: -2572.53368401940907
    Total Energy =                      -2572.5336840194086108
 Dipole X            :       -151.7730048          147.5566189           -4.2163859
 Dipole Y            :          0.0000000            0.0000000            0.0000000
 Dipole Z            :         -0.0000000            0.0000000           -0.0000000
 Magnitude           :                                                    4.2163859
  Basis Set: (AUG-CC-PVTZ AUX)
    Blend: AUG-CC-PVTZ-RI + DEF2-QZVPP-RI
	 Reference Energy          =   -2572.5336840194090655 [Eh]
	 Singles Energy            =      -0.0000000000000000 [Eh]
	 Same-Spin Energy          =      -0.0878309410016518 [Eh]
	 Opposite-Spin Energy      =      -0.2036122999646393 [Eh]
	 Correlation Energy        =      -0.2914432409662911 [Eh]
	 Total Energy              =   -2572.8251272603752113 [Eh]
	 SCS Total Energy          =   -2572.8072957597005370 [Eh]
                               Psi4 1.9 release
    Molecular point group: c1
  Multiplicity = 1
  Basis Set: AUG-CC-PVTZ
    Blend: AUG-CC-PVTZ
  Basis Set: (AUG-CC-PVTZ AUX)
    Blend: AUG-CC-PVTZ-JKFIT + DEF2-UNIVERSAL-JKFIT
  @DF-RHF Final Energy:  -599.01750922339295
    Total Energy =                       -599.0175092233928353
  Basis Set: (AUG-CC-PVTZ AUX)
	 Singles Energy            =      -0.0000000000000000 [Eh]
	 Same-Spin Energy          =      -0.0308984236649033 [Eh]
	 Opposite-Spin Energy      =      -0.0737937688067195 [Eh]
	 Correlation Energy        =      -0.1046921924716228 [Eh]
	 Total Energy              =    -599.1222014158645379 [Eh]
	 SCS Total Energy          =    -599.1163612205159552 [Eh]
                               Psi4 1.9 release
    Molecular point group: c1

    Geometry (in Bohr), charge = 0, multiplicity = 1:

       Center              X                  Y                   Z               Mass
    ------------   -----------------  -----------------  -----------------  -----------------
         K            0.000000000000     0.000000000000     0.000000000000    38.963706486400
         BR           4.215903396851     0.000000000000     0.000000000000    78.918337600000

  Charge       = 0
  Multiplicity = 1
  Basis Set: AUG-CC-PVTZ
    Blend: AUG-CC-PVTZ
  Basis Set: (AUG-CC-PVTZ AUX)
    Blend: AUG-CC-PVTZ-JKFIT + DEF2-UNIVERSAL-JKFIT

    Orbital Energies [Eh]
    ---------------------

    Doubly Occupied:

       1A   -489.903195     2A   -133.473100     3A    -65.046248
       4A    -58.400422     5A    -58.400422     6A    -58.400310
       7A    -14.436202     8A    -11.465863     9A    -11.464750
      10A    -11.464750    11A     -9.721719    12A     -7.329846
      13A     -7.328900    14A     -7.328900    15A     -3.070742
      16A     -3.070643    17A     -3.070643    18A     -3.070403
      19A     -3.070403    20A     -1.719868    21A     -1.004370
      22A     -0.926157    23A     -0.926157    24A     -0.834114
      25A     -0.345590    26A     -0.345590    27A     -0.323692

  @DF-RHF Final Energy: -3171.63885748453686

   => Energetics <=

    Nuclear Repulsion Energy =            157.7360620968327680
    One-Electron Energy =               -4726.8638459332478305
    Two-Electron Energy =                1397.4889263518780353
    Total Energy =                      -3171.6388574845368566
 Dipole X            :       -150.7884294          147.5566189           -3.2318105
 Dipole Y            :         -0.0000000            0.0000000           -0.0000000
 Dipole Z            :          0.0000000            0.0000000            0.0000000
 Magnitude           :                                                    3.2318105
  Basis Set: (AUG-CC-PVTZ AUX)
    Blend: AUG-CC-PVTZ-RI + DEF2-QZVPP-RI
	 Reference Energy          =   -3171.6388574845368566 [Eh]
	 Singles Energy            =      -0.0000000000000000 [Eh]
	 Same-Spin Energy          =      -0.1258237288065380 [Eh]
	 Opposite-Spin Energy      =      -0.2830283161261450 [Eh]
	 Correlation Energy        =      -0.4088520449326830 [Eh]
	 Total Energy              =   -3172.0477095294695573 [Eh]

	 ================> DF-SCS-MP2 Energies <==================
	-----------------------------------------------------------
	 SCS Same-Spin Scale       =       0.3333333333333333 [-]
	 SCS Opposite-Spin Scale   =       1.2000000000000000 [-]
	 SCS Same-Spin Energy      =      -0.0419412429355127 [Eh]
	 SCS Opposite-Spin Energy  =      -0.3396339793513740 [Eh]
	 SCS Correlation Energy    =      -0.3815752222868867 [Eh]
	 SCS Total Energy          =   -3172.0204327068236125 [Eh]
	-----------------------------------------------------------

*** Psi4 exiting successfully. Buy a developer a beer!
