                               Psi4 1.9 release

  ==> Input File <==

--------------------------------------------------------------------------
MEMORY 60 GB

molecule dimer {
1 1
K     0.000000     0.000000     0.000000
--
-1 1
Br     2.509830     0.000000     0.000000

units ang
no_reorient
no_com
symmetry c1
}

set {
basis        aug-cc-pVTZ
scf_type     df
}

energy("mp2", bsse_type="cp")
--------------------------------------------------------------------------

                               Psi4 1.9 release
    Molecular point group: c1
  Charge       = -1
  Multiplicity = 1
  Basis Set: AUG-CC-PVTZ
    Blend: AUG-CC-PVTZ
  Basis Set: (AUG-CC-PVTZ AUX)
    Blend: AUG-CC-PVTZ-JKFIT + DEF2-UNIVERSAL-JKFIT
  @DF-RHF Final Energy: -2572.53368190132051
    Total Energy =                      -2572.5336819013205059
 Dipole X            :       -170.7449333          166.0011963           -4.7437371
 Dipole Y            :         -0.0000000            0.0000000           -0.0000000
 Dipole Z            :          0.0000000            0.0000000            0.0000000
 Magnitude           :                                                    4.7437371
  Basis Set: (AUG-CC-PVTZ AUX)
    Blend: AUG-CC-PVTZ-RI + DEF2-QZVPP-RI
	 Reference Energy          =   -2572.5336819013205059 [Eh]
	 Singles Energy            =      -0.0000000000000000 [Eh]
	 Same-Spin Energy          =      -0.0876522633591165 [Eh]
	 Opposite-Spin Energy      =      -0.2031493161223228 [Eh]
	 Correlation Energy        =      -0.2908015794814393 [Eh]
	 Total Energy              =   -2572.8244834808019732 [Eh]
	 SCS Total Energy          =   -2572.8066785017867915 [Eh]
                               Psi4 1.9 release
    Molecular point group: c1
  Multiplicity = 1
  Basis Set: AUG-CC-PVTZ
    Blend: AUG-CC-PVTZ
  Basis Set: (AUG-CC-PVTZ AUX)
    Blend: AUG-CC-PVTZ-JKFIT + DEF2-UNIVERSAL-JKFIT
  @DF-RHF Final Energy:  -599.01750836995166
    Total Energy =                       -599.0175083699516563
  Basis Set: (AUG-CC-PVTZ AUX)
	 Singles Energy            =      -0.0000000000000000 [Eh]
	 Same-Spin Energy          =      -0.0290641421279333 [Eh]
	 Opposite-Spin Energy      =      -0.0685248203179434 [Eh]
	 Correlation Energy        =      -0.0975889624458767 [Eh]
	 Total Energy              =    -599.1150973323975677 [Eh]
	 SCS Total Energy          =    -599.1094262017091978 [Eh]
                               Psi4 1.9 release
    Molecular point group: c1

    Geometry (in Bohr), charge = 0, multiplicity = 1:

       Center              X                  Y                   Z               Mass
    ------------   -----------------  -----------------  -----------------  -----------------
         K            0.000000000000     0.000000000000     0.000000000000    38.963706486400
         BR           4.742891321458     0.000000000000     0.000000000000    78.918337600000

  Charge       = 0
  Multiplicity = 1
  Basis Set: AUG-CC-PVTZ
    Blend: AUG-CC-PVTZ
  Basis Set: (AUG-CC-PVTZ AUX)
    Blend: AUG-CC-PVTZ-JKFIT + DEF2-UNIVERSAL-JKFIT

    Orbital Energies [Eh]
    ---------------------

    Doubly Occupied:

       1A   -489.897989     2A   -133.503672     3A    -65.039465
       4A    -58.393859     5A    -58.393859     6A    -58.393713
       7A    -14.463577     8A    -11.493171     9A    -11.492879
      10A    -11.492879    11A     -9.713174    12A     -7.320770
      13A     -7.320605    14A     -7.320605    15A     -3.062382
      16A     -3.062382    17A     -3.062006    18A     -3.061987
      19A     -3.061987    20A     -1.733751    21A     -0.970798
      22A     -0.942487    23A     -0.942487    24A     -0.856103
      25A     -0.331889    26A     -0.329294    27A     -0.329294

  @DF-RHF Final Energy: -3171.70162792471137

   => Energetics <=

    Nuclear Repulsion Energy =            140.2098329749624668
    One-Electron Energy =               -4691.8487901668886479
    Two-Electron Energy =                1379.9373292672148636
    Total Energy =                      -3171.7016279247113744
 Dipole X            :       -169.7467947          166.0011963           -3.7455985
 Dipole Y            :          0.0000000            0.0000000            0.0000000
 Dipole Z            :          0.0000000            0.0000000            0.0000000
 Magnitude           :                                                    3.7455985
  Basis Set: (AUG-CC-PVTZ AUX)
    Blend: AUG-CC-PVTZ-RI + DEF2-QZVPP-RI
	 Reference Energy          =   -3171.7016279247113744 [Eh]
	 Singles Energy            =      -0.0000000000000000 [Eh]
	 Same-Spin Energy          =      -0.1211389382197970 [Eh]
	 Opposite-Spin Energy      =      -0.2752510504116798 [Eh]
	 Correlation Energy        =      -0.3963899886314768 [Eh]
	 Total Energy              =   -3172.0980179133430283 [Eh]

	 ================> DF-SCS-MP2 Energies <==================
	-----------------------------------------------------------
	 SCS Same-Spin Scale       =       0.3333333333333333 [-]
	 SCS Opposite-Spin Scale   =       1.2000000000000000 [-]
	 SCS Same-Spin Energy      =      -0.0403796460732657 [Eh]
	 SCS Opposite-Spin Energy  =      -0.3303012604940158 [Eh]
	 SCS Correlation Energy    =      -0.3706809065672814 [Eh]
	 SCS Total Energy          =   -3172.0723088312788605 [Eh]
	-----------------------------------------------------------

*** Psi4 exiting successfully. Buy a developer a beer!
