                               Psi4 1.9 release

  ==> Input File <==

--------------------------------------------------------------------------
MEMORY 60 GB

molecule dimer {
1 1
K     0.000000     0.000000     0.000000
--
-1 1
Br     2.928135     0.000000     0.000000

units ang
no_reorient
no_com
symmetry c1
}

set {
basis        aug-cc-pVTZ
scf_type     df
}

energy("mp2", bsse_type="cp")
--------------------------------------------------------------------------

                               Psi4 1.9 release
    Molecular point group: c1
  Charge       = -1
  Multiplicity = 1
  Basis Set: AUG-CC-PVTZ
    Blend: AUG-CC-PVTZ
  Basis Set: (AUG-CC-PVTZ AUX)
    Blend: AUG-CC-PVTZ-JKFIT + DEF2-UNIVERSAL-JKFIT
  @DF-RHF Final Energy: -2572.53367908764358
    Total Energy =                      -2572.5336790876435771
 Dipole X            :       -199.2022323          193.6680623           -5.5341700
 Dipole Y            :          0.0000000            0.0000000            0.0000000
 Dipole Z            :          0.0000000            0.0000000            0.0000000
 Magnitude           :                                                    5.5341700
  Basis Set: (AUG-CC-PVTZ AUX)
    Blend: AUG-CC-PVTZ-RI + DEF2-QZVPP-RI
	 Reference Energy          =   -2572.5336790876435771 [Eh]
	 Singles Energy            =      -0.0000000000000000 [Eh]
	 Same-Spin Energy          =      -0.0875139479192607 [Eh]
	 Opposite-Spin Energy      =      -0.2028020479891567 [Eh]
	 Correlation Energy        =      -0.2903159959084174 [Eh]
	 Total Energy              =   -2572.8239950835518357 [Eh]
	 SCS Total Energy          =   -2572.8062128612036759 [Eh]
                               Psi4 1.9 release
    Molecular point group: c1
  Multiplicity = 1
  Basis Set: AUG-CC-PVTZ
    Blend: AUG-CC-PVTZ
  Basis Set: (AUG-CC-PVTZ AUX)
    Blend: AUG-CC-PVTZ-JKFIT + DEF2-UNIVERSAL-JKFIT
  @DF-RHF Final Energy:  -599.01750762838992
    Total Energy =                       -599.0175076283900353
  Basis Set: (AUG-CC-PVTZ AUX)
	 Singles Energy            =      -0.0000000000000000 [Eh]
	 Same-Spin Energy          =      -0.0272639546869180 [Eh]
	 Opposite-Spin Energy      =      -0.0632798069728161 [Eh]
	 Correlation Energy        =      -0.0905437616597341 [Eh]
	 Total Energy              =    -599.1080513900496953 [Eh]
	 SCS Total Energy          =    -599.1025313816529660 [Eh]
                               Psi4 1.9 release
    Molecular point group: c1

    Geometry (in Bohr), charge = 0, multiplicity = 1:

       Center              X                  Y                   Z               Mass
    ------------   -----------------  -----------------  -----------------  -----------------
         K            0.000000000000     0.000000000000     0.000000000000    38.963706486400
         BR           5.533373208367     0.000000000000     0.000000000000    78.918337600000

  Charge       = 0
  Multiplicity = 1
  Basis Set: AUG-CC-PVTZ
    Blend: AUG-CC-PVTZ
  Basis Set: (AUG-CC-PVTZ AUX)
    Blend: AUG-CC-PVTZ-JKFIT + DEF2-UNIVERSAL-JKFIT

    Orbital Energies [Eh]
    ---------------------

    Doubly Occupied:

       1A   -489.888920     2A   -133.543057     3A    -65.029362
       4A    -58.383812     5A    -58.383812     6A    -58.383806
       7A    -14.500179     8A    -11.529982     9A    -11.529982
      10A    -11.529896    11A     -9.702044    12A     -7.309677
      13A     -7.309332    14A     -7.309332    15A     -3.051281
      16A     -3.051139    17A     -3.051139    18A     -3.050871
      19A     -3.050871    20A     -1.760930    21A     -0.969914
      22A     -0.969914    23A     -0.969759    24A     -0.857752
      25A     -0.321831    26A     -0.310474    27A     -0.310474

  @DF-RHF Final Energy: -3171.72146793281217

   => Energetics <=

    Nuclear Repulsion Energy =            120.1798568356821022
    One-Electron Energy =               -4651.6835604820116714
    Two-Electron Energy =                1359.7822357135178208
    Total Energy =                      -3171.7214679328121747
 Dipole X            :       -198.2072566          193.6680623           -4.5391943
 Dipole Y            :          0.0000000            0.0000000            0.0000000
 Dipole Z            :          0.0000000            0.0000000            0.0000000
 Magnitude           :                                                    4.5391943
  Basis Set: (AUG-CC-PVTZ AUX)
    Blend: AUG-CC-PVTZ-RI + DEF2-QZVPP-RI
	 Reference Energy          =   -3171.7214679328121747 [Eh]
	 Singles Energy            =      -0.0000000000000000 [Eh]
	 Same-Spin Energy          =      -0.1170438682516651 [Eh]
	 Opposite-Spin Energy      =      -0.2681761337409906 [Eh]
	 Correlation Energy        =      -0.3852200019926557 [Eh]
	 Total Energy              =   -3172.1066879348049952 [Eh]

	 ================> DF-SCS-MP2 Energies <==================
	-----------------------------------------------------------
	 SCS Same-Spin Scale       =       0.3333333333333333 [-]
	 SCS Opposite-Spin Scale   =       1.2000000000000000 [-]
	 SCS Same-Spin Energy      =      -0.0390146227505550 [Eh]
	 SCS Opposite-Spin Energy  =      -0.3218113604891887 [Eh]
	 SCS Correlation Energy    =      -0.3608259832397438 [Eh]
	 SCS Total Energy          =   -3172.0822939160520946 [Eh]
	-----------------------------------------------------------

*** Psi4 exiting successfully. Buy a developer a beer!
