                               Psi4 1.9 release

  ==> Input File <==

--------------------------------------------------------------------------
MEMORY 60 GB

molecule dimer {
1 1
K     0.000000     0.000000     0.000000
--
-1 1
Br     2.788700     0.000000     0.000000

units ang
no_reorient
no_com
symmetry c1
}

set {
basis        aug-cc-pVTZ
scf_type     df
}

energy("mp2", bsse_type="cp")
--------------------------------------------------------------------------

                               Psi4 1.9 release
    Molecular point group: c1
  Charge       = -1
  Multiplicity = 1
  Basis Set: AUG-CC-PVTZ
    Blend: AUG-CC-PVTZ
  Basis Set: (AUG-CC-PVTZ AUX)
    Blend: AUG-CC-PVTZ-JKFIT + DEF2-UNIVERSAL-JKFIT
  @DF-RHF Final Energy: -2572.53367985384284
    Total Energy =                      -2572.5336798538428411
 Dipole X            :       -189.7165506          184.4457736           -5.2707770
 Dipole Y            :          0.0000000            0.0000000            0.0000000
 Dipole Z            :          0.0000000            0.0000000            0.0000000
 Magnitude           :                                                    5.2707770
  Basis Set: (AUG-CC-PVTZ AUX)
    Blend: AUG-CC-PVTZ-RI + DEF2-QZVPP-RI
	 Reference Energy          =   -2572.5336798538428411 [Eh]
	 Singles Energy            =      -0.0000000000000000 [Eh]
	 Same-Spin Energy          =      -0.0875432205345004 [Eh]
	 Opposite-Spin Energy      =      -0.2028775332396691 [Eh]
	 Correlation Energy        =      -0.2904207537741695 [Eh]
	 Total Energy              =   -2572.8241006076168560 [Eh]
	 SCS Total Energy          =   -2572.8063139672417492 [Eh]
                               Psi4 1.9 release
    Molecular point group: c1
  Multiplicity = 1
  Basis Set: AUG-CC-PVTZ
    Blend: AUG-CC-PVTZ
  Basis Set: (AUG-CC-PVTZ AUX)
    Blend: AUG-CC-PVTZ-JKFIT + DEF2-UNIVERSAL-JKFIT
  @DF-RHF Final Energy:  -599.01750786680668
    Total Energy =                       -599.0175078668066817
  Basis Set: (AUG-CC-PVTZ AUX)
	 Singles Energy            =      -0.0000000000000000 [Eh]
	 Same-Spin Energy          =      -0.0277156430084927 [Eh]
	 Opposite-Spin Energy      =      -0.0646421822274781 [Eh]
	 Correlation Energy        =      -0.0923578252359709 [Eh]
	 Total Energy              =    -599.1098656920426038 [Eh]
	 SCS Total Energy          =    -599.1043170331491865 [Eh]
                               Psi4 1.9 release
    Molecular point group: c1

    Geometry (in Bohr), charge = 0, multiplicity = 1:

       Center              X                  Y                   Z               Mass
    ------------   -----------------  -----------------  -----------------  -----------------
         K            0.000000000000     0.000000000000     0.000000000000    38.963706486400
         BR           5.269879246064     0.000000000000     0.000000000000    78.918337600000

  Charge       = 0
  Multiplicity = 1
  Basis Set: AUG-CC-PVTZ
    Blend: AUG-CC-PVTZ
  Basis Set: (AUG-CC-PVTZ AUX)
    Blend: AUG-CC-PVTZ-JKFIT + DEF2-UNIVERSAL-JKFIT

    Orbital Energies [Eh]
    ---------------------

    Doubly Occupied:

       1A   -489.892255     2A   -133.530910     3A    -65.032934
       4A    -58.387381     5A    -58.387381     6A    -58.387326
       7A    -14.488756     8A    -11.518440     9A    -11.518440
      10A    -11.518422    11A     -9.705842    12A     -7.313429
      13A     -7.313197    14A     -7.313197    15A     -3.054935
      16A     -3.054853    17A     -3.054853    18A     -3.054818
      19A     -3.054818    20A     -1.751808    21A     -0.965637
      22A     -0.960868    23A     -0.960868    24A     -0.860378
      25A     -0.326699    26A     -0.316261    27A     -0.316261

  @DF-RHF Final Energy: -3171.72013124055002

   => Energetics <=

    Nuclear Repulsion Energy =            126.1888496774662087
    One-Electron Energy =               -4663.7360262686070200
    Two-Electron Energy =                1365.8270453505911064
    Total Energy =                      -3171.7201312405495628
 Dipole X            :       -188.7160001          184.4457736           -4.2702264
 Dipole Y            :         -0.0000000            0.0000000           -0.0000000
 Dipole Z            :          0.0000000            0.0000000            0.0000000
 Magnitude           :                                                    4.2702264
  Basis Set: (AUG-CC-PVTZ AUX)
    Blend: AUG-CC-PVTZ-RI + DEF2-QZVPP-RI
	 Reference Energy          =   -3171.7201312405500175 [Eh]
	 Singles Energy            =      -0.0000000000000000 [Eh]
	 Same-Spin Energy          =      -0.1180701878628518 [Eh]
	 Opposite-Spin Energy      =      -0.2699623357504430 [Eh]
	 Correlation Energy        =      -0.3880325236132948 [Eh]
	 Total Energy              =   -3172.1081637641632369 [Eh]

	 ================> DF-SCS-MP2 Energies <==================
	-----------------------------------------------------------
	 SCS Same-Spin Scale       =       0.3333333333333333 [-]
	 SCS Opposite-Spin Scale   =       1.2000000000000000 [-]
	 SCS Same-Spin Energy      =      -0.0393567292876173 [Eh]
	 SCS Opposite-Spin Energy  =      -0.3239548029005316 [Eh]
	 SCS Correlation Energy    =      -0.3633115321881489 [Eh]
	 SCS Total Energy          =   -3172.0834427727381808 [Eh]
	-----------------------------------------------------------

*** Psi4 exiting successfully. Buy a developer a beer!
