                               Psi4 1.9 release

  ==> Input File <==

--------------------------------------------------------------------------
MEMORY 60 GB

molecule dimer {
1 1
K     0.000000     0.000000     0.000000
--
-1 1
Br     3.346440     0.000000     0.000000

units ang
no_reorient
no_com
symmetry c1
}

set {
basis        aug-cc-pVTZ
scf_type     df
}

energy("mp2", bsse_type="cp")
--------------------------------------------------------------------------

                               Psi4 1.9 release
    Molecular point group: c1
  Charge       = -1
  Multiplicity = 1
  Basis Set: AUG-CC-PVTZ
    Blend: AUG-CC-PVTZ
  Basis Set: (AUG-CC-PVTZ AUX)
    Blend: AUG-CC-PVTZ-JKFIT + DEF2-UNIVERSAL-JKFIT
  @DF-RHF Final Energy: -2572.53367750002690
    Total Energy =                      -2572.5336775000268972
 Dipole X            :       -227.6592192          221.3349283           -6.3242908
 Dipole Y            :         -0.0000000            0.0000000           -0.0000000
 Dipole Z            :         -0.0000000            0.0000000           -0.0000000
 Magnitude           :                                                    6.3242908
  Basis Set: (AUG-CC-PVTZ AUX)
    Blend: AUG-CC-PVTZ-RI + DEF2-QZVPP-RI
	 Reference Energy          =   -2572.5336775000268972 [Eh]
	 Singles Energy            =      -0.0000000000000000 [Eh]
	 Same-Spin Energy          =      -0.0874090302689358 [Eh]
	 Opposite-Spin Energy      =      -0.2025579790707469 [Eh]
	 Correlation Energy        =      -0.2899670093396827 [Eh]
	 Total Energy              =   -2572.8236445093666589 [Eh]
	 SCS Total Energy          =   -2572.8058834183348154 [Eh]
                               Psi4 1.9 release
    Molecular point group: c1
  Multiplicity = 1
  Basis Set: AUG-CC-PVTZ
    Blend: AUG-CC-PVTZ
  Basis Set: (AUG-CC-PVTZ AUX)
    Blend: AUG-CC-PVTZ-JKFIT + DEF2-UNIVERSAL-JKFIT
  @DF-RHF Final Energy:  -599.01750706811629
    Total Energy =                       -599.0175070681161742
  Basis Set: (AUG-CC-PVTZ AUX)
	 Singles Energy            =      -0.0000000000000000 [Eh]
	 Same-Spin Energy          =      -0.0264319448102792 [Eh]
	 Opposite-Spin Energy      =      -0.0608321617814045 [Eh]
	 Correlation Energy        =      -0.0872641065916837 [Eh]
	 Total Energy              =    -599.1047711747079347 [Eh]
	 SCS Total Energy          =    -599.0993163105240455 [Eh]
                               Psi4 1.9 release
    Molecular point group: c1

    Geometry (in Bohr), charge = 0, multiplicity = 1:

       Center              X                  Y                   Z               Mass
    ------------   -----------------  -----------------  -----------------  -----------------
         K            0.000000000000     0.000000000000     0.000000000000    38.963706486400
         BR           6.323855095277     0.000000000000     0.000000000000    78.918337600000

  Charge       = 0
  Multiplicity = 1
  Basis Set: AUG-CC-PVTZ
    Blend: AUG-CC-PVTZ
  Basis Set: (AUG-CC-PVTZ AUX)
    Blend: AUG-CC-PVTZ-JKFIT + DEF2-UNIVERSAL-JKFIT

    Orbital Energies [Eh]
    ---------------------

    Doubly Occupied:

       1A   -489.877643     2A   -133.572832     3A    -65.017692
       4A    -58.372233     5A    -58.372128     6A    -58.372128
       7A    -14.528826     8A    -11.558812     9A    -11.558812
      10A    -11.558676    11A     -9.690010    12A     -7.297767
      13A     -7.297132    14A     -7.297132    15A     -3.039549
      16A     -3.039269    17A     -3.039269    18A     -3.038489
      19A     -3.038489    20A     -1.785984    21A     -0.994508
      22A     -0.994508    23A     -0.990186    24A     -0.844197
      25A     -0.304549    26A     -0.294976    27A     -0.294976

  @DF-RHF Final Energy: -3171.71262476351012

   => Energetics <=

    Nuclear Repulsion Energy =            105.1573747312218643
    One-Electron Energy =               -4621.5984568190051505
    Two-Electron Energy =                1344.7284573242725401
    Total Energy =                      -3171.7126247635105756
 Dipole X            :       -226.7029815          221.3349283           -5.3680532
 Dipole Y            :          0.0000000            0.0000000            0.0000000
 Dipole Z            :         -0.0000000            0.0000000           -0.0000000
 Magnitude           :                                                    5.3680532
  Basis Set: (AUG-CC-PVTZ AUX)
    Blend: AUG-CC-PVTZ-RI + DEF2-QZVPP-RI
	 Reference Energy          =   -3171.7126247635101208 [Eh]
	 Singles Energy            =      -0.0000000000000000 [Eh]
	 Same-Spin Energy          =      -0.1151147200544125 [Eh]
	 Opposite-Spin Energy      =      -0.2648734413593587 [Eh]
	 Correlation Energy        =      -0.3799881614137712 [Eh]
	 Total Energy              =   -3172.0926129249237420 [Eh]

	 ================> DF-SCS-MP2 Energies <==================
	-----------------------------------------------------------
	 SCS Same-Spin Scale       =       0.3333333333333333 [-]
	 SCS Opposite-Spin Scale   =       1.2000000000000000 [-]
	 SCS Same-Spin Energy      =      -0.0383715733514708 [Eh]
	 SCS Opposite-Spin Energy  =      -0.3178481296312304 [Eh]
	 SCS Correlation Energy    =      -0.3562197029827013 [Eh]
	 SCS Total Energy          =   -3172.0688444664929193 [Eh]
	-----------------------------------------------------------

*** Psi4 exiting successfully. Buy a developer a beer!
