                               Psi4 1.9 release

  ==> Input File <==

--------------------------------------------------------------------------
MEMORY 60 GB

molecule dimer {
1 1
K     0.000000     0.000000     0.000000
--
-1 1
Br     5.577400     0.000000     0.000000

units ang
no_reorient
no_com
symmetry c1
}

set {
basis        aug-cc-pVTZ
scf_type     df
}

energy("mp2", bsse_type="cp")
--------------------------------------------------------------------------

                               Psi4 1.9 release
    Molecular point group: c1
  Charge       = -1
  Multiplicity = 1
  Basis Set: AUG-CC-PVTZ
    Blend: AUG-CC-PVTZ
  Basis Set: (AUG-CC-PVTZ AUX)
    Blend: AUG-CC-PVTZ-JKFIT + DEF2-UNIVERSAL-JKFIT
  @DF-RHF Final Energy: -2572.53366946726965
    Total Energy =                      -2572.5336694672696467
 Dipole X            :       -379.4314759          368.8915472          -10.5399287
 Dipole Y            :          0.0000000            0.0000000            0.0000000
 Dipole Z            :         -0.0000000            0.0000000           -0.0000000
 Magnitude           :                                                   10.5399287
  Basis Set: (AUG-CC-PVTZ AUX)
    Blend: AUG-CC-PVTZ-RI + DEF2-QZVPP-RI
	 Reference Energy          =   -2572.5336694672696467 [Eh]
	 Singles Energy            =      -0.0000000000000000 [Eh]
	 Same-Spin Energy          =      -0.0868782210886829 [Eh]
	 Opposite-Spin Energy      =      -0.2014234966553004 [Eh]
	 Correlation Energy        =      -0.2883017177439833 [Eh]
	 Total Energy              =   -2572.8219711850138083 [Eh]
	 SCS Total Energy          =   -2572.8043370702857828 [Eh]
                               Psi4 1.9 release
    Molecular point group: c1
  Multiplicity = 1
  Basis Set: AUG-CC-PVTZ
    Blend: AUG-CC-PVTZ
  Basis Set: (AUG-CC-PVTZ AUX)
    Blend: AUG-CC-PVTZ-JKFIT + DEF2-UNIVERSAL-JKFIT
  @DF-RHF Final Energy:  -599.01750597839521
    Total Energy =                       -599.0175059783952065
  Basis Set: (AUG-CC-PVTZ AUX)
	 Singles Energy            =      -0.0000000000000000 [Eh]
	 Same-Spin Energy          =      -0.0253305267338958 [Eh]
	 Opposite-Spin Energy      =      -0.0577940947238711 [Eh]
	 Correlation Energy        =      -0.0831246214577669 [Eh]
	 Total Energy              =    -599.1006305998529342 [Eh]
	 SCS Total Energy          =    -599.0953024009751289 [Eh]
                               Psi4 1.9 release
    Molecular point group: c1

    Geometry (in Bohr), charge = 0, multiplicity = 1:

       Center              X                  Y                   Z               Mass
    ------------   -----------------  -----------------  -----------------  -----------------
         K            0.000000000000     0.000000000000     0.000000000000    38.963706486400
         BR          10.539758492128     0.000000000000     0.000000000000    78.918337600000

  Charge       = 0
  Multiplicity = 1
  Basis Set: AUG-CC-PVTZ
    Blend: AUG-CC-PVTZ
  Basis Set: (AUG-CC-PVTZ AUX)
    Blend: AUG-CC-PVTZ-JKFIT + DEF2-UNIVERSAL-JKFIT

    Orbital Energies [Eh]
    ---------------------

    Doubly Occupied:

       1A   -489.819170     2A   -133.654327     3A    -64.959219
       4A    -58.313743     5A    -58.313653     6A    -58.313653
       7A    -14.609725     8A    -11.639796     9A    -11.639796
      10A    -11.639752    11A     -9.631593    12A     -7.239199
      13A     -7.238765    14A     -7.238765    15A     -2.980950
      16A     -2.980769    17A     -2.980769    18A     -2.980219
      19A     -2.980219    20A     -1.864790    21A     -1.071780
      22A     -1.071780    23A     -1.070451    24A     -0.783941
      25A     -0.237480    26A     -0.236632    27A     -0.236632

  @DF-RHF Final Energy: -3171.64836642293631

   => Energetics <=

    Nuclear Repulsion Energy =             63.0944248387331044
    One-Electron Energy =               -4538.0304504150526554
    Two-Electron Energy =                1303.2876591533829469
    Total Energy =                      -3171.6483664229363058
 Dipole X            :       -378.9427127          368.8915472          -10.0511655
 Dipole Y            :         -0.0000000            0.0000000           -0.0000000
 Dipole Z            :          0.0000000            0.0000000            0.0000000
 Magnitude           :                                                   10.0511655
  Basis Set: (AUG-CC-PVTZ AUX)
    Blend: AUG-CC-PVTZ-RI + DEF2-QZVPP-RI
	 Reference Energy          =   -3171.6483664229363058 [Eh]
	 Singles Energy            =      -0.0000000000000000 [Eh]
	 Same-Spin Energy          =      -0.1123830397195247 [Eh]
	 Opposite-Spin Energy      =      -0.2596048196277688 [Eh]
	 Correlation Energy        =      -0.3719878593472935 [Eh]
	 Total Energy              =   -3172.0203542822837335 [Eh]

	 ================> DF-SCS-MP2 Energies <==================
	-----------------------------------------------------------
	 SCS Same-Spin Scale       =       0.3333333333333333 [-]
	 SCS Opposite-Spin Scale   =       1.2000000000000000 [-]
	 SCS Same-Spin Energy      =      -0.0374610132398416 [Eh]
	 SCS Opposite-Spin Energy  =      -0.3115257835533226 [Eh]
	 SCS Correlation Energy    =      -0.3489867967931641 [Eh]
	 SCS Total Energy          =   -3171.9973532197295754 [Eh]
	-----------------------------------------------------------

*** Psi4 exiting successfully. Buy a developer a beer!
