                               Psi4 1.9 release

  ==> Input File <==

--------------------------------------------------------------------------
MEMORY 60 GB

molecule dimer {
1 1
K     0.000000     0.000000     0.000000
--
-1 1
Br     3.904180     0.000000     0.000000

units ang
no_reorient
no_com
symmetry c1
}

set {
basis        aug-cc-pVTZ
scf_type     df
}

energy("mp2", bsse_type="cp")
--------------------------------------------------------------------------

                               Psi4 1.9 release
    Molecular point group: c1
  Charge       = -1
  Multiplicity = 1
  Basis Set: AUG-CC-PVTZ
    Blend: AUG-CC-PVTZ
  Basis Set: (AUG-CC-PVTZ AUX)
    Blend: AUG-CC-PVTZ-JKFIT + DEF2-UNIVERSAL-JKFIT
  @DF-RHF Final Energy: -2572.53367472000491
    Total Energy =                      -2572.5336747200049103
 Dipole X            :       -265.6022078          258.2240831           -7.3781247
 Dipole Y            :         -0.0000000            0.0000000           -0.0000000
 Dipole Z            :         -0.0000000            0.0000000           -0.0000000
 Magnitude           :                                                    7.3781247
  Basis Set: (AUG-CC-PVTZ AUX)
    Blend: AUG-CC-PVTZ-RI + DEF2-QZVPP-RI
	 Reference Energy          =   -2572.5336747200049103 [Eh]
	 Singles Energy            =      -0.0000000000000000 [Eh]
	 Same-Spin Energy          =      -0.0871919744830528 [Eh]
	 Opposite-Spin Energy      =      -0.2020937558938691 [Eh]
	 Correlation Energy        =      -0.2892857303769219 [Eh]
	 Total Energy              =   -2572.8229604503817427 [Eh]
	 SCS Total Energy          =   -2572.8052512185718115 [Eh]
                               Psi4 1.9 release
    Molecular point group: c1
  Multiplicity = 1
  Basis Set: AUG-CC-PVTZ
    Blend: AUG-CC-PVTZ
  Basis Set: (AUG-CC-PVTZ AUX)
    Blend: AUG-CC-PVTZ-JKFIT + DEF2-UNIVERSAL-JKFIT
  @DF-RHF Final Energy:  -599.01750690523863
    Total Energy =                       -599.0175069052386334
  Basis Set: (AUG-CC-PVTZ AUX)
	 Singles Energy            =      -0.0000000000000000 [Eh]
	 Same-Spin Energy          =      -0.0259015977461787 [Eh]
	 Opposite-Spin Energy      =      -0.0594986915160490 [Eh]
	 Correlation Energy        =      -0.0854002892622277 [Eh]
	 Total Energy              =    -599.1029071945008582 [Eh]
	 SCS Total Energy          =    -599.0975392009733014 [Eh]
                               Psi4 1.9 release
    Molecular point group: c1

    Geometry (in Bohr), charge = 0, multiplicity = 1:

       Center              X                  Y                   Z               Mass
    ------------   -----------------  -----------------  -----------------  -----------------
         K            0.000000000000     0.000000000000     0.000000000000    38.963706486400
         BR           7.377830944490     0.000000000000     0.000000000000    78.918337600000

  Charge       = 0
  Multiplicity = 1
  Basis Set: AUG-CC-PVTZ
    Blend: AUG-CC-PVTZ
  Basis Set: (AUG-CC-PVTZ AUX)
    Blend: AUG-CC-PVTZ-JKFIT + DEF2-UNIVERSAL-JKFIT

    Orbital Energies [Eh]
    ---------------------

    Doubly Occupied:

       1A   -489.861119     2A   -133.601704     3A    -65.001063
       4A    -58.355638     5A    -58.355480     6A    -58.355480
       7A    -14.557337     8A    -11.587388     9A    -11.587388
      10A    -11.587268    11A     -9.673301    12A     -7.281110
      13A     -7.280341    14A     -7.280341    15A     -3.022951
      16A     -3.022617    17A     -3.022617    18A     -3.021623
      19A     -3.021623    20A     -1.813205    21A     -1.021102
      22A     -1.021102    23A     -1.017382    24A     -0.825552
      25A     -0.282400    26A     -0.277013    27A     -0.277013

  @DF-RHF Final Energy: -3171.69291829890608

   => Energetics <=

    Nuclear Repulsion Energy =             90.1348926267615838
    One-Electron Energy =               -4591.6333053399894197
    Two-Electron Energy =                1329.8054944143211742
    Total Energy =                      -3171.6929182989060791
 Dipole X            :       -264.7412549          258.2240831           -6.5171718
 Dipole Y            :          0.0000000            0.0000000            0.0000000
 Dipole Z            :         -0.0000000            0.0000000           -0.0000000
 Magnitude           :                                                    6.5171718
  Basis Set: (AUG-CC-PVTZ AUX)
    Blend: AUG-CC-PVTZ-RI + DEF2-QZVPP-RI
	 Reference Energy          =   -3171.6929182989060791 [Eh]
	 Singles Energy            =      -0.0000000000000000 [Eh]
	 Same-Spin Energy          =      -0.1138089479165835 [Eh]
	 Opposite-Spin Energy      =      -0.2627199352895899 [Eh]
	 Correlation Energy        =      -0.3765288832061734 [Eh]
	 Total Energy              =   -3172.0694471821120715 [Eh]

	 ================> DF-SCS-MP2 Energies <==================
	-----------------------------------------------------------
	 SCS Same-Spin Scale       =       0.3333333333333333 [-]
	 SCS Opposite-Spin Scale   =       1.2000000000000000 [-]
	 SCS Same-Spin Energy      =      -0.0379363159721945 [Eh]
	 SCS Opposite-Spin Energy  =      -0.3152639223475079 [Eh]
	 SCS Correlation Energy    =      -0.3532002383197024 [Eh]
	 SCS Total Energy          =   -3172.0461185372259934 [Eh]
	-----------------------------------------------------------

*** Psi4 exiting successfully. Buy a developer a beer!
