                               Psi4 1.9 release

  ==> Input File <==

--------------------------------------------------------------------------
MEMORY 60 GB

molecule dimer {
1 1
K     0.000000     0.000000     0.000000
--
-1 1
Br     3.067570     0.000000     0.000000

units ang
no_reorient
no_com
symmetry c1
}

set {
basis        aug-cc-pVTZ
scf_type     df
}

energy("mp2", bsse_type="cp")
--------------------------------------------------------------------------

                               Psi4 1.9 release
    Molecular point group: c1
  Charge       = -1
  Multiplicity = 1
  Basis Set: AUG-CC-PVTZ
    Blend: AUG-CC-PVTZ
  Basis Set: (AUG-CC-PVTZ AUX)
    Blend: AUG-CC-PVTZ-JKFIT + DEF2-UNIVERSAL-JKFIT
  @DF-RHF Final Energy: -2572.53367854866565
    Total Energy =                      -2572.5336785486661029
 Dipole X            :       -208.6878814          202.8903510           -5.7975304
 Dipole Y            :         -0.0000000            0.0000000           -0.0000000
 Dipole Z            :         -0.0000000            0.0000000           -0.0000000
 Magnitude           :                                                    5.7975304
  Basis Set: (AUG-CC-PVTZ AUX)
    Blend: AUG-CC-PVTZ-RI + DEF2-QZVPP-RI
	 Reference Energy          =   -2572.5336785486656481 [Eh]
	 Singles Energy            =      -0.0000000000000000 [Eh]
	 Same-Spin Energy          =      -0.0874897324868642 [Eh]
	 Opposite-Spin Energy      =      -0.2027403492442468 [Eh]
	 Correlation Energy        =      -0.2902300817311110 [Eh]
	 Total Energy              =   -2572.8239086303965450 [Eh]
	 SCS Total Energy          =   -2572.8061302119208449 [Eh]
                               Psi4 1.9 release
    Molecular point group: c1
  Multiplicity = 1
  Basis Set: AUG-CC-PVTZ
    Blend: AUG-CC-PVTZ
  Basis Set: (AUG-CC-PVTZ AUX)
    Blend: AUG-CC-PVTZ-JKFIT + DEF2-UNIVERSAL-JKFIT
  @DF-RHF Final Energy:  -599.01750739088550
    Total Energy =                       -599.0175073908856120
  Basis Set: (AUG-CC-PVTZ AUX)
	 Singles Energy            =      -0.0000000000000000 [Eh]
	 Same-Spin Energy          =      -0.0269262322312611 [Eh]
	 Opposite-Spin Energy      =      -0.0622394600183226 [Eh]
	 Correlation Energy        =      -0.0891656922495837 [Eh]
	 Total Energy              =    -599.1066730831350924 [Eh]
	 SCS Total Energy          =    -599.1011701536511964 [Eh]
                               Psi4 1.9 release
    Molecular point group: c1

    Geometry (in Bohr), charge = 0, multiplicity = 1:

       Center              X                  Y                   Z               Mass
    ------------   -----------------  -----------------  -----------------  -----------------
         K            0.000000000000     0.000000000000     0.000000000000    38.963706486400
         BR           5.796867170671     0.000000000000     0.000000000000    78.918337600000

  Charge       = 0
  Multiplicity = 1
  Basis Set: AUG-CC-PVTZ
    Blend: AUG-CC-PVTZ
  Basis Set: (AUG-CC-PVTZ AUX)
    Blend: AUG-CC-PVTZ-JKFIT + DEF2-UNIVERSAL-JKFIT

    Orbital Energies [Eh]
    ---------------------

    Doubly Occupied:

       1A   -489.885340     2A   -133.554127     3A    -65.025606
       4A    -58.380091     5A    -58.380053     6A    -58.380053
       7A    -14.510704     8A    -11.540594     9A    -11.540594
      10A    -11.540474    11A     -9.698124    12A     -7.305805
      13A     -7.305348    14A     -7.305348    15A     -3.047486
      16A     -3.047289    17A     -3.047289    18A     -3.046813
      19A     -3.046813    20A     -1.769760    21A     -0.978612
      22A     -0.978612    23A     -0.975922    24A     -0.853696
      25A     -0.316287    26A     -0.305036    27A     -0.305036

  @DF-RHF Final Energy: -3171.71999679029477

   => Energetics <=

    Nuclear Repulsion Energy =            114.7171360704238339
    One-Electron Energy =               -4640.7324450959276874
    Two-Electron Energy =                1354.2953122352084847
    Total Energy =                      -3171.7199967902952267
 Dipole X            :       -207.7026043          202.8903510           -4.8122533
 Dipole Y            :         -0.0000000            0.0000000           -0.0000000
 Dipole Z            :         -0.0000000            0.0000000           -0.0000000
 Magnitude           :                                                    4.8122533
  Basis Set: (AUG-CC-PVTZ AUX)
    Blend: AUG-CC-PVTZ-RI + DEF2-QZVPP-RI
	 Reference Energy          =   -3171.7199967902947719 [Eh]
	 Singles Energy            =      -0.0000000000000000 [Eh]
	 Same-Spin Energy          =      -0.1162606156480254 [Eh]
	 Opposite-Spin Energy      =      -0.2668154920854245 [Eh]
	 Correlation Energy        =      -0.3830761077334500 [Eh]
	 Total Energy              =   -3172.1030728980281310 [Eh]

	 ================> DF-SCS-MP2 Energies <==================
	-----------------------------------------------------------
	 SCS Same-Spin Scale       =       0.3333333333333333 [-]
	 SCS Opposite-Spin Scale   =       1.2000000000000000 [-]
	 SCS Same-Spin Energy      =      -0.0387535385493418 [Eh]
	 SCS Opposite-Spin Energy  =      -0.3201785905025095 [Eh]
	 SCS Correlation Energy    =      -0.3589321290518512 [Eh]
	 SCS Total Energy          =   -3172.0789289193467084 [Eh]
	-----------------------------------------------------------

*** Psi4 exiting successfully. Buy a developer a beer!
