                               Psi4 1.9 release

  ==> Input File <==

--------------------------------------------------------------------------
MEMORY 60 GB

molecule dimer {
1 1
K     0.000000     0.000000     0.000000
--
-1 1
Br     3.625310     0.000000     0.000000

units ang
no_reorient
no_com
symmetry c1
}

set {
basis        aug-cc-pVTZ
scf_type     df
}

energy("mp2", bsse_type="cp")
--------------------------------------------------------------------------

                               Psi4 1.9 release
    Molecular point group: c1
  Charge       = -1
  Multiplicity = 1
  Basis Set: AUG-CC-PVTZ
    Blend: AUG-CC-PVTZ
  Basis Set: (AUG-CC-PVTZ AUX)
    Blend: AUG-CC-PVTZ-JKFIT + DEF2-UNIVERSAL-JKFIT
  @DF-RHF Final Energy: -2572.53367610550549
    Total Energy =                      -2572.5336761055050374
 Dipole X            :       -246.6306737          239.7795057           -6.8511680
 Dipole Y            :         -0.0000000            0.0000000           -0.0000000
 Dipole Z            :         -0.0000000            0.0000000           -0.0000000
 Magnitude           :                                                    6.8511680
  Basis Set: (AUG-CC-PVTZ AUX)
    Blend: AUG-CC-PVTZ-RI + DEF2-QZVPP-RI
	 Reference Energy          =   -2572.5336761055054922 [Eh]
	 Singles Energy            =      -0.0000000000000000 [Eh]
	 Same-Spin Energy          =      -0.0872951220625229 [Eh]
	 Opposite-Spin Energy      =      -0.2023136511576902 [Eh]
	 Correlation Energy        =      -0.2896087732202132 [Eh]
	 Total Energy              =   -2572.8232848787256444 [Eh]
	 SCS Total Energy          =   -2572.8055508609154458 [Eh]
                               Psi4 1.9 release
    Molecular point group: c1
  Multiplicity = 1
  Basis Set: AUG-CC-PVTZ
    Blend: AUG-CC-PVTZ
  Basis Set: (AUG-CC-PVTZ AUX)
    Blend: AUG-CC-PVTZ-JKFIT + DEF2-UNIVERSAL-JKFIT
  @DF-RHF Final Energy:  -599.01750696243596
    Total Energy =                       -599.0175069624359594
  Basis Set: (AUG-CC-PVTZ AUX)
	 Singles Energy            =      -0.0000000000000000 [Eh]
	 Same-Spin Energy          =      -0.0260976556019695 [Eh]
	 Opposite-Spin Energy      =      -0.0599982953103545 [Eh]
	 Correlation Energy        =      -0.0860959509123240 [Eh]
	 Total Energy              =    -599.1036029133482543 [Eh]
	 SCS Total Energy          =    -599.0982041353423710 [Eh]
                               Psi4 1.9 release
    Molecular point group: c1

    Geometry (in Bohr), charge = 0, multiplicity = 1:

       Center              X                  Y                   Z               Mass
    ------------   -----------------  -----------------  -----------------  -----------------
         K            0.000000000000     0.000000000000     0.000000000000    38.963706486400
         BR           6.850843019884     0.000000000000     0.000000000000    78.918337600000

  Charge       = 0
  Multiplicity = 1
  Basis Set: AUG-CC-PVTZ
    Blend: AUG-CC-PVTZ
  Basis Set: (AUG-CC-PVTZ AUX)
    Blend: AUG-CC-PVTZ-JKFIT + DEF2-UNIVERSAL-JKFIT

    Orbital Energies [Eh]
    ---------------------

    Doubly Occupied:

       1A   -489.869458     2A   -133.588225     3A    -65.009420
       4A    -58.363988     5A    -58.363845     6A    -58.363845
       7A    -14.543997     8A    -11.574024     9A    -11.574024
      10A    -11.573893    11A     -9.681664    12A     -7.289463
      13A     -7.288727    14A     -7.288727    15A     -3.031290
      16A     -3.030968    17A     -3.030968    18A     -3.030027
      19A     -3.030027    20A     -1.800345    21A     -1.008535
      22A     -1.008535    23A     -1.004307    24A     -0.834628
      25A     -0.293070    26A     -0.285698    27A     -0.285698

  @DF-RHF Final Energy: -3171.70292355959782

   => Energetics <=

    Nuclear Repulsion Energy =             97.0683459057432430
    One-Electron Energy =               -4605.4477410945273732
    Two-Electron Energy =                1336.6764716291859258
    Total Energy =                      -3171.7029235595978207
 Dipole X            :       -245.7161390          239.7795057           -5.9366333
 Dipole Y            :         -0.0000000            0.0000000           -0.0000000
 Dipole Z            :          0.0000000            0.0000000            0.0000000
 Magnitude           :                                                    5.9366333
  Basis Set: (AUG-CC-PVTZ AUX)
    Blend: AUG-CC-PVTZ-RI + DEF2-QZVPP-RI
	 Reference Energy          =   -3171.7029235595978207 [Eh]
	 Singles Energy            =      -0.0000000000000000 [Eh]
	 Same-Spin Energy          =      -0.1143270073305233 [Eh]
	 Opposite-Spin Energy      =      -0.2635854185773543 [Eh]
	 Correlation Energy        =      -0.3779124259078775 [Eh]
	 Total Energy              =   -3172.0808359855054732 [Eh]

	 ================> DF-SCS-MP2 Energies <==================
	-----------------------------------------------------------
	 SCS Same-Spin Scale       =       0.3333333333333333 [-]
	 SCS Opposite-Spin Scale   =       1.2000000000000000 [-]
	 SCS Same-Spin Energy      =      -0.0381090024435077 [Eh]
	 SCS Opposite-Spin Energy  =      -0.3163025022928251 [Eh]
	 SCS Correlation Energy    =      -0.3544115047363329 [Eh]
	 SCS Total Energy          =   -3172.0573350643339836 [Eh]
	-----------------------------------------------------------

*** Psi4 exiting successfully. Buy a developer a beer!
