                               Psi4 1.9 release

  ==> Input File <==

--------------------------------------------------------------------------
MEMORY 60 GB

molecule dimer {
1 1
K     0.000000     0.000000     0.000000
--
-1 1
Br     4.183050     0.000000     0.000000

units ang
no_reorient
no_com
symmetry c1
}

set {
basis        aug-cc-pVTZ
scf_type     df
}

energy("mp2", bsse_type="cp")
--------------------------------------------------------------------------

                               Psi4 1.9 release
    Molecular point group: c1
  Charge       = -1
  Multiplicity = 1
  Basis Set: AUG-CC-PVTZ
    Blend: AUG-CC-PVTZ
  Basis Set: (AUG-CC-PVTZ AUX)
    Blend: AUG-CC-PVTZ-JKFIT + DEF2-UNIVERSAL-JKFIT
  @DF-RHF Final Energy: -2572.53367346941695
    Total Energy =                      -2572.5336734694169536
 Dipole X            :       -284.5737810          276.6686604           -7.9051206
 Dipole Y            :         -0.0000000            0.0000000           -0.0000000
 Dipole Z            :         -0.0000000            0.0000000           -0.0000000
 Magnitude           :                                                    7.9051206
  Basis Set: (AUG-CC-PVTZ AUX)
    Blend: AUG-CC-PVTZ-RI + DEF2-QZVPP-RI
	 Reference Energy          =   -2572.5336734694169536 [Eh]
	 Singles Energy            =      -0.0000000000000000 [Eh]
	 Same-Spin Energy          =      -0.0871089884293852 [Eh]
	 Opposite-Spin Energy      =      -0.2019163044995351 [Eh]
	 Correlation Energy        =      -0.2890252929289203 [Eh]
	 Total Energy              =   -2572.8226987623456807 [Eh]
	 SCS Total Energy          =   -2572.8050093642928005 [Eh]
                               Psi4 1.9 release
    Molecular point group: c1
  Multiplicity = 1
  Basis Set: AUG-CC-PVTZ
    Blend: AUG-CC-PVTZ
  Basis Set: (AUG-CC-PVTZ AUX)
    Blend: AUG-CC-PVTZ-JKFIT + DEF2-UNIVERSAL-JKFIT
  @DF-RHF Final Energy:  -599.01750677340453
    Total Energy =                       -599.0175067734045342
  Basis Set: (AUG-CC-PVTZ AUX)
	 Singles Energy            =      -0.0000000000000000 [Eh]
	 Same-Spin Energy          =      -0.0257863448318461 [Eh]
	 Opposite-Spin Energy      =      -0.0591588564763599 [Eh]
	 Correlation Energy        =      -0.0849452013082059 [Eh]
	 Total Energy              =    -599.1024519747127215 [Eh]
	 SCS Total Energy          =    -599.0970928494534746 [Eh]
                               Psi4 1.9 release
    Molecular point group: c1

    Geometry (in Bohr), charge = 0, multiplicity = 1:

       Center              X                  Y                   Z               Mass
    ------------   -----------------  -----------------  -----------------  -----------------
         K            0.000000000000     0.000000000000     0.000000000000    38.963706486400
         BR           7.904818869096     0.000000000000     0.000000000000    78.918337600000

  Charge       = 0
  Multiplicity = 1
  Basis Set: AUG-CC-PVTZ
    Blend: AUG-CC-PVTZ
  Basis Set: (AUG-CC-PVTZ AUX)
    Blend: AUG-CC-PVTZ-JKFIT + DEF2-UNIVERSAL-JKFIT

    Orbital Energies [Eh]
    ---------------------

    Doubly Occupied:

       1A   -489.852939     2A   -133.613636     3A    -64.992894
       4A    -58.347467     5A    -58.347308     6A    -58.347308
       7A    -14.569163     8A    -11.599228     9A    -11.599228
      10A    -11.599122    11A     -9.665153    12A     -7.272950
      13A     -7.272195    14A     -7.272195    15A     -3.014784
      16A     -3.014460    17A     -3.014460    18A     -3.013487
      19A     -3.013487    20A     -1.824688    21A     -1.032343
      22A     -1.032343    23A     -1.029173    24A     -0.817086
      25A     -0.272712    26A     -0.268885    27A     -0.268885

  @DF-RHF Final Energy: -3171.68343689288713

   => Energetics <=

    Nuclear Repulsion Energy =             84.1258997849774772
    One-Electron Energy =               -4579.6835079558995858
    Two-Electron Energy =                1323.8741712780351918
    Total Energy =                      -3171.6834368928871299
 Dipole X            :       -283.7744458          276.6686604           -7.1057854
 Dipole Y            :         -0.0000000            0.0000000           -0.0000000
 Dipole Z            :          0.0000000            0.0000000            0.0000000
 Magnitude           :                                                    7.1057854
  Basis Set: (AUG-CC-PVTZ AUX)
    Blend: AUG-CC-PVTZ-RI + DEF2-QZVPP-RI
	 Reference Energy          =   -3171.6834368928871299 [Eh]
	 Singles Energy            =      -0.0000000000000000 [Eh]
	 Same-Spin Energy          =      -0.1134558157421264 [Eh]
	 Opposite-Spin Energy      =      -0.2620690439579585 [Eh]
	 Correlation Energy        =      -0.3755248597000849 [Eh]
	 Total Energy              =   -3172.0589617525870381 [Eh]

	 ================> DF-SCS-MP2 Energies <==================
	-----------------------------------------------------------
	 SCS Same-Spin Scale       =       0.3333333333333333 [-]
	 SCS Opposite-Spin Scale   =       1.2000000000000000 [-]
	 SCS Same-Spin Energy      =      -0.0378186052473755 [Eh]
	 SCS Opposite-Spin Energy  =      -0.3144828527495502 [Eh]
	 SCS Correlation Energy    =      -0.3523014579969256 [Eh]
	 SCS Total Energy          =   -3172.0357383508840030 [Eh]
	-----------------------------------------------------------

*** Psi4 exiting successfully. Buy a developer a beer!
