                               Psi4 1.9 release

  ==> Input File <==

--------------------------------------------------------------------------
MEMORY 60 GB

molecule dimer {
1 1
K     0.000000     0.000000     0.000000
--
-1 1
Br     2.649265     0.000000     0.000000

units ang
no_reorient
no_com
symmetry c1
}

set {
basis        aug-cc-pVTZ
scf_type     df
}

energy("mp2", bsse_type="cp")
--------------------------------------------------------------------------

                               Psi4 1.9 release
    Molecular point group: c1
  Charge       = -1
  Multiplicity = 1
  Basis Set: AUG-CC-PVTZ
    Blend: AUG-CC-PVTZ
  Basis Set: (AUG-CC-PVTZ AUX)
    Blend: AUG-CC-PVTZ-JKFIT + DEF2-UNIVERSAL-JKFIT
  @DF-RHF Final Energy: -2572.53368084447902
    Total Energy =                      -2572.5336808444790222
 Dipole X            :       -180.2307930          175.2234849           -5.0073081
 Dipole Y            :          0.0000000            0.0000000            0.0000000
 Dipole Z            :          0.0000000            0.0000000            0.0000000
 Magnitude           :                                                    5.0073081
  Basis Set: (AUG-CC-PVTZ AUX)
    Blend: AUG-CC-PVTZ-RI + DEF2-QZVPP-RI
	 Reference Energy          =   -2572.5336808444790222 [Eh]
	 Singles Energy            =      -0.0000000000000000 [Eh]
	 Same-Spin Energy          =      -0.0875882938947081 [Eh]
	 Opposite-Spin Energy      =      -0.2029903574664688 [Eh]
	 Correlation Energy        =      -0.2905786513611769 [Eh]
	 Total Energy              =   -2572.8242594958401241 [Eh]
	 SCS Total Energy          =   -2572.8064653714036467 [Eh]
                               Psi4 1.9 release
    Molecular point group: c1
  Multiplicity = 1
  Basis Set: AUG-CC-PVTZ
    Blend: AUG-CC-PVTZ
  Basis Set: (AUG-CC-PVTZ AUX)
    Blend: AUG-CC-PVTZ-JKFIT + DEF2-UNIVERSAL-JKFIT
  @DF-RHF Final Energy:  -599.01750810048509
    Total Energy =                       -599.0175081004850881
  Basis Set: (AUG-CC-PVTZ AUX)
	 Singles Energy            =      -0.0000000000000000 [Eh]
	 Same-Spin Energy          =      -0.0283147740083263 [Eh]
	 Opposite-Spin Energy      =      -0.0663855200563444 [Eh]
	 Correlation Energy        =      -0.0947002940646707 [Eh]
	 Total Energy              =    -599.1122083945497252 [Eh]
	 SCS Total Energy          =    -599.1066089825554855 [Eh]
                               Psi4 1.9 release
    Molecular point group: c1

    Geometry (in Bohr), charge = 0, multiplicity = 1:

       Center              X                  Y                   Z               Mass
    ------------   -----------------  -----------------  -----------------  -----------------
         K            0.000000000000     0.000000000000     0.000000000000    38.963706486400
         BR           5.006385283761     0.000000000000     0.000000000000    78.918337600000

  Charge       = 0
  Multiplicity = 1
  Basis Set: AUG-CC-PVTZ
    Blend: AUG-CC-PVTZ
  Basis Set: (AUG-CC-PVTZ AUX)
    Blend: AUG-CC-PVTZ-JKFIT + DEF2-UNIVERSAL-JKFIT

    Orbital Energies [Eh]
    ---------------------

    Doubly Occupied:

       1A   -489.895282     2A   -133.517781     3A    -65.036291
       4A    -58.390723     5A    -58.390723     6A    -58.390618
       7A    -14.476540     8A    -11.506162     9A    -11.506063
      10A    -11.506063    11A     -9.709522    12A     -7.317084
      13A     -7.316933    14A     -7.316933    15A     -3.058638
      16A     -3.058638    17A     -3.058469    18A     -3.058436
      19A     -3.058436    20A     -1.742635    21A     -0.965319
      22A     -0.951653    23A     -0.951653    24A     -0.860283
      25A     -0.330325    26A     -0.322487    27A     -0.322487

  @DF-RHF Final Energy: -3171.71434192323932

   => Energetics <=

    Nuclear Repulsion Energy =            132.8303680815433836
    One-Electron Energy =               -4677.0570672381181794
    Two-Electron Energy =                1372.5123572333354787
    Total Energy =                      -3171.7143419232393171
 Dipole X            :       -179.2293226          175.2234849           -4.0058377
 Dipole Y            :         -0.0000000            0.0000000           -0.0000000
 Dipole Z            :          0.0000000            0.0000000            0.0000000
 Magnitude           :                                                    4.0058377
  Basis Set: (AUG-CC-PVTZ AUX)
    Blend: AUG-CC-PVTZ-RI + DEF2-QZVPP-RI
	 Reference Energy          =   -3171.7143419232393171 [Eh]
	 Singles Energy            =      -0.0000000000000000 [Eh]
	 Same-Spin Energy          =      -0.1194183575902277 [Eh]
	 Opposite-Spin Energy      =      -0.2722979696008085 [Eh]
	 Correlation Energy        =      -0.3917163271910362 [Eh]
	 Total Energy              =   -3172.1060582504305785 [Eh]

	 ================> DF-SCS-MP2 Energies <==================
	-----------------------------------------------------------
	 SCS Same-Spin Scale       =       0.3333333333333333 [-]
	 SCS Opposite-Spin Scale   =       1.2000000000000000 [-]
	 SCS Same-Spin Energy      =      -0.0398061191967426 [Eh]
	 SCS Opposite-Spin Energy  =      -0.3267575635209702 [Eh]
	 SCS Correlation Energy    =      -0.3665636827177128 [Eh]
	 SCS Total Energy          =   -3172.0809056059570139 [Eh]
	-----------------------------------------------------------

*** Psi4 exiting successfully. Buy a developer a beer!
