                               Psi4 1.9 release

  ==> Input File <==

--------------------------------------------------------------------------
MEMORY 60 GB

molecule dimer {
0 1
O      0.000000     0.000000     0.000000
H     -0.585743     0.764276     0.000000
H     -0.585743    -0.764276     0.000000
--
1 1
Li     1.828878     0.000000     0.000000

units ang
no_reorient
no_com
symmetry c1
}

set {
basis        aug-cc-pVTZ
scf_type     df
}

energy("mp2", bsse_type="cp")
--------------------------------------------------------------------------

                               Psi4 1.9 release
    Molecular point group: c1
  Charge       = 1
  Multiplicity = 1
  Basis Set: AUG-CC-PVTZ
    Blend: AUG-CC-PVTZ
  Basis Set: (AUG-CC-PVTZ AUX)
    Blend: AUG-CC-PVTZ-JKFIT + DEF2-UNIVERSAL-JKFIT
  @DF-RHF Final Energy:    -7.23638357033763
    Total Energy =                         -7.2363835703376278
 Dipole X            :         -6.9121683           10.3682356            3.4560673
 Dipole Y            :          0.0000000            0.0000000            0.0000000
 Dipole Z            :          0.0000000            0.0000000            0.0000000
 Magnitude           :                                                    3.4560673
  Basis Set: (AUG-CC-PVTZ AUX)
    Blend: AUG-CC-PVTZ-RI + DEF2-QZVPP-RI
	 Reference Energy          =      -7.2363835703376278 [Eh]
	 Singles Energy            =      -0.0000000000000000 [Eh]
	 Same-Spin Energy          =       0.0000000000000000 [Eh]
	 Opposite-Spin Energy      =      -0.0134189907738821 [Eh]
	 Correlation Energy        =      -0.0134189907738821 [Eh]
	 Total Energy              =      -7.2498025611115100 [Eh]
	 SCS Total Energy          =      -7.2524863592662863 [Eh]
                               Psi4 1.9 release
    Molecular point group: c1
  Multiplicity = 1
  Basis Set: AUG-CC-PVTZ
    Blend: AUG-CC-PVTZ
  Basis Set: (AUG-CC-PVTZ AUX)
    Blend: AUG-CC-PVTZ-JKFIT + DEF2-UNIVERSAL-JKFIT
  @DF-RHF Final Energy:   -76.06025899346933
    Total Energy =                        -76.0602589934693469
  Basis Set: (AUG-CC-PVTZ AUX)
	 Singles Energy            =      -0.0000000000000000 [Eh]
	 Same-Spin Energy          =      -0.0684725432715882 [Eh]
	 Opposite-Spin Energy      =      -0.2158455063501166 [Eh]
	 Correlation Energy        =      -0.2843180496217048 [Eh]
	 Total Energy              =     -76.3445770430910358 [Eh]
	 SCS Total Energy          =     -76.3420977821800051 [Eh]
                               Psi4 1.9 release
    Molecular point group: c1

    Geometry (in Bohr), charge = 1, multiplicity = 1:

       Center              X                  Y                   Z               Mass
    ------------   -----------------  -----------------  -----------------  -----------------
         O            0.000000000000     0.000000000000     0.000000000000    15.994914619570
         H           -1.106893849904     1.444272324260     0.000000000000     1.007825032230
         H           -1.106893849904    -1.444272324260     0.000000000000     1.007825032230
         LI           3.456078536875     0.000000000000     0.000000000000     7.016003436600

  Charge       = 1
  Multiplicity = 1
  Basis Set: AUG-CC-PVTZ
    Blend: AUG-CC-PVTZ
  Basis Set: (AUG-CC-PVTZ AUX)
    Blend: AUG-CC-PVTZ-JKFIT + DEF2-UNIVERSAL-JKFIT

    Orbital Energies [Eh]
    ---------------------

    Doubly Occupied:

       1A    -20.813274     2A     -2.701773     3A     -1.602204
       4A     -0.963607     5A     -0.867653     6A     -0.764261

  @DF-RHF Final Energy:   -83.35325169796363

   => Energetics <=

    Nuclear Repulsion Energy =             17.3370010496609481
    One-Electron Energy =                -145.9549587992741522
    Two-Electron Energy =                  45.2647060516495756
    Total Energy =                        -83.3532516979636284
 Dipole X            :         -5.9423384            8.1544479            2.2121095
 Dipole Y            :          0.0000000            0.0000000            0.0000000
 Dipole Z            :          0.0000000            0.0000000            0.0000000
 Magnitude           :                                                    2.2121095
  Basis Set: (AUG-CC-PVTZ AUX)
    Blend: AUG-CC-PVTZ-RI + DEF2-QZVPP-RI
	 Reference Energy          =     -83.3532516979636284 [Eh]
	 Singles Energy            =      -0.0000000000000000 [Eh]
	 Same-Spin Energy          =      -0.0678007243139823 [Eh]
	 Opposite-Spin Energy      =      -0.2265895823074848 [Eh]
	 Correlation Energy        =      -0.2943903066214671 [Eh]
	 Total Energy              =     -83.6476420045850944 [Eh]

	 ================> DF-SCS-MP2 Energies <==================
	-----------------------------------------------------------
	 SCS Same-Spin Scale       =       0.3333333333333333 [-]
	 SCS Opposite-Spin Scale   =       1.2000000000000000 [-]
	 SCS Same-Spin Energy      =      -0.0226002414379941 [Eh]
	 SCS Opposite-Spin Energy  =      -0.2719074987689817 [Eh]
	 SCS Correlation Energy    =      -0.2945077402069758 [Eh]
	 SCS Total Energy          =     -83.6477594381706098 [Eh]
	-----------------------------------------------------------

*** Psi4 exiting successfully. Buy a developer a beer!
