                               Psi4 1.9 release

  ==> Input File <==

--------------------------------------------------------------------------
MEMORY 60 GB

molecule dimer {
0 1
O      0.000000     0.000000     0.000000
H     -0.585743     0.764276     0.000000
H     -0.585743    -0.764276     0.000000
--
1 1
Li     2.011766     0.000000     0.000000

units ang
no_reorient
no_com
symmetry c1
}

set {
basis        aug-cc-pVTZ
scf_type     df
}

energy("mp2", bsse_type="cp")
--------------------------------------------------------------------------

                               Psi4 1.9 release
    Molecular point group: c1
  Charge       = 1
  Multiplicity = 1
  Basis Set: AUG-CC-PVTZ
    Blend: AUG-CC-PVTZ
  Basis Set: (AUG-CC-PVTZ AUX)
    Blend: AUG-CC-PVTZ-JKFIT + DEF2-UNIVERSAL-JKFIT
  @DF-RHF Final Energy:    -7.23638343163455
    Total Energy =                         -7.2363834316345486
 Dipole X            :         -7.6034109           11.4050603            3.8016495
 Dipole Y            :          0.0000000            0.0000000            0.0000000
 Dipole Z            :          0.0000000            0.0000000            0.0000000
 Magnitude           :                                                    3.8016495
  Basis Set: (AUG-CC-PVTZ AUX)
    Blend: AUG-CC-PVTZ-RI + DEF2-QZVPP-RI
	 Reference Energy          =      -7.2363834316345486 [Eh]
	 Singles Energy            =      -0.0000000000000000 [Eh]
	 Same-Spin Energy          =       0.0000000000000000 [Eh]
	 Opposite-Spin Energy      =      -0.0127148824572270 [Eh]
	 Correlation Energy        =      -0.0127148824572270 [Eh]
	 Total Energy              =      -7.2490983140917757 [Eh]
	 SCS Total Energy          =      -7.2516412905832208 [Eh]
                               Psi4 1.9 release
    Molecular point group: c1
  Multiplicity = 1
  Basis Set: AUG-CC-PVTZ
    Blend: AUG-CC-PVTZ
  Basis Set: (AUG-CC-PVTZ AUX)
    Blend: AUG-CC-PVTZ-JKFIT + DEF2-UNIVERSAL-JKFIT
  @DF-RHF Final Energy:   -76.06025660873188
    Total Energy =                        -76.0602566087318763
  Basis Set: (AUG-CC-PVTZ AUX)
	 Singles Energy            =      -0.0000000000000000 [Eh]
	 Same-Spin Energy          =      -0.0684648457539509 [Eh]
	 Opposite-Spin Energy      =      -0.2157732785113741 [Eh]
	 Correlation Energy        =      -0.2842381242653251 [Eh]
	 Total Energy              =     -76.3444947329972052 [Eh]
	 SCS Total Energy          =     -76.3420061581968383 [Eh]
                               Psi4 1.9 release
    Molecular point group: c1

    Geometry (in Bohr), charge = 1, multiplicity = 1:

       Center              X                  Y                   Z               Mass
    ------------   -----------------  -----------------  -----------------  -----------------
         O            0.000000000000     0.000000000000     0.000000000000    15.994914619570
         H           -1.106893849904     1.444272324260     0.000000000000     1.007825032230
         H           -1.106893849904    -1.444272324260     0.000000000000     1.007825032230
         LI           3.801686768508     0.000000000000     0.000000000000     7.016003436600

  Charge       = 1
  Multiplicity = 1
  Basis Set: AUG-CC-PVTZ
    Blend: AUG-CC-PVTZ
  Basis Set: (AUG-CC-PVTZ AUX)
    Blend: AUG-CC-PVTZ-JKFIT + DEF2-UNIVERSAL-JKFIT

    Orbital Energies [Eh]
    ---------------------

    Doubly Occupied:

       1A    -20.800158     2A     -2.714923     3A     -1.585310
       4A     -0.947895     5A     -0.845090     6A     -0.747642

  @DF-RHF Final Energy:   -83.35056934754947

   => Energetics <=

    Nuclear Repulsion Energy =             16.6247109484629050
    One-Electron Energy =                -144.6685226618773186
    Two-Electron Energy =                  44.6932423658649469
    Total Energy =                        -83.3505693475494667
 Dipole X            :         -6.6112821            9.1912726            2.5799905
 Dipole Y            :         -0.0000000            0.0000000           -0.0000000
 Dipole Z            :          0.0000000            0.0000000            0.0000000
 Magnitude           :                                                    2.5799905
  Basis Set: (AUG-CC-PVTZ AUX)
    Blend: AUG-CC-PVTZ-RI + DEF2-QZVPP-RI
	 Reference Energy          =     -83.3505693475494667 [Eh]
	 Singles Energy            =      -0.0000000000000000 [Eh]
	 Same-Spin Energy          =      -0.0679369749902188 [Eh]
	 Opposite-Spin Energy      =      -0.2264599753541395 [Eh]
	 Correlation Energy        =      -0.2943969503443583 [Eh]
	 Total Energy              =     -83.6449662978938306 [Eh]

	 ================> DF-SCS-MP2 Energies <==================
	-----------------------------------------------------------
	 SCS Same-Spin Scale       =       0.3333333333333333 [-]
	 SCS Opposite-Spin Scale   =       1.2000000000000000 [-]
	 SCS Same-Spin Energy      =      -0.0226456583300729 [Eh]
	 SCS Opposite-Spin Energy  =      -0.2717519704249674 [Eh]
	 SCS Correlation Energy    =      -0.2943976287550403 [Eh]
	 SCS Total Energy          =     -83.6449669763045023 [Eh]
	-----------------------------------------------------------

*** Psi4 exiting successfully. Buy a developer a beer!
