                               Psi4 1.9 release

  ==> Input File <==

--------------------------------------------------------------------------
MEMORY 60 GB

molecule dimer {
0 1
O      0.000000     0.000000     0.000000
H     -0.585743     0.764276     0.000000
H     -0.585743    -0.764276     0.000000
--
1 1
Li     2.194654     0.000000     0.000000

units ang
no_reorient
no_com
symmetry c1
}

set {
basis        aug-cc-pVTZ
scf_type     df
}

energy("mp2", bsse_type="cp")
--------------------------------------------------------------------------

                               Psi4 1.9 release
    Molecular point group: c1
  Charge       = 1
  Multiplicity = 1
  Basis Set: AUG-CC-PVTZ
    Blend: AUG-CC-PVTZ
  Basis Set: (AUG-CC-PVTZ AUX)
    Blend: AUG-CC-PVTZ-JKFIT + DEF2-UNIVERSAL-JKFIT
  @DF-RHF Final Energy:    -7.23638331260898
    Total Energy =                         -7.2363833126089778
 Dipole X            :         -8.2946584           12.4418850            4.1472266
 Dipole Y            :         -0.0000000            0.0000000           -0.0000000
 Dipole Z            :          0.0000000            0.0000000            0.0000000
 Magnitude           :                                                    4.1472266
  Basis Set: (AUG-CC-PVTZ AUX)
    Blend: AUG-CC-PVTZ-RI + DEF2-QZVPP-RI
	 Reference Energy          =      -7.2363833126089778 [Eh]
	 Singles Energy            =      -0.0000000000000000 [Eh]
	 Same-Spin Energy          =      -0.0000000000000000 [Eh]
	 Opposite-Spin Energy      =      -0.0121810037424113 [Eh]
	 Correlation Energy        =      -0.0121810037424113 [Eh]
	 Total Energy              =      -7.2485643163513895 [Eh]
	 SCS Total Energy          =      -7.2510005170998717 [Eh]
                               Psi4 1.9 release
    Molecular point group: c1
  Multiplicity = 1
  Basis Set: AUG-CC-PVTZ
    Blend: AUG-CC-PVTZ
  Basis Set: (AUG-CC-PVTZ AUX)
    Blend: AUG-CC-PVTZ-JKFIT + DEF2-UNIVERSAL-JKFIT
  @DF-RHF Final Energy:   -76.06024912189309
    Total Energy =                        -76.0602491218930794
  Basis Set: (AUG-CC-PVTZ AUX)
	 Singles Energy            =      -0.0000000000000000 [Eh]
	 Same-Spin Energy          =      -0.0684588221904773 [Eh]
	 Opposite-Spin Energy      =      -0.2157166606274512 [Eh]
	 Correlation Energy        =      -0.2841754828179284 [Eh]
	 Total Energy              =     -76.3444246047110227 [Eh]
	 SCS Total Energy          =     -76.3419287220428657 [Eh]
                               Psi4 1.9 release
    Molecular point group: c1

    Geometry (in Bohr), charge = 1, multiplicity = 1:

       Center              X                  Y                   Z               Mass
    ------------   -----------------  -----------------  -----------------  -----------------
         O            0.000000000000     0.000000000000     0.000000000000    15.994914619570
         H           -1.106893849904     1.444272324260     0.000000000000     1.007825032230
         H           -1.106893849904    -1.444272324260     0.000000000000     1.007825032230
         LI           4.147295000141     0.000000000000     0.000000000000     7.016003436600

  Charge       = 1
  Multiplicity = 1
  Basis Set: AUG-CC-PVTZ
    Blend: AUG-CC-PVTZ
  Basis Set: (AUG-CC-PVTZ AUX)
    Blend: AUG-CC-PVTZ-JKFIT + DEF2-UNIVERSAL-JKFIT

    Orbital Energies [Eh]
    ---------------------

    Doubly Occupied:

       1A    -20.786563     2A     -2.726878     3A     -1.569713
       4A     -0.933168     5A     -0.824570     6A     -0.732162

  @DF-RHF Final Energy:   -83.34516561070308

   => Energetics <=

    Nuclear Repulsion Energy =             16.0270897035548074
    One-Electron Energy =                -143.5983994431536814
    Two-Electron Energy =                  44.2261441288957897
    Total Energy =                        -83.3451656107030772
 Dipole X            :         -7.2721312           10.2280973            2.9559661
 Dipole Y            :         -0.0000000            0.0000000           -0.0000000
 Dipole Z            :         -0.0000000            0.0000000           -0.0000000
 Magnitude           :                                                    2.9559661
  Basis Set: (AUG-CC-PVTZ AUX)
    Blend: AUG-CC-PVTZ-RI + DEF2-QZVPP-RI
	 Reference Energy          =     -83.3451656107030772 [Eh]
	 Singles Energy            =      -0.0000000000000000 [Eh]
	 Same-Spin Energy          =      -0.0680595808857700 [Eh]
	 Opposite-Spin Energy      =      -0.2263431841153453 [Eh]
	 Correlation Energy        =      -0.2944027650011153 [Eh]
	 Total Energy              =     -83.6395683757041866 [Eh]

	 ================> DF-SCS-MP2 Energies <==================
	-----------------------------------------------------------
	 SCS Same-Spin Scale       =       0.3333333333333333 [-]
	 SCS Opposite-Spin Scale   =       1.2000000000000000 [-]
	 SCS Same-Spin Energy      =      -0.0226865269619233 [Eh]
	 SCS Opposite-Spin Energy  =      -0.2716118209384143 [Eh]
	 SCS Correlation Energy    =      -0.2942983479003377 [Eh]
	 SCS Total Energy          =     -83.6394639586034145 [Eh]
	-----------------------------------------------------------

*** Psi4 exiting successfully. Buy a developer a beer!
