                               Psi4 1.9 release

  ==> Input File <==

--------------------------------------------------------------------------
MEMORY 60 GB

molecule dimer {
0 1
O      0.000000     0.000000     0.000000
H     -0.585743     0.764276     0.000000
H     -0.585743    -0.764276     0.000000
--
1 1
Li     1.737434     0.000000     0.000000

units ang
no_reorient
no_com
symmetry c1
}

set {
basis        aug-cc-pVTZ
scf_type     df
}

energy("mp2", bsse_type="cp")
--------------------------------------------------------------------------

                               Psi4 1.9 release
    Molecular point group: c1
  Charge       = 1
  Multiplicity = 1
  Basis Set: AUG-CC-PVTZ
    Blend: AUG-CC-PVTZ
  Basis Set: (AUG-CC-PVTZ AUX)
    Blend: AUG-CC-PVTZ-JKFIT + DEF2-UNIVERSAL-JKFIT
  @DF-RHF Final Energy:    -7.23638364838693
    Total Energy =                         -7.2363836483869282
 Dipole X            :         -6.5665512            9.8498233            3.2832720
 Dipole Y            :         -0.0000000            0.0000000           -0.0000000
 Dipole Z            :          0.0000000            0.0000000            0.0000000
 Magnitude           :                                                    3.2832720
  Basis Set: (AUG-CC-PVTZ AUX)
    Blend: AUG-CC-PVTZ-RI + DEF2-QZVPP-RI
	 Reference Energy          =      -7.2363836483869282 [Eh]
	 Singles Energy            =      -0.0000000000000000 [Eh]
	 Same-Spin Energy          =      -0.0000000000000000 [Eh]
	 Opposite-Spin Energy      =      -0.0138367410999808 [Eh]
	 Correlation Energy        =      -0.0138367410999808 [Eh]
	 Total Energy              =      -7.2502203894869091 [Eh]
	 SCS Total Energy          =      -7.2529877377069054 [Eh]
                               Psi4 1.9 release
    Molecular point group: c1
  Multiplicity = 1
  Basis Set: AUG-CC-PVTZ
    Blend: AUG-CC-PVTZ
  Basis Set: (AUG-CC-PVTZ AUX)
    Blend: AUG-CC-PVTZ-JKFIT + DEF2-UNIVERSAL-JKFIT
  @DF-RHF Final Energy:   -76.06025921169184
    Total Energy =                        -76.0602592116918288
  Basis Set: (AUG-CC-PVTZ AUX)
	 Singles Energy            =      -0.0000000000000000 [Eh]
	 Same-Spin Energy          =      -0.0684769388814156 [Eh]
	 Opposite-Spin Energy      =      -0.2158888062412141 [Eh]
	 Correlation Energy        =      -0.2843657451226297 [Eh]
	 Total Energy              =     -76.3446249568144708 [Eh]
	 SCS Total Energy          =     -76.3421514254751088 [Eh]
                               Psi4 1.9 release
    Molecular point group: c1

    Geometry (in Bohr), charge = 1, multiplicity = 1:

       Center              X                  Y                   Z               Mass
    ------------   -----------------  -----------------  -----------------  -----------------
         O            0.000000000000     0.000000000000     0.000000000000    15.994914619570
         H           -1.106893849904     1.444272324260     0.000000000000     1.007825032230
         H           -1.106893849904    -1.444272324260     0.000000000000     1.007825032230
         LI           3.283274421059     0.000000000000     0.000000000000     7.016003436600

  Charge       = 1
  Multiplicity = 1
  Basis Set: AUG-CC-PVTZ
    Blend: AUG-CC-PVTZ
  Basis Set: (AUG-CC-PVTZ AUX)
    Blend: AUG-CC-PVTZ-JKFIT + DEF2-UNIVERSAL-JKFIT

    Orbital Energies [Eh]
    ---------------------

    Doubly Occupied:

       1A    -20.819357     2A     -2.695099     3A     -1.611115
       4A     -0.971849     5A     -0.879445     6A     -0.773040

  @DF-RHF Final Energy:   -83.35218721435329

   => Energetics <=

    Nuclear Repulsion Energy =             17.7470989884035326
    One-Electron Energy =                -146.6987615142888615
    Two-Electron Energy =                  45.5994753115320322
    Total Energy =                        -83.3521872143532931
 Dipole X            :         -5.6038086            7.6360356            2.0322270
 Dipole Y            :         -0.0000000            0.0000000           -0.0000000
 Dipole Z            :          0.0000000            0.0000000            0.0000000
 Magnitude           :                                                    2.0322270
  Basis Set: (AUG-CC-PVTZ AUX)
    Blend: AUG-CC-PVTZ-RI + DEF2-QZVPP-RI
	 Reference Energy          =     -83.3521872143532931 [Eh]
	 Singles Energy            =      -0.0000000000000000 [Eh]
	 Same-Spin Energy          =      -0.0677403838042789 [Eh]
	 Opposite-Spin Energy      =      -0.2266651107516692 [Eh]
	 Correlation Energy        =      -0.2944054945559482 [Eh]
	 Total Energy              =     -83.6465927089092389 [Eh]

	 ================> DF-SCS-MP2 Energies <==================
	-----------------------------------------------------------
	 SCS Same-Spin Scale       =       0.3333333333333333 [-]
	 SCS Opposite-Spin Scale   =       1.2000000000000000 [-]
	 SCS Same-Spin Energy      =      -0.0225801279347596 [Eh]
	 SCS Opposite-Spin Energy  =      -0.2719981329020031 [Eh]
	 SCS Correlation Energy    =      -0.2945782608367628 [Eh]
	 SCS Total Energy          =     -83.6467654751900511 [Eh]
	-----------------------------------------------------------

*** Psi4 exiting successfully. Buy a developer a beer!
