                               Psi4 1.9 release

  ==> Input File <==

--------------------------------------------------------------------------
MEMORY 60 GB

molecule dimer {
0 1
O      0.000000     0.000000     0.000000
H     -0.585743     0.764276     0.000000
H     -0.585743    -0.764276     0.000000
--
1 1
Li     1.645990     0.000000     0.000000

units ang
no_reorient
no_com
symmetry c1
}

set {
basis        aug-cc-pVTZ
scf_type     df
}

energy("mp2", bsse_type="cp")
--------------------------------------------------------------------------

                               Psi4 1.9 release
    Molecular point group: c1
  Charge       = 1
  Multiplicity = 1
  Basis Set: AUG-CC-PVTZ
    Blend: AUG-CC-PVTZ
  Basis Set: (AUG-CC-PVTZ AUX)
    Blend: AUG-CC-PVTZ-JKFIT + DEF2-UNIVERSAL-JKFIT
  @DF-RHF Final Energy:    -7.23638374917865
    Total Energy =                         -7.2363837491786533
 Dipole X            :         -6.2209390            9.3314109            3.1104719
 Dipole Y            :         -0.0000000            0.0000000           -0.0000000
 Dipole Z            :          0.0000000            0.0000000            0.0000000
 Magnitude           :                                                    3.1104719
  Basis Set: (AUG-CC-PVTZ AUX)
    Blend: AUG-CC-PVTZ-RI + DEF2-QZVPP-RI
	 Reference Energy          =      -7.2363837491786533 [Eh]
	 Singles Energy            =      -0.0000000000000000 [Eh]
	 Same-Spin Energy          =       0.0000000000000000 [Eh]
	 Opposite-Spin Energy      =      -0.0143075919139767 [Eh]
	 Correlation Energy        =      -0.0143075919139767 [Eh]
	 Total Energy              =      -7.2506913410926304 [Eh]
	 SCS Total Energy          =      -7.2535528594754251 [Eh]
                               Psi4 1.9 release
    Molecular point group: c1
  Multiplicity = 1
  Basis Set: AUG-CC-PVTZ
    Blend: AUG-CC-PVTZ
  Basis Set: (AUG-CC-PVTZ AUX)
    Blend: AUG-CC-PVTZ-JKFIT + DEF2-UNIVERSAL-JKFIT
  @DF-RHF Final Energy:   -76.06026018295113
    Total Energy =                        -76.0602601829511400
  Basis Set: (AUG-CC-PVTZ AUX)
	 Singles Energy            =      -0.0000000000000000 [Eh]
	 Same-Spin Energy          =      -0.0684813797661960 [Eh]
	 Opposite-Spin Energy      =      -0.2159364484706347 [Eh]
	 Correlation Energy        =      -0.2844178282368307 [Eh]
	 Total Energy              =     -76.3446780111879519 [Eh]
	 SCS Total Energy          =     -76.3422110477046232 [Eh]
                               Psi4 1.9 release
    Molecular point group: c1

    Geometry (in Bohr), charge = 1, multiplicity = 1:

       Center              X                  Y                   Z               Mass
    ------------   -----------------  -----------------  -----------------  -----------------
         O            0.000000000000     0.000000000000     0.000000000000    15.994914619570
         H           -1.106893849904     1.444272324260     0.000000000000     1.007825032230
         H           -1.106893849904    -1.444272324260     0.000000000000     1.007825032230
         LI           3.110470305242     0.000000000000     0.000000000000     7.016003436600

  Charge       = 1
  Multiplicity = 1
  Basis Set: AUG-CC-PVTZ
    Blend: AUG-CC-PVTZ
  Basis Set: (AUG-CC-PVTZ AUX)
    Blend: AUG-CC-PVTZ-JKFIT + DEF2-UNIVERSAL-JKFIT

    Orbital Energies [Eh]
    ---------------------

    Doubly Occupied:

       1A    -20.824939     2A     -2.688734     3A     -1.620287
       4A     -0.980392     5A     -0.891276     6A     -0.782205

  @DF-RHF Final Energy:   -83.34819812317645

   => Energetics <=

    Nuclear Repulsion Energy =             18.2009079222185761
    One-Electron Energy =                -147.5225447946429824
    Two-Electron Energy =                  45.9734387492479399
    Total Energy =                        -83.3481981231764451
 Dipole X            :         -5.2622089            7.1176232            1.8554143
 Dipole Y            :          0.0000000            0.0000000            0.0000000
 Dipole Z            :         -0.0000000            0.0000000           -0.0000000
 Magnitude           :                                                    1.8554143
  Basis Set: (AUG-CC-PVTZ AUX)
    Blend: AUG-CC-PVTZ-RI + DEF2-QZVPP-RI
	 Reference Energy          =     -83.3481981231764451 [Eh]
	 Singles Energy            =      -0.0000000000000000 [Eh]
	 Same-Spin Energy          =      -0.0676975223149378 [Eh]
	 Opposite-Spin Energy      =      -0.2267663894060788 [Eh]
	 Correlation Energy        =      -0.2944639117210166 [Eh]
	 Total Energy              =     -83.6426620348974552 [Eh]

	 ================> DF-SCS-MP2 Energies <==================
	-----------------------------------------------------------
	 SCS Same-Spin Scale       =       0.3333333333333333 [-]
	 SCS Opposite-Spin Scale   =       1.2000000000000000 [-]
	 SCS Same-Spin Energy      =      -0.0225658407716459 [Eh]
	 SCS Opposite-Spin Energy  =      -0.2721196672872946 [Eh]
	 SCS Correlation Energy    =      -0.2946855080589405 [Eh]
	 SCS Total Energy          =     -83.6428836312353923 [Eh]
	-----------------------------------------------------------

*** Psi4 exiting successfully. Buy a developer a beer!
