                               Psi4 1.9 release

  ==> Input File <==

--------------------------------------------------------------------------
MEMORY 60 GB

molecule dimer {
0 1
O      0.000000     0.000000     0.000000
H     -0.588073     0.760558     0.000000
H     -0.588073    -0.760558     0.000000
--
1 1
Na     2.590728     0.000000     0.000000

units ang
no_reorient
no_com
symmetry c1
}

set {
basis        aug-cc-pVTZ
scf_type     df
}

energy("mp2", bsse_type="cp")
--------------------------------------------------------------------------

                               Psi4 1.9 release
    Molecular point group: c1
  Charge       = 1
  Multiplicity = 1
  Basis Set: AUG-CC-PVTZ
    Blend: AUG-CC-PVTZ
  Basis Set: (AUG-CC-PVTZ AUX)
    Blend: AUG-CC-PVTZ-JKFIT + DEF2-UNIVERSAL-JKFIT
  @DF-RHF Final Energy:  -161.67603562366003
    Total Energy =                       -161.6760356236600273
 Dipole X            :        -48.9581909           53.8534302            4.8952394
 Dipole Y            :         -0.0000000            0.0000000           -0.0000000
 Dipole Z            :         -0.0000000            0.0000000           -0.0000000
 Magnitude           :                                                    4.8952394
  Basis Set: (AUG-CC-PVTZ AUX)
    Blend: AUG-CC-PVTZ-RI + DEF2-QZVPP-RI
	 Reference Energy          =    -161.6760356236600273 [Eh]
	 Singles Energy            =      -0.0000000000000000 [Eh]
	 Same-Spin Energy          =      -0.0023295795961142 [Eh]
	 Opposite-Spin Energy      =      -0.0089734649749978 [Eh]
	 Correlation Energy        =      -0.0113030445711119 [Eh]
	 Total Energy              =    -161.6873386682311491 [Eh]
	 SCS Total Energy          =    -161.6875803081620688 [Eh]
                               Psi4 1.9 release
    Molecular point group: c1
  Multiplicity = 1
  Basis Set: AUG-CC-PVTZ
    Blend: AUG-CC-PVTZ
  Basis Set: (AUG-CC-PVTZ AUX)
    Blend: AUG-CC-PVTZ-JKFIT + DEF2-UNIVERSAL-JKFIT
  @DF-RHF Final Energy:   -76.06034746606231
    Total Energy =                        -76.0603474660623249
  Basis Set: (AUG-CC-PVTZ AUX)
	 Singles Energy            =      -0.0000000000000000 [Eh]
	 Same-Spin Energy          =      -0.0684327009453278 [Eh]
	 Opposite-Spin Energy      =      -0.2156173605790781 [Eh]
	 Correlation Energy        =      -0.2840500615244059 [Eh]
	 Total Energy              =     -76.3443975275867217 [Eh]
	 SCS Total Energy          =     -76.3418991990723157 [Eh]
                               Psi4 1.9 release
    Molecular point group: c1

    Geometry (in Bohr), charge = 1, multiplicity = 1:

       Center              X                  Y                   Z               Mass
    ------------   -----------------  -----------------  -----------------  -----------------
         O            0.000000000000     0.000000000000     0.000000000000    15.994914619570
         H           -1.111296911776     1.437246322526     0.000000000000     1.007825032230
         H           -1.111296911776    -1.437246322526     0.000000000000     1.007825032230
         NA           4.895766385555     0.000000000000     0.000000000000    22.989769282000

  Charge       = 1
  Multiplicity = 1
  Basis Set: AUG-CC-PVTZ
    Blend: AUG-CC-PVTZ
  Basis Set: (AUG-CC-PVTZ AUX)
    Blend: AUG-CC-PVTZ-JKFIT + DEF2-UNIVERSAL-JKFIT

    Orbital Energies [Eh]
    ---------------------

    Doubly Occupied:

       1A    -40.718863     2A    -20.754987     3A     -3.031987
       4A     -1.755705     5A     -1.755513     6A     -1.754391
       7A     -1.539360     8A     -0.902625     9A     -0.787377
      10A     -0.700635

  @DF-RHF Final Energy:  -237.77017472432132

   => Energetics <=

    Nuclear Repulsion Energy =             30.6912592685844956
    One-Electron Energy =                -389.5199798315412067
    Two-Electron Energy =                 121.0585458386354105
    Total Energy =                       -237.7701747243213219
 Dipole X            :        -47.8262549           51.6308364            3.8045815
 Dipole Y            :          0.0000000            0.0000000            0.0000000
 Dipole Z            :         -0.0000000            0.0000000           -0.0000000
 Magnitude           :                                                    3.8045815
  Basis Set: (AUG-CC-PVTZ AUX)
    Blend: AUG-CC-PVTZ-RI + DEF2-QZVPP-RI
	 Reference Energy          =    -237.7701747243213219 [Eh]
	 Singles Energy            =      -0.0000000000000000 [Eh]
	 Same-Spin Energy          =      -0.0704857414986138 [Eh]
	 Opposite-Spin Energy      =      -0.2233975285079123 [Eh]
	 Correlation Energy        =      -0.2938832700065261 [Eh]
	 Total Energy              =    -238.0640579943278397 [Eh]

	 ================> DF-SCS-MP2 Energies <==================
	-----------------------------------------------------------
	 SCS Same-Spin Scale       =       0.3333333333333333 [-]
	 SCS Opposite-Spin Scale   =       1.2000000000000000 [-]
	 SCS Same-Spin Energy      =      -0.0234952471662046 [Eh]
	 SCS Opposite-Spin Energy  =      -0.2680770342094947 [Eh]
	 SCS Correlation Energy    =      -0.2915722813756993 [Eh]
	 SCS Total Energy          =    -238.0617470056970149 [Eh]
	-----------------------------------------------------------

*** Psi4 exiting successfully. Buy a developer a beer!
