                               Psi4 1.9 release

  ==> Input File <==

--------------------------------------------------------------------------
MEMORY 60 GB

molecule dimer {
0 1
O      0.000000     0.000000     0.000000
H     -0.588073     0.760558     0.000000
H     -0.588073    -0.760558     0.000000
--
1 1
Na     2.374834     0.000000     0.000000

units ang
no_reorient
no_com
symmetry c1
}

set {
basis        aug-cc-pVTZ
scf_type     df
}

energy("mp2", bsse_type="cp")
--------------------------------------------------------------------------

                               Psi4 1.9 release
    Molecular point group: c1
  Charge       = 1
  Multiplicity = 1
  Basis Set: AUG-CC-PVTZ
    Blend: AUG-CC-PVTZ
  Basis Set: (AUG-CC-PVTZ AUX)
    Blend: AUG-CC-PVTZ-JKFIT + DEF2-UNIVERSAL-JKFIT
  @DF-RHF Final Energy:  -161.67603881194401
    Total Energy =                       -161.6760388119440108
 Dipole X            :        -44.8784049           49.3656444            4.4872395
 Dipole Y            :         -0.0000000            0.0000000           -0.0000000
 Dipole Z            :          0.0000000            0.0000000            0.0000000
 Magnitude           :                                                    4.4872395
  Basis Set: (AUG-CC-PVTZ AUX)
    Blend: AUG-CC-PVTZ-RI + DEF2-QZVPP-RI
	 Reference Energy          =    -161.6760388119440108 [Eh]
	 Singles Energy            =      -0.0000000000000000 [Eh]
	 Same-Spin Energy          =      -0.0024437659549905 [Eh]
	 Opposite-Spin Energy      =      -0.0092735983132415 [Eh]
	 Correlation Energy        =      -0.0117173642682320 [Eh]
	 Total Energy              =    -161.6877561762122468 [Eh]
	 SCS Total Energy          =    -161.6879817185715638 [Eh]
                               Psi4 1.9 release
    Molecular point group: c1
  Multiplicity = 1
  Basis Set: AUG-CC-PVTZ
    Blend: AUG-CC-PVTZ
  Basis Set: (AUG-CC-PVTZ AUX)
    Blend: AUG-CC-PVTZ-JKFIT + DEF2-UNIVERSAL-JKFIT
  @DF-RHF Final Energy:   -76.06036185504895
    Total Energy =                        -76.0603618550489529
  Basis Set: (AUG-CC-PVTZ AUX)
	 Singles Energy            =      -0.0000000000000000 [Eh]
	 Same-Spin Energy          =      -0.0684389943833024 [Eh]
	 Opposite-Spin Energy      =      -0.2156893743032582 [Eh]
	 Correlation Energy        =      -0.2841283686865607 [Eh]
	 Total Energy              =     -76.3444902237355194 [Eh]
	 SCS Total Energy          =     -76.3420021023406292 [Eh]
                               Psi4 1.9 release
    Molecular point group: c1

    Geometry (in Bohr), charge = 1, multiplicity = 1:

       Center              X                  Y                   Z               Mass
    ------------   -----------------  -----------------  -----------------  -----------------
         O            0.000000000000     0.000000000000     0.000000000000    15.994914619570
         H           -1.111296911776     1.437246322526     0.000000000000     1.007825032230
         H           -1.111296911776    -1.437246322526     0.000000000000     1.007825032230
         NA           4.487785853426     0.000000000000     0.000000000000    22.989769282000

  Charge       = 1
  Multiplicity = 1
  Basis Set: AUG-CC-PVTZ
    Blend: AUG-CC-PVTZ
  Basis Set: (AUG-CC-PVTZ AUX)
    Blend: AUG-CC-PVTZ-JKFIT + DEF2-UNIVERSAL-JKFIT

    Orbital Energies [Eh]
    ---------------------

    Doubly Occupied:

       1A    -40.708744     2A    -20.767323     3A     -3.023366
       4A     -1.747149     5A     -1.746874     6A     -1.746072
       7A     -1.553044     8A     -0.915980     9A     -0.804539
      10A     -0.714604

  @DF-RHF Final Energy:  -237.77378003976804

   => Energetics <=

    Nuclear Repulsion Energy =             32.5693280567677164
    One-Electron Energy =                -393.2308222350524147
    Two-Electron Energy =                 122.8877141385166283
    Total Energy =                       -237.7737800397680417
 Dipole X            :        -43.7720802           47.1430506            3.3709703
 Dipole Y            :         -0.0000000            0.0000000           -0.0000000
 Dipole Z            :          0.0000000            0.0000000            0.0000000
 Magnitude           :                                                    3.3709703
  Basis Set: (AUG-CC-PVTZ AUX)
    Blend: AUG-CC-PVTZ-RI + DEF2-QZVPP-RI
	 Reference Energy          =    -237.7737800397680417 [Eh]
	 Singles Energy            =      -0.0000000000000000 [Eh]
	 Same-Spin Energy          =      -0.0705050020023636 [Eh]
	 Opposite-Spin Energy      =      -0.2233939854003343 [Eh]
	 Correlation Energy        =      -0.2938989874026979 [Eh]
	 Total Energy              =    -238.0676790271707262 [Eh]

	 ================> DF-SCS-MP2 Energies <==================
	-----------------------------------------------------------
	 SCS Same-Spin Scale       =       0.3333333333333333 [-]
	 SCS Opposite-Spin Scale   =       1.2000000000000000 [-]
	 SCS Same-Spin Energy      =      -0.0235016673341212 [Eh]
	 SCS Opposite-Spin Energy  =      -0.2680727824804012 [Eh]
	 SCS Correlation Energy    =      -0.2915744498145224 [Eh]
	 SCS Total Energy          =    -238.0653544895825746 [Eh]
	-----------------------------------------------------------

*** Psi4 exiting successfully. Buy a developer a beer!
