                               Psi4 1.9 release

  ==> Input File <==

--------------------------------------------------------------------------
MEMORY 60 GB

molecule dimer {
0 1
O      0.000000     0.000000     0.000000
H     -0.588073     0.760558     0.000000
H     -0.588073    -0.760558     0.000000
--
1 1
Na     2.158940     0.000000     0.000000

units ang
no_reorient
no_com
symmetry c1
}

set {
basis        aug-cc-pVTZ
scf_type     df
}

energy("mp2", bsse_type="cp")
--------------------------------------------------------------------------

                               Psi4 1.9 release
    Molecular point group: c1
  Charge       = 1
  Multiplicity = 1
  Basis Set: AUG-CC-PVTZ
    Blend: AUG-CC-PVTZ
  Basis Set: (AUG-CC-PVTZ AUX)
    Blend: AUG-CC-PVTZ-JKFIT + DEF2-UNIVERSAL-JKFIT
  @DF-RHF Final Energy:  -161.67604395163670
    Total Energy =                       -161.6760439516367001
 Dipole X            :        -40.7985934           44.8778585            4.0792652
 Dipole Y            :          0.0000000            0.0000000            0.0000000
 Dipole Z            :         -0.0000000            0.0000000           -0.0000000
 Magnitude           :                                                    4.0792652
  Basis Set: (AUG-CC-PVTZ AUX)
    Blend: AUG-CC-PVTZ-RI + DEF2-QZVPP-RI
	 Reference Energy          =    -161.6760439516367001 [Eh]
	 Singles Energy            =      -0.0000000000000000 [Eh]
	 Same-Spin Energy          =      -0.0029551095735828 [Eh]
	 Opposite-Spin Energy      =      -0.0106850887240236 [Eh]
	 Correlation Energy        =      -0.0136401982976064 [Eh]
	 Total Energy              =    -161.6896841499342941 [Eh]
	 SCS Total Energy          =    -161.6898510946300576 [Eh]
                               Psi4 1.9 release
    Molecular point group: c1
  Multiplicity = 1
  Basis Set: AUG-CC-PVTZ
    Blend: AUG-CC-PVTZ
  Basis Set: (AUG-CC-PVTZ AUX)
    Blend: AUG-CC-PVTZ-JKFIT + DEF2-UNIVERSAL-JKFIT
  @DF-RHF Final Energy:   -76.06037073139586
    Total Energy =                        -76.0603707313958637
  Basis Set: (AUG-CC-PVTZ AUX)
	 Singles Energy            =      -0.0000000000000000 [Eh]
	 Same-Spin Energy          =      -0.0684465577305662 [Eh]
	 Opposite-Spin Energy      =      -0.2157521613771088 [Eh]
	 Correlation Energy        =      -0.2841987191076750 [Eh]
	 Total Energy              =     -76.3445694505035419 [Eh]
	 SCS Total Energy          =     -76.3420888442919221 [Eh]
                               Psi4 1.9 release
    Molecular point group: c1

    Geometry (in Bohr), charge = 1, multiplicity = 1:

       Center              X                  Y                   Z               Mass
    ------------   -----------------  -----------------  -----------------  -----------------
         O            0.000000000000     0.000000000000     0.000000000000    15.994914619570
         H           -1.111296911776     1.437246322526     0.000000000000     1.007825032230
         H           -1.111296911776    -1.437246322526     0.000000000000     1.007825032230
         NA           4.079805321296     0.000000000000     0.000000000000    22.989769282000

  Charge       = 1
  Multiplicity = 1
  Basis Set: AUG-CC-PVTZ
    Blend: AUG-CC-PVTZ
  Basis Set: (AUG-CC-PVTZ AUX)
    Blend: AUG-CC-PVTZ-JKFIT + DEF2-UNIVERSAL-JKFIT

    Orbital Energies [Eh]
    ---------------------

    Doubly Occupied:

       1A    -40.695118     2A    -20.779064     3A     -3.013046
       4A     -1.737225     5A     -1.736770     6A     -1.736354
       7A     -1.567265     8A     -0.930202     9A     -0.823003
      10A     -0.729605

  @DF-RHF Final Energy:  -237.77438567398573

   => Energetics <=

    Nuclear Repulsion Energy =             34.8087431629548476
    One-Electron Energy =                -397.6709521135934438
    Two-Electron Energy =                 125.0878232766528555
    Total Energy =                       -237.7743856739857620
 Dipole X            :        -39.7086327           42.6552647            2.9466320
 Dipole Y            :          0.0000000            0.0000000            0.0000000
 Dipole Z            :          0.0000000            0.0000000            0.0000000
 Magnitude           :                                                    2.9466320
  Basis Set: (AUG-CC-PVTZ AUX)
    Blend: AUG-CC-PVTZ-RI + DEF2-QZVPP-RI
	 Reference Energy          =    -237.7743856739857335 [Eh]
	 Singles Energy            =      -0.0000000000000000 [Eh]
	 Same-Spin Energy          =      -0.0708976633531086 [Eh]
	 Opposite-Spin Energy      =      -0.2243079094421604 [Eh]
	 Correlation Energy        =      -0.2952055727952690 [Eh]
	 Total Energy              =    -238.0695912467810160 [Eh]

	 ================> DF-SCS-MP2 Energies <==================
	-----------------------------------------------------------
	 SCS Same-Spin Scale       =       0.3333333333333333 [-]
	 SCS Opposite-Spin Scale   =       1.2000000000000000 [-]
	 SCS Same-Spin Energy      =      -0.0236325544510362 [Eh]
	 SCS Opposite-Spin Energy  =      -0.2691694913305924 [Eh]
	 SCS Correlation Energy    =      -0.2928020457816286 [Eh]
	 SCS Total Energy          =    -238.0671877197673609 [Eh]
	-----------------------------------------------------------

*** Psi4 exiting successfully. Buy a developer a beer!
