                               Psi4 1.9 release

  ==> Input File <==

--------------------------------------------------------------------------
MEMORY 60 GB

molecule dimer {
0 1
O      0.000000     0.000000     0.000000
H     -0.588073     0.760558     0.000000
H     -0.588073    -0.760558     0.000000
--
1 1
Na     1.943046     0.000000     0.000000

units ang
no_reorient
no_com
symmetry c1
}

set {
basis        aug-cc-pVTZ
scf_type     df
}

energy("mp2", bsse_type="cp")
--------------------------------------------------------------------------

                               Psi4 1.9 release
    Molecular point group: c1
  Charge       = 1
  Multiplicity = 1
  Basis Set: AUG-CC-PVTZ
    Blend: AUG-CC-PVTZ
  Basis Set: (AUG-CC-PVTZ AUX)
    Blend: AUG-CC-PVTZ-JKFIT + DEF2-UNIVERSAL-JKFIT
  @DF-RHF Final Energy:  -161.67605331053403
    Total Energy =                       -161.6760533105340301
 Dipole X            :        -36.7186786           40.3900727            3.6713940
 Dipole Y            :          0.0000000            0.0000000            0.0000000
 Dipole Z            :          0.0000000            0.0000000            0.0000000
 Magnitude           :                                                    3.6713940
  Basis Set: (AUG-CC-PVTZ AUX)
    Blend: AUG-CC-PVTZ-RI + DEF2-QZVPP-RI
	 Reference Energy          =    -161.6760533105340301 [Eh]
	 Singles Energy            =      -0.0000000000000000 [Eh]
	 Same-Spin Energy          =      -0.0041980978211218 [Eh]
	 Opposite-Spin Energy      =      -0.0141700607616295 [Eh]
	 Correlation Energy        =      -0.0183681585827512 [Eh]
	 Total Energy              =    -161.6944214691167758 [Eh]
	 SCS Total Energy          =    -161.6944567493883653 [Eh]
                               Psi4 1.9 release
    Molecular point group: c1
  Multiplicity = 1
  Basis Set: AUG-CC-PVTZ
    Blend: AUG-CC-PVTZ
  Basis Set: (AUG-CC-PVTZ AUX)
    Blend: AUG-CC-PVTZ-JKFIT + DEF2-UNIVERSAL-JKFIT
  @DF-RHF Final Energy:   -76.06038070071975
    Total Energy =                        -76.0603807007197474
  Basis Set: (AUG-CC-PVTZ AUX)
	 Singles Energy            =      -0.0000000000000000 [Eh]
	 Same-Spin Energy          =      -0.0684521764262835 [Eh]
	 Opposite-Spin Energy      =      -0.2157883051609022 [Eh]
	 Correlation Energy        =      -0.2842404815871857 [Eh]
	 Total Energy              =     -76.3446211823069376 [Eh]
	 SCS Total Energy          =     -76.3421440590549309 [Eh]
                               Psi4 1.9 release
    Molecular point group: c1

    Geometry (in Bohr), charge = 1, multiplicity = 1:

       Center              X                  Y                   Z               Mass
    ------------   -----------------  -----------------  -----------------  -----------------
         O            0.000000000000     0.000000000000     0.000000000000    15.994914619570
         H           -1.111296911776     1.437246322526     0.000000000000     1.007825032230
         H           -1.111296911776    -1.437246322526     0.000000000000     1.007825032230
         NA           3.671824789166     0.000000000000     0.000000000000    22.989769282000

  Charge       = 1
  Multiplicity = 1
  Basis Set: AUG-CC-PVTZ
    Blend: AUG-CC-PVTZ
  Basis Set: (AUG-CC-PVTZ AUX)
    Blend: AUG-CC-PVTZ-JKFIT + DEF2-UNIVERSAL-JKFIT

    Orbital Energies [Eh]
    ---------------------

    Doubly Occupied:

       1A    -40.677397     2A    -20.788713     3A     -3.001746
       4A     -1.731005     5A     -1.724989     6A     -1.724430
       7A     -1.580080     8A     -0.945068     9A     -0.840872
      10A     -0.745528

  @DF-RHF Final Energy:  -237.76579638881938

   => Energetics <=

    Nuclear Repulsion Energy =             37.5259475027342617
    One-Electron Energy =                -403.0638298436545597
    Two-Electron Energy =                 127.7720859521009231
    Total Energy =                       -237.7657963888193819
 Dipole X            :        -35.6285138           38.1674789            2.5389650
 Dipole Y            :         -0.0000000            0.0000000           -0.0000000
 Dipole Z            :          0.0000000            0.0000000            0.0000000
 Magnitude           :                                                    2.5389650
  Basis Set: (AUG-CC-PVTZ AUX)
    Blend: AUG-CC-PVTZ-RI + DEF2-QZVPP-RI
	 Reference Energy          =    -237.7657963888193819 [Eh]
	 Singles Energy            =      -0.0000000000000000 [Eh]
	 Same-Spin Energy          =      -0.0720518201037800 [Eh]
	 Opposite-Spin Energy      =      -0.2270926843205330 [Eh]
	 Correlation Energy        =      -0.2991445044243130 [Eh]
	 Total Energy              =    -238.0649408932436870 [Eh]

	 ================> DF-SCS-MP2 Energies <==================
	-----------------------------------------------------------
	 SCS Same-Spin Scale       =       0.3333333333333333 [-]
	 SCS Opposite-Spin Scale   =       1.2000000000000000 [-]
	 SCS Same-Spin Energy      =      -0.0240172733679267 [Eh]
	 SCS Opposite-Spin Energy  =      -0.2725112211846396 [Eh]
	 SCS Correlation Energy    =      -0.2965284945525662 [Eh]
	 SCS Total Energy          =    -238.0623248833719572 [Eh]
	-----------------------------------------------------------

*** Psi4 exiting successfully. Buy a developer a beer!
