                               Psi4 1.9 release

  ==> Input File <==

--------------------------------------------------------------------------
MEMORY 60 GB

molecule dimer {
0 1
O      0.000000     0.000000     0.000000
H     -0.588073     0.760558     0.000000
H     -0.588073    -0.760558     0.000000
--
1 1
Na     2.806622     0.000000     0.000000

units ang
no_reorient
no_com
symmetry c1
}

set {
basis        aug-cc-pVTZ
scf_type     df
}

energy("mp2", bsse_type="cp")
--------------------------------------------------------------------------

                               Psi4 1.9 release
    Molecular point group: c1
  Charge       = 1
  Multiplicity = 1
  Basis Set: AUG-CC-PVTZ
    Blend: AUG-CC-PVTZ
  Basis Set: (AUG-CC-PVTZ AUX)
    Blend: AUG-CC-PVTZ-JKFIT + DEF2-UNIVERSAL-JKFIT
  @DF-RHF Final Energy:  -161.67603311109767
    Total Energy =                       -161.6760331110976381
 Dipole X            :        -53.0380248           58.3412161            5.3031912
 Dipole Y            :         -0.0000000            0.0000000           -0.0000000
 Dipole Z            :         -0.0000000            0.0000000           -0.0000000
 Magnitude           :                                                    5.3031912
  Basis Set: (AUG-CC-PVTZ AUX)
    Blend: AUG-CC-PVTZ-RI + DEF2-QZVPP-RI
	 Reference Energy          =    -161.6760331110976665 [Eh]
	 Singles Energy            =      -0.0000000000000000 [Eh]
	 Same-Spin Energy          =      -0.0022898199873888 [Eh]
	 Opposite-Spin Energy      =      -0.0088614182324767 [Eh]
	 Correlation Energy        =      -0.0111512382198655 [Eh]
	 Total Energy              =    -161.6871843493175334 [Eh]
	 SCS Total Energy          =    -161.6874300863057670 [Eh]
                               Psi4 1.9 release
    Molecular point group: c1
  Multiplicity = 1
  Basis Set: AUG-CC-PVTZ
    Blend: AUG-CC-PVTZ
  Basis Set: (AUG-CC-PVTZ AUX)
    Blend: AUG-CC-PVTZ-JKFIT + DEF2-UNIVERSAL-JKFIT
  @DF-RHF Final Energy:   -76.06033210129769
    Total Energy =                        -76.0603321012976892
  Basis Set: (AUG-CC-PVTZ AUX)
	 Singles Energy            =      -0.0000000000000000 [Eh]
	 Same-Spin Energy          =      -0.0684283280051671 [Eh]
	 Opposite-Spin Energy      =      -0.2155570045965527 [Eh]
	 Correlation Energy        =      -0.2839853326017199 [Eh]
	 Total Energy              =     -76.3443174338994055 [Eh]
	 SCS Total Energy          =     -76.3418099494819415 [Eh]
                               Psi4 1.9 release
    Molecular point group: c1

    Geometry (in Bohr), charge = 1, multiplicity = 1:

       Center              X                  Y                   Z               Mass
    ------------   -----------------  -----------------  -----------------  -----------------
         O            0.000000000000     0.000000000000     0.000000000000    15.994914619570
         H           -1.111296911776     1.437246322526     0.000000000000     1.007825032230
         H           -1.111296911776    -1.437246322526     0.000000000000     1.007825032230
         NA           5.303746917685     0.000000000000     0.000000000000    22.989769282000

  Charge       = 1
  Multiplicity = 1
  Basis Set: AUG-CC-PVTZ
    Blend: AUG-CC-PVTZ
  Basis Set: (AUG-CC-PVTZ AUX)
    Blend: AUG-CC-PVTZ-JKFIT + DEF2-UNIVERSAL-JKFIT

    Orbital Energies [Eh]
    ---------------------

    Doubly Occupied:

       1A    -40.726504     2A    -20.742964     3A     -3.039001
       4A     -1.762615     5A     -1.762475     6A     -1.761473
       7A     -1.526746     8A     -0.890303     9A     -0.772050
      10A     -0.687809

  @DF-RHF Final Energy:  -237.76599377388521

   => Energetics <=

    Nuclear Repulsion Energy =             29.0932417693646670
    One-Electron Energy =                -386.3745922090637919
    Two-Electron Energy =                 119.5153566658138971
    Total Energy =                       -237.7659937738852136
 Dipole X            :        -51.8764444           56.1186223            4.2421779
 Dipole Y            :          0.0000000            0.0000000            0.0000000
 Dipole Z            :          0.0000000            0.0000000            0.0000000
 Magnitude           :                                                    4.2421779
  Basis Set: (AUG-CC-PVTZ AUX)
    Blend: AUG-CC-PVTZ-RI + DEF2-QZVPP-RI
	 Reference Energy          =    -237.7659937738852136 [Eh]
	 Singles Energy            =      -0.0000000000000000 [Eh]
	 Same-Spin Energy          =      -0.0705052879838547 [Eh]
	 Opposite-Spin Energy      =      -0.2234607630308133 [Eh]
	 Correlation Energy        =      -0.2939660510146680 [Eh]
	 Total Energy              =    -238.0599598248998916 [Eh]

	 ================> DF-SCS-MP2 Energies <==================
	-----------------------------------------------------------
	 SCS Same-Spin Scale       =       0.3333333333333333 [-]
	 SCS Opposite-Spin Scale   =       1.2000000000000000 [-]
	 SCS Same-Spin Energy      =      -0.0235017626612849 [Eh]
	 SCS Opposite-Spin Energy  =      -0.2681529156369759 [Eh]
	 SCS Correlation Energy    =      -0.2916546782982608 [Eh]
	 SCS Total Energy          =    -238.0576484521834857 [Eh]
	-----------------------------------------------------------

*** Psi4 exiting successfully. Buy a developer a beer!
