                               Psi4 1.9 release

  ==> Input File <==

--------------------------------------------------------------------------
MEMORY 60 GB

molecule dimer {
0 1
O      0.000000     0.000000     0.000000
H     -0.588073     0.760558     0.000000
H     -0.588073    -0.760558     0.000000
--
1 1
Na     3.022516     0.000000     0.000000

units ang
no_reorient
no_com
symmetry c1
}

set {
basis        aug-cc-pVTZ
scf_type     df
}

energy("mp2", bsse_type="cp")
--------------------------------------------------------------------------

                               Psi4 1.9 release
    Molecular point group: c1
  Charge       = 1
  Multiplicity = 1
  Basis Set: AUG-CC-PVTZ
    Blend: AUG-CC-PVTZ
  Basis Set: (AUG-CC-PVTZ AUX)
    Blend: AUG-CC-PVTZ-JKFIT + DEF2-UNIVERSAL-JKFIT
  @DF-RHF Final Energy:  -161.67603204865810
    Total Energy =                       -161.6760320486581008
 Dipole X            :        -57.1178370           62.8290019            5.7111650
 Dipole Y            :         -0.0000000            0.0000000           -0.0000000
 Dipole Z            :         -0.0000000            0.0000000           -0.0000000
 Magnitude           :                                                    5.7111650
  Basis Set: (AUG-CC-PVTZ AUX)
    Blend: AUG-CC-PVTZ-RI + DEF2-QZVPP-RI
	 Reference Energy          =    -161.6760320486581008 [Eh]
	 Singles Energy            =      -0.0000000000000000 [Eh]
	 Same-Spin Energy          =      -0.0022201433646940 [Eh]
	 Opposite-Spin Energy      =      -0.0086617584499574 [Eh]
	 Correlation Energy        =      -0.0108819018146514 [Eh]
	 Total Energy              =    -161.6869139504727571 [Eh]
	 SCS Total Energy          =    -161.6871662065862836 [Eh]
                               Psi4 1.9 release
    Molecular point group: c1
  Multiplicity = 1
  Basis Set: AUG-CC-PVTZ
    Blend: AUG-CC-PVTZ
  Basis Set: (AUG-CC-PVTZ AUX)
    Blend: AUG-CC-PVTZ-JKFIT + DEF2-UNIVERSAL-JKFIT
  @DF-RHF Final Energy:   -76.06032135634590
    Total Energy =                        -76.0603213563458951
  Basis Set: (AUG-CC-PVTZ AUX)
	 Singles Energy            =      -0.0000000000000000 [Eh]
	 Same-Spin Energy          =      -0.0684248603601277 [Eh]
	 Opposite-Spin Energy      =      -0.2155119538774993 [Eh]
	 Correlation Energy        =      -0.2839368142376270 [Eh]
	 Total Energy              =     -76.3442581705835153 [Eh]
	 SCS Total Energy          =     -76.3417439877856054 [Eh]
                               Psi4 1.9 release
    Molecular point group: c1

    Geometry (in Bohr), charge = 1, multiplicity = 1:

       Center              X                  Y                   Z               Mass
    ------------   -----------------  -----------------  -----------------  -----------------
         O            0.000000000000     0.000000000000     0.000000000000    15.994914619570
         H           -1.111296911776     1.437246322526     0.000000000000     1.007825032230
         H           -1.111296911776    -1.437246322526     0.000000000000     1.007825032230
         NA           5.711727449814     0.000000000000     0.000000000000    22.989769282000

  Charge       = 1
  Multiplicity = 1
  Basis Set: AUG-CC-PVTZ
    Blend: AUG-CC-PVTZ
  Basis Set: (AUG-CC-PVTZ AUX)
    Blend: AUG-CC-PVTZ-JKFIT + DEF2-UNIVERSAL-JKFIT

    Orbital Energies [Eh]
    ---------------------

    Doubly Occupied:

       1A    -40.732497     2A    -20.731736     3A     -3.044695
       4A     -1.768207     5A     -1.768102     6A     -1.767309
       7A     -1.515325     8A     -0.879092     9A     -0.758561
      10A     -0.676177

  @DF-RHF Final Energy:  -237.76209832827524

   => Energetics <=

    Nuclear Repulsion Energy =             27.7167540234628831
    One-Electron Energy =                -383.6743003577096260
    Two-Electron Energy =                 118.1954480059714854
    Total Energy =                       -237.7620983282752434
 Dipole X            :        -55.9261812           60.6064081            4.6802269
 Dipole Y            :          0.0000000            0.0000000            0.0000000
 Dipole Z            :          0.0000000            0.0000000            0.0000000
 Magnitude           :                                                    4.6802269
  Basis Set: (AUG-CC-PVTZ AUX)
    Blend: AUG-CC-PVTZ-RI + DEF2-QZVPP-RI
	 Reference Energy          =    -237.7620983282752434 [Eh]
	 Singles Energy            =      -0.0000000000000000 [Eh]
	 Same-Spin Energy          =      -0.0704677108877993 [Eh]
	 Opposite-Spin Energy      =      -0.2233623207874279 [Eh]
	 Correlation Energy        =      -0.2938300316752272 [Eh]
	 Total Energy              =    -238.0559283599504568 [Eh]

	 ================> DF-SCS-MP2 Energies <==================
	-----------------------------------------------------------
	 SCS Same-Spin Scale       =       0.3333333333333333 [-]
	 SCS Opposite-Spin Scale   =       1.2000000000000000 [-]
	 SCS Same-Spin Energy      =      -0.0234892369625998 [Eh]
	 SCS Opposite-Spin Energy  =      -0.2680347849449135 [Eh]
	 SCS Correlation Energy    =      -0.2915240219075132 [Eh]
	 SCS Total Energy          =    -238.0536223501827635 [Eh]
	-----------------------------------------------------------

*** Psi4 exiting successfully. Buy a developer a beer!
