                               Psi4 1.9 release

  ==> Input File <==

--------------------------------------------------------------------------
MEMORY 60 GB

molecule dimer {
0 1
O      0.000000     0.000000     0.000000
H     -0.588073     0.760558     0.000000
H     -0.588073    -0.760558     0.000000
--
1 1
Na     2.266887     0.000000     0.000000

units ang
no_reorient
no_com
symmetry c1
}

set {
basis        aug-cc-pVTZ
scf_type     df
}

energy("mp2", bsse_type="cp")
--------------------------------------------------------------------------

                               Psi4 1.9 release
    Molecular point group: c1
  Charge       = 1
  Multiplicity = 1
  Basis Set: AUG-CC-PVTZ
    Blend: AUG-CC-PVTZ
  Basis Set: (AUG-CC-PVTZ AUX)
    Blend: AUG-CC-PVTZ-JKFIT + DEF2-UNIVERSAL-JKFIT
  @DF-RHF Final Energy:  -161.67604093416827
    Total Energy =                       -161.6760409341682987
 Dipole X            :        -42.8385112           47.1217515            4.2832403
 Dipole Y            :          0.0000000            0.0000000            0.0000000
 Dipole Z            :         -0.0000000            0.0000000           -0.0000000
 Magnitude           :                                                    4.2832403
  Basis Set: (AUG-CC-PVTZ AUX)
    Blend: AUG-CC-PVTZ-RI + DEF2-QZVPP-RI
	 Reference Energy          =    -161.6760409341682703 [Eh]
	 Singles Energy            =      -0.0000000000000000 [Eh]
	 Same-Spin Energy          =      -0.0026254471190738 [Eh]
	 Opposite-Spin Energy      =      -0.0097665145546902 [Eh]
	 Correlation Energy        =      -0.0123919616737640 [Eh]
	 Total Energy              =    -161.6884328958420269 [Eh]
	 SCS Total Energy          =    -161.6886359006736029 [Eh]
                               Psi4 1.9 release
    Molecular point group: c1
  Multiplicity = 1
  Basis Set: AUG-CC-PVTZ
    Blend: AUG-CC-PVTZ
  Basis Set: (AUG-CC-PVTZ AUX)
    Blend: AUG-CC-PVTZ-JKFIT + DEF2-UNIVERSAL-JKFIT
  @DF-RHF Final Energy:   -76.06036671538229
    Total Energy =                        -76.0603667153822869
  Basis Set: (AUG-CC-PVTZ AUX)
	 Singles Energy            =      -0.0000000000000000 [Eh]
	 Same-Spin Energy          =      -0.0684428115867750 [Eh]
	 Opposite-Spin Energy      =      -0.2157236198148318 [Eh]
	 Correlation Energy        =      -0.2841664314016068 [Eh]
	 Total Energy              =     -76.3445331467838884 [Eh]
	 SCS Total Energy          =     -76.3420493296890044 [Eh]
                               Psi4 1.9 release
    Molecular point group: c1

    Geometry (in Bohr), charge = 1, multiplicity = 1:

       Center              X                  Y                   Z               Mass
    ------------   -----------------  -----------------  -----------------  -----------------
         O            0.000000000000     0.000000000000     0.000000000000    15.994914619570
         H           -1.111296911776     1.437246322526     0.000000000000     1.007825032230
         H           -1.111296911776    -1.437246322526     0.000000000000     1.007825032230
         NA           4.283795587361     0.000000000000     0.000000000000    22.989769282000

  Charge       = 1
  Multiplicity = 1
  Basis Set: AUG-CC-PVTZ
    Blend: AUG-CC-PVTZ
  Basis Set: (AUG-CC-PVTZ AUX)
    Blend: AUG-CC-PVTZ-JKFIT + DEF2-UNIVERSAL-JKFIT

    Orbital Energies [Eh]
    ---------------------

    Doubly Occupied:

       1A    -40.702423     2A    -20.773346     3A     -3.018401
       4A     -1.742180     5A     -1.741842     6A     -1.741608
       7A     -1.560155     8A     -0.922996     9A     -0.813680
      10A     -0.721984

  @DF-RHF Final Energy:  -237.77471703923175

   => Energetics <=

    Nuclear Repulsion Energy =             33.6376061063867340
    One-Electron Energy =                -395.3474138147760186
    Two-Electron Energy =                 123.9350906691575602
    Total Energy =                       -237.7747170392317457
 Dipole X            :        -41.7419291           44.8991576            3.1572286
 Dipole Y            :          0.0000000            0.0000000            0.0000000
 Dipole Z            :          0.0000000            0.0000000            0.0000000
 Magnitude           :                                                    3.1572286
  Basis Set: (AUG-CC-PVTZ AUX)
    Blend: AUG-CC-PVTZ-RI + DEF2-QZVPP-RI
	 Reference Energy          =    -237.7747170392317457 [Eh]
	 Singles Energy            =      -0.0000000000000000 [Eh]
	 Same-Spin Energy          =      -0.0706281520509861 [Eh]
	 Opposite-Spin Energy      =      -0.2236655648696961 [Eh]
	 Correlation Energy        =      -0.2942937169206822 [Eh]
	 Total Energy              =    -238.0690107561524371 [Eh]

	 ================> DF-SCS-MP2 Energies <==================
	-----------------------------------------------------------
	 SCS Same-Spin Scale       =       0.3333333333333333 [-]
	 SCS Opposite-Spin Scale   =       1.2000000000000000 [-]
	 SCS Same-Spin Energy      =      -0.0235427173503287 [Eh]
	 SCS Opposite-Spin Energy  =      -0.2683986778436353 [Eh]
	 SCS Correlation Energy    =      -0.2919413951939640 [Eh]
	 SCS Total Energy          =    -238.0666584344257046 [Eh]
	-----------------------------------------------------------

*** Psi4 exiting successfully. Buy a developer a beer!
