                               Psi4 1.9 release

  ==> Input File <==

--------------------------------------------------------------------------
MEMORY 60 GB

molecule dimer {
0 1
O      0.000000     0.000000     0.000000
H     -0.588073     0.760558     0.000000
H     -0.588073    -0.760558     0.000000
--
1 1
Na     3.238410     0.000000     0.000000

units ang
no_reorient
no_com
symmetry c1
}

set {
basis        aug-cc-pVTZ
scf_type     df
}

energy("mp2", bsse_type="cp")
--------------------------------------------------------------------------

                               Psi4 1.9 release
    Molecular point group: c1
  Charge       = 1
  Multiplicity = 1
  Basis Set: AUG-CC-PVTZ
    Blend: AUG-CC-PVTZ
  Basis Set: (AUG-CC-PVTZ AUX)
    Blend: AUG-CC-PVTZ-JKFIT + DEF2-UNIVERSAL-JKFIT
  @DF-RHF Final Energy:  -161.67603136579586
    Total Energy =                       -161.6760313657958648
 Dipole X            :        -61.1975770           67.3167878            6.1192108
 Dipole Y            :          0.0000000            0.0000000            0.0000000
 Dipole Z            :         -0.0000000            0.0000000           -0.0000000
 Magnitude           :                                                    6.1192108
  Basis Set: (AUG-CC-PVTZ AUX)
    Blend: AUG-CC-PVTZ-RI + DEF2-QZVPP-RI
	 Reference Energy          =    -161.6760313657958648 [Eh]
	 Singles Energy            =      -0.0000000000000000 [Eh]
	 Same-Spin Energy          =      -0.0021353315372221 [Eh]
	 Opposite-Spin Energy      =      -0.0084222091686721 [Eh]
	 Correlation Energy        =      -0.0105575407058943 [Eh]
	 Total Energy              =    -161.6865889065017541 [Eh]
	 SCS Total Energy          =    -161.6868497939773590 [Eh]
                               Psi4 1.9 release
    Molecular point group: c1
  Multiplicity = 1
  Basis Set: AUG-CC-PVTZ
    Blend: AUG-CC-PVTZ
  Basis Set: (AUG-CC-PVTZ AUX)
    Blend: AUG-CC-PVTZ-JKFIT + DEF2-UNIVERSAL-JKFIT
  @DF-RHF Final Energy:   -76.06031570758155
    Total Energy =                        -76.0603157075815517
  Basis Set: (AUG-CC-PVTZ AUX)
	 Singles Energy            =      -0.0000000000000000 [Eh]
	 Same-Spin Energy          =      -0.0684217779435292 [Eh]
	 Opposite-Spin Energy      =      -0.2154789094677761 [Eh]
	 Correlation Energy        =      -0.2839006874113054 [Eh]
	 Total Energy              =     -76.3442163949928556 [Eh]
	 SCS Total Energy          =     -76.3416976582573881 [Eh]
                               Psi4 1.9 release
    Molecular point group: c1

    Geometry (in Bohr), charge = 1, multiplicity = 1:

       Center              X                  Y                   Z               Mass
    ------------   -----------------  -----------------  -----------------  -----------------
         O            0.000000000000     0.000000000000     0.000000000000    15.994914619570
         H           -1.111296911776     1.437246322526     0.000000000000     1.007825032230
         H           -1.111296911776    -1.437246322526     0.000000000000     1.007825032230
         NA           6.119707981944     0.000000000000     0.000000000000    22.989769282000

  Charge       = 1
  Multiplicity = 1
  Basis Set: AUG-CC-PVTZ
    Blend: AUG-CC-PVTZ
  Basis Set: (AUG-CC-PVTZ AUX)
    Blend: AUG-CC-PVTZ-JKFIT + DEF2-UNIVERSAL-JKFIT

    Orbital Energies [Eh]
    ---------------------

    Doubly Occupied:

       1A    -40.737307     2A    -20.721504     3A     -3.049314
       4A     -1.772742     5A     -1.772662     6A     -1.772051
       7A     -1.505080     8A     -0.868992     9A     -0.746737
      10A     -0.665725

  @DF-RHF Final Energy:  -237.75872934645798

   => Energetics <=

    Nuclear Repulsion Energy =             26.5185711438688614
    One-Electron Energy =                -381.3303710742915200
    Two-Electron Energy =                 117.0530705839646402
    Total Energy =                       -237.7587293464579830
 Dipole X            :        -59.9776318           65.0941940            5.1165622
 Dipole Y            :          0.0000000            0.0000000            0.0000000
 Dipole Z            :         -0.0000000            0.0000000           -0.0000000
 Magnitude           :                                                    5.1165622
  Basis Set: (AUG-CC-PVTZ AUX)
    Blend: AUG-CC-PVTZ-RI + DEF2-QZVPP-RI
	 Reference Energy          =    -237.7587293464579830 [Eh]
	 Singles Energy            =      -0.0000000000000000 [Eh]
	 Same-Spin Energy          =      -0.0703989184990837 [Eh]
	 Opposite-Spin Energy      =      -0.2231845329390199 [Eh]
	 Correlation Energy        =      -0.2935834514381036 [Eh]
	 Total Energy              =    -238.0523127978960929 [Eh]

	 ================> DF-SCS-MP2 Energies <==================
	-----------------------------------------------------------
	 SCS Same-Spin Scale       =       0.3333333333333333 [-]
	 SCS Opposite-Spin Scale   =       1.2000000000000000 [-]
	 SCS Same-Spin Energy      =      -0.0234663061663612 [Eh]
	 SCS Opposite-Spin Energy  =      -0.2678214395268239 [Eh]
	 SCS Correlation Energy    =      -0.2912877456931852 [Eh]
	 SCS Total Energy          =    -238.0500170921511653 [Eh]
	-----------------------------------------------------------

*** Psi4 exiting successfully. Buy a developer a beer!
