                               Psi4 1.9 release

  ==> Input File <==

--------------------------------------------------------------------------
MEMORY 60 GB

molecule dimer {
0 1
O      0.000000     0.000000     0.000000
H     -0.588073     0.760558     0.000000
H     -0.588073    -0.760558     0.000000
--
1 1
Na     2.050993     0.000000     0.000000

units ang
no_reorient
no_com
symmetry c1
}

set {
basis        aug-cc-pVTZ
scf_type     df
}

energy("mp2", bsse_type="cp")
--------------------------------------------------------------------------

                               Psi4 1.9 release
    Molecular point group: c1
  Charge       = 1
  Multiplicity = 1
  Basis Set: AUG-CC-PVTZ
    Blend: AUG-CC-PVTZ
  Basis Set: (AUG-CC-PVTZ AUX)
    Blend: AUG-CC-PVTZ-JKFIT + DEF2-UNIVERSAL-JKFIT
  @DF-RHF Final Energy:  -161.67604805656367
    Total Energy =                       -161.6760480565636726
 Dipole X            :        -38.7586470           42.6339656            3.8753186
 Dipole Y            :          0.0000000            0.0000000            0.0000000
 Dipole Z            :          0.0000000            0.0000000            0.0000000
 Magnitude           :                                                    3.8753186
  Basis Set: (AUG-CC-PVTZ AUX)
    Blend: AUG-CC-PVTZ-RI + DEF2-QZVPP-RI
	 Reference Energy          =    -161.6760480565636726 [Eh]
	 Singles Energy            =      -0.0000000000000000 [Eh]
	 Same-Spin Energy          =      -0.0034695167718774 [Eh]
	 Opposite-Spin Energy      =      -0.0121371226483021 [Eh]
	 Correlation Energy        =      -0.0156066394201795 [Eh]
	 Total Energy              =    -161.6916546959838570 [Eh]
	 SCS Total Energy          =    -161.6917691093322560 [Eh]
                               Psi4 1.9 release
    Molecular point group: c1
  Multiplicity = 1
  Basis Set: AUG-CC-PVTZ
    Blend: AUG-CC-PVTZ
  Basis Set: (AUG-CC-PVTZ AUX)
    Blend: AUG-CC-PVTZ-JKFIT + DEF2-UNIVERSAL-JKFIT
  @DF-RHF Final Energy:   -76.06037529654601
    Total Energy =                        -76.0603752965460274
  Basis Set: (AUG-CC-PVTZ AUX)
	 Singles Energy            =      -0.0000000000000000 [Eh]
	 Same-Spin Energy          =      -0.0684497418306695 [Eh]
	 Opposite-Spin Energy      =      -0.2157734217698809 [Eh]
	 Correlation Energy        =      -0.2842231636005504 [Eh]
	 Total Energy              =     -76.3445984601465568 [Eh]
	 SCS Total Energy          =     -76.3421199832800994 [Eh]
                               Psi4 1.9 release
    Molecular point group: c1

    Geometry (in Bohr), charge = 1, multiplicity = 1:

       Center              X                  Y                   Z               Mass
    ------------   -----------------  -----------------  -----------------  -----------------
         O            0.000000000000     0.000000000000     0.000000000000    15.994914619570
         H           -1.111296911776     1.437246322526     0.000000000000     1.007825032230
         H           -1.111296911776    -1.437246322526     0.000000000000     1.007825032230
         NA           3.875815055231     0.000000000000     0.000000000000    22.989769282000

  Charge       = 1
  Multiplicity = 1
  Basis Set: AUG-CC-PVTZ
    Blend: AUG-CC-PVTZ
  Basis Set: (AUG-CC-PVTZ AUX)
    Blend: AUG-CC-PVTZ-JKFIT + DEF2-UNIVERSAL-JKFIT

    Orbital Energies [Eh]
    ---------------------

    Doubly Occupied:

       1A    -40.686780     2A    -20.784268     3A     -3.007423
       4A     -1.733403     5A     -1.730996     6A     -1.730498
       7A     -1.574085     8A     -0.937567     9A     -0.832225
      10A     -0.737453

  @DF-RHF Final Energy:  -237.77188325370648

   => Energetics <=

    Nuclear Repulsion Energy =             36.0984747320228863
    One-Electron Energy =                -400.2313184919470928
    Two-Electron Energy =                 126.3609605062177081
    Total Energy =                       -237.7718832537064770
 Dipole X            :        -37.6711939           40.4113718            2.7401779
 Dipole Y            :         -0.0000000            0.0000000           -0.0000000
 Dipole Z            :         -0.0000000            0.0000000           -0.0000000
 Magnitude           :                                                    2.7401779
  Basis Set: (AUG-CC-PVTZ AUX)
    Blend: AUG-CC-PVTZ-RI + DEF2-QZVPP-RI
	 Reference Energy          =    -237.7718832537064770 [Eh]
	 Singles Energy            =      -0.0000000000000000 [Eh]
	 Same-Spin Energy          =      -0.0713583219578172 [Eh]
	 Opposite-Spin Energy      =      -0.2254303915824514 [Eh]
	 Correlation Energy        =      -0.2967887135402686 [Eh]
	 Total Energy              =    -238.0686719672467575 [Eh]

	 ================> DF-SCS-MP2 Energies <==================
	-----------------------------------------------------------
	 SCS Same-Spin Scale       =       0.3333333333333333 [-]
	 SCS Opposite-Spin Scale   =       1.2000000000000000 [-]
	 SCS Same-Spin Energy      =      -0.0237861073192724 [Eh]
	 SCS Opposite-Spin Energy  =      -0.2705164698989417 [Eh]
	 SCS Correlation Energy    =      -0.2943025772182141 [Eh]
	 SCS Total Energy          =    -238.0661858309246952 [Eh]
	-----------------------------------------------------------

*** Psi4 exiting successfully. Buy a developer a beer!
