                               Psi4 1.9 release

  ==> Input File <==

--------------------------------------------------------------------------
MEMORY 60 GB

molecule dimer {
0 1
O      0.000000     0.000000     0.000000
H     -0.591931     0.756733     0.000000
H     -0.591931    -0.756733     0.000000
--
1 1
K      4.932444     0.000000     0.000000

units ang
no_reorient
no_com
symmetry c1
}

set {
basis        aug-cc-pVTZ
scf_type     df
}

energy("mp2", bsse_type="cp")
--------------------------------------------------------------------------

                               Psi4 1.9 release
    Molecular point group: c1
  Charge       = 1
  Multiplicity = 1
  Basis Set: AUG-CC-PVTZ
    Blend: AUG-CC-PVTZ
  Basis Set: (AUG-CC-PVTZ AUX)
    Blend: AUG-CC-PVTZ-JKFIT + DEF2-UNIVERSAL-JKFIT
  @DF-RHF Final Energy:  -599.01750607616577
    Total Energy =                       -599.0175060761657733
 Dipole X            :       -167.7775049          177.0983975            9.3208925
 Dipole Y            :          0.0000000            0.0000000            0.0000000
 Dipole Z            :          0.0000000            0.0000000            0.0000000
 Magnitude           :                                                    9.3208925
  Basis Set: (AUG-CC-PVTZ AUX)
    Blend: AUG-CC-PVTZ-RI + DEF2-QZVPP-RI
	 Reference Energy          =    -599.0175060761657733 [Eh]
	 Singles Energy            =      -0.0000000000000000 [Eh]
	 Same-Spin Energy          =      -0.0255823138744946 [Eh]
	 Opposite-Spin Energy      =      -0.0585520397542782 [Eh]
	 Correlation Energy        =      -0.0841343536287728 [Eh]
	 Total Energy              =    -599.1016404297945428 [Eh]
	 SCS Total Energy          =    -599.0962959618291279 [Eh]
                               Psi4 1.9 release
    Molecular point group: c1
  Multiplicity = 1
  Basis Set: AUG-CC-PVTZ
    Blend: AUG-CC-PVTZ
  Basis Set: (AUG-CC-PVTZ AUX)
    Blend: AUG-CC-PVTZ-JKFIT + DEF2-UNIVERSAL-JKFIT
  @DF-RHF Final Energy:   -76.06031384558347
    Total Energy =                        -76.0603138455834653
  Basis Set: (AUG-CC-PVTZ AUX)
	 Singles Energy            =      -0.0000000000000000 [Eh]
	 Same-Spin Energy          =      -0.0684121380560909 [Eh]
	 Opposite-Spin Energy      =      -0.2153983678363149 [Eh]
	 Correlation Energy        =      -0.2838105058924059 [Eh]
	 Total Energy              =     -76.3441243514758696 [Eh]
	 SCS Total Energy          =     -76.3415959330057348 [Eh]
                               Psi4 1.9 release
    Molecular point group: c1

    Geometry (in Bohr), charge = 1, multiplicity = 1:

       Center              X                  Y                   Z               Mass
    ------------   -----------------  -----------------  -----------------  -----------------
         O            0.000000000000     0.000000000000     0.000000000000    15.994914619570
         H           -1.118587475168     1.430018120096     0.000000000000     1.007825032230
         H           -1.118587475168    -1.430018120096     0.000000000000     1.007825032230
         K            9.320968289158     0.000000000000     0.000000000000    38.963706486400

  Charge       = 1
  Multiplicity = 1
  Basis Set: AUG-CC-PVTZ
    Blend: AUG-CC-PVTZ
  Basis Set: (AUG-CC-PVTZ AUX)
    Blend: AUG-CC-PVTZ-JKFIT + DEF2-UNIVERSAL-JKFIT

    Orbital Energies [Eh]
    ---------------------

    Doubly Occupied:

       1A   -133.744189     2A    -20.670323     3A    -14.699596
       4A    -11.729662     5A    -11.729661     6A    -11.729648
       7A     -1.954665     8A     -1.454792     9A     -1.161379
      10A     -1.161349    11A     -1.160947    12A     -0.817378
      13A     -0.691685    14A     -0.613837

  @DF-RHF Final Energy:  -675.08706413590835

   => Energetics <=

    Nuclear Repulsion Energy =             29.0760886912934495
    One-Electron Energy =                -981.6880855561074668
    Two-Electron Energy =                 277.5249327289058101
    Total Energy =                       -675.0870641359082356
 Dipole X            :       -166.4292736          174.8612225            8.4319490
 Dipole Y            :          0.0000000            0.0000000            0.0000000
 Dipole Z            :          0.0000000            0.0000000            0.0000000
 Magnitude           :                                                    8.4319490
  Basis Set: (AUG-CC-PVTZ AUX)
    Blend: AUG-CC-PVTZ-RI + DEF2-QZVPP-RI
	 Reference Energy          =    -675.0870641359083493 [Eh]
	 Singles Energy            =      -0.0000000000000000 [Eh]
	 Same-Spin Energy          =      -0.0939191693793552 [Eh]
	 Opposite-Spin Energy      =      -0.2735972996015443 [Eh]
	 Correlation Energy        =      -0.3675164689808995 [Eh]
	 Total Energy              =    -675.4545806048892018 [Eh]

	 ================> DF-SCS-MP2 Energies <==================
	-----------------------------------------------------------
	 SCS Same-Spin Scale       =       0.3333333333333333 [-]
	 SCS Opposite-Spin Scale   =       1.2000000000000000 [-]
	 SCS Same-Spin Energy      =      -0.0313063897931184 [Eh]
	 SCS Opposite-Spin Energy  =      -0.3283167595218531 [Eh]
	 SCS Correlation Energy    =      -0.3596231493149715 [Eh]
	 SCS Total Energy          =    -675.4466872852233337 [Eh]
	-----------------------------------------------------------

*** Psi4 exiting successfully. Buy a developer a beer!
