                               Psi4 1.9 release

  ==> Input File <==

--------------------------------------------------------------------------
MEMORY 60 GB

molecule dimer {
0 1
O      0.000000     0.000000     0.000000
H     -0.591931     0.756733     0.000000
H     -0.591931    -0.756733     0.000000
--
1 1
K      2.712844     0.000000     0.000000

units ang
no_reorient
no_com
symmetry c1
}

set {
basis        aug-cc-pVTZ
scf_type     df
}

energy("mp2", bsse_type="cp")
--------------------------------------------------------------------------

                               Psi4 1.9 release
    Molecular point group: c1
  Charge       = 1
  Multiplicity = 1
  Basis Set: AUG-CC-PVTZ
    Blend: AUG-CC-PVTZ
  Basis Set: (AUG-CC-PVTZ AUX)
    Blend: AUG-CC-PVTZ-JKFIT + DEF2-UNIVERSAL-JKFIT
  @DF-RHF Final Energy:  -599.01750832957066
    Total Energy =                       -599.0175083295707736
 Dipole X            :        -92.2779045           97.4041114            5.1262070
 Dipole Y            :         -0.0000000            0.0000000           -0.0000000
 Dipole Z            :         -0.0000000            0.0000000           -0.0000000
 Magnitude           :                                                    5.1262070
  Basis Set: (AUG-CC-PVTZ AUX)
    Blend: AUG-CC-PVTZ-RI + DEF2-QZVPP-RI
	 Reference Energy          =    -599.0175083295706600 [Eh]
	 Singles Energy            =      -0.0000000000000000 [Eh]
	 Same-Spin Energy          =      -0.0279804788389131 [Eh]
	 Opposite-Spin Energy      =      -0.0656796641999215 [Eh]
	 Correlation Energy        =      -0.0936601430388345 [Eh]
	 Total Energy              =    -599.1111684726095064 [Eh]
	 SCS Total Energy          =    -599.1056507528902557 [Eh]
                               Psi4 1.9 release
    Molecular point group: c1
  Multiplicity = 1
  Basis Set: AUG-CC-PVTZ
    Blend: AUG-CC-PVTZ
  Basis Set: (AUG-CC-PVTZ AUX)
    Blend: AUG-CC-PVTZ-JKFIT + DEF2-UNIVERSAL-JKFIT
  @DF-RHF Final Energy:   -76.06032953784678
    Total Energy =                        -76.0603295378467834
  Basis Set: (AUG-CC-PVTZ AUX)
	 Singles Energy            =      -0.0000000000000000 [Eh]
	 Same-Spin Energy          =      -0.0684278729622815 [Eh]
	 Opposite-Spin Energy      =      -0.2155188599880886 [Eh]
	 Correlation Energy        =      -0.2839467329503701 [Eh]
	 Total Energy              =     -76.3442762707971525 [Eh]
	 SCS Total Energy          =     -76.3417614608199102 [Eh]
                               Psi4 1.9 release
    Molecular point group: c1

    Geometry (in Bohr), charge = 1, multiplicity = 1:

       Center              X                  Y                   Z               Mass
    ------------   -----------------  -----------------  -----------------  -----------------
         O            0.000000000000     0.000000000000     0.000000000000    15.994914619570
         H           -1.118587475168     1.430018120096     0.000000000000     1.007825032230
         H           -1.118587475168    -1.430018120096     0.000000000000     1.007825032230
         K            5.126532181092     0.000000000000     0.000000000000    38.963706486400

  Charge       = 1
  Multiplicity = 1
  Basis Set: AUG-CC-PVTZ
    Blend: AUG-CC-PVTZ
  Basis Set: (AUG-CC-PVTZ AUX)
    Blend: AUG-CC-PVTZ-JKFIT + DEF2-UNIVERSAL-JKFIT

    Orbital Energies [Eh]
    ---------------------

    Doubly Occupied:

       1A   -133.713561     2A    -20.745820     3A    -14.669612
       4A    -11.699681     5A    -11.699658     6A    -11.699523
       7A     -1.926681     8A     -1.532948     9A     -1.134918
      10A     -1.134461    11A     -1.132585    12A     -0.894206
      13A     -0.778575    14A     -0.692981

  @DF-RHF Final Energy:  -675.10473864167272

   => Energetics <=

    Nuclear Repulsion Energy =             44.7433601972175552
    One-Electron Energy =               -1012.7857719765843285
    Two-Electron Energy =                 292.9376731376941621
    Total Energy =                       -675.1047386416726113
 Dipole X            :        -91.1622545           95.1669365            4.0046820
 Dipole Y            :         -0.0000000            0.0000000           -0.0000000
 Dipole Z            :         -0.0000000            0.0000000           -0.0000000
 Magnitude           :                                                    4.0046820
  Basis Set: (AUG-CC-PVTZ AUX)
    Blend: AUG-CC-PVTZ-RI + DEF2-QZVPP-RI
	 Reference Energy          =    -675.1047386416727250 [Eh]
	 Singles Energy            =      -0.0000000000000000 [Eh]
	 Same-Spin Energy          =      -0.0970012618308969 [Eh]
	 Opposite-Spin Energy      =      -0.2808860096427735 [Eh]
	 Correlation Energy        =      -0.3778872714736704 [Eh]
	 Total Energy              =    -675.4826259131464212 [Eh]

	 ================> DF-SCS-MP2 Energies <==================
	-----------------------------------------------------------
	 SCS Same-Spin Scale       =       0.3333333333333333 [-]
	 SCS Opposite-Spin Scale   =       1.2000000000000000 [-]
	 SCS Same-Spin Energy      =      -0.0323337539436323 [Eh]
	 SCS Opposite-Spin Energy  =      -0.3370632115713282 [Eh]
	 SCS Correlation Energy    =      -0.3693969655149605 [Eh]
	 SCS Total Energy          =    -675.4741356071876908 [Eh]
	-----------------------------------------------------------

*** Psi4 exiting successfully. Buy a developer a beer!
