                               Psi4 1.9 release

  ==> Input File <==

--------------------------------------------------------------------------
MEMORY 60 GB

molecule dimer {
0 1
O      0.000000     0.000000     0.000000
H     -0.591931     0.756733     0.000000
H     -0.591931    -0.756733     0.000000
--
1 1
K      3.699333     0.000000     0.000000

units ang
no_reorient
no_com
symmetry c1
}

set {
basis        aug-cc-pVTZ
scf_type     df
}

energy("mp2", bsse_type="cp")
--------------------------------------------------------------------------

                               Psi4 1.9 release
    Molecular point group: c1
  Charge       = 1
  Multiplicity = 1
  Basis Set: AUG-CC-PVTZ
    Blend: AUG-CC-PVTZ
  Basis Set: (AUG-CC-PVTZ AUX)
    Blend: AUG-CC-PVTZ-JKFIT + DEF2-UNIVERSAL-JKFIT
  @DF-RHF Final Energy:  -599.01750700992557
    Total Energy =                       -599.0175070099254526
 Dipole X            :       -125.8334590          132.8237981            6.9903391
 Dipole Y            :          0.0000000            0.0000000            0.0000000
 Dipole Z            :          0.0000000            0.0000000            0.0000000
 Magnitude           :                                                    6.9903391
  Basis Set: (AUG-CC-PVTZ AUX)
    Blend: AUG-CC-PVTZ-RI + DEF2-QZVPP-RI
	 Reference Energy          =    -599.0175070099255663 [Eh]
	 Singles Energy            =      -0.0000000000000000 [Eh]
	 Same-Spin Energy          =      -0.0259305437493020 [Eh]
	 Opposite-Spin Energy      =      -0.0595744339508660 [Eh]
	 Correlation Energy        =      -0.0855049777001680 [Eh]
	 Total Energy              =    -599.1030119876256776 [Eh]
	 SCS Total Energy          =    -599.0976398452496596 [Eh]
                               Psi4 1.9 release
    Molecular point group: c1
  Multiplicity = 1
  Basis Set: AUG-CC-PVTZ
    Blend: AUG-CC-PVTZ
  Basis Set: (AUG-CC-PVTZ AUX)
    Blend: AUG-CC-PVTZ-JKFIT + DEF2-UNIVERSAL-JKFIT
  @DF-RHF Final Energy:   -76.06031711914764
    Total Energy =                        -76.0603171191476406
  Basis Set: (AUG-CC-PVTZ AUX)
	 Singles Energy            =      -0.0000000000000000 [Eh]
	 Same-Spin Energy          =      -0.0684190995022645 [Eh]
	 Opposite-Spin Energy      =      -0.2154435831612560 [Eh]
	 Correlation Energy        =      -0.2838626826635205 [Eh]
	 Total Energy              =     -76.3441798018111655 [Eh]
	 SCS Total Energy          =     -76.3416557854419011 [Eh]
                               Psi4 1.9 release
    Molecular point group: c1

    Geometry (in Bohr), charge = 1, multiplicity = 1:

       Center              X                  Y                   Z               Mass
    ------------   -----------------  -----------------  -----------------  -----------------
         O            0.000000000000     0.000000000000     0.000000000000    15.994914619570
         H           -1.118587475168     1.430018120096     0.000000000000     1.007825032230
         H           -1.118587475168    -1.430018120096     0.000000000000     1.007825032230
         K            6.990726216868     0.000000000000     0.000000000000    38.963706486400

  Charge       = 1
  Multiplicity = 1
  Basis Set: AUG-CC-PVTZ
    Blend: AUG-CC-PVTZ
  Basis Set: (AUG-CC-PVTZ AUX)
    Blend: AUG-CC-PVTZ-JKFIT + DEF2-UNIVERSAL-JKFIT

    Orbital Energies [Eh]
    ---------------------

    Doubly Occupied:

       1A   -133.734855     2A    -20.703244     3A    -14.690342
       4A    -11.720416     5A    -11.720412     6A    -11.720365
       7A     -1.945629     8A     -1.487703     9A     -1.152710
      10A     -1.152594    11A     -1.151363    12A     -0.850108
      13A     -0.727789    14A     -0.647392

  @DF-RHF Final Energy:  -675.09464871914395

   => Energetics <=

    Nuclear Repulsion Energy =             35.5203038575905481
    One-Electron Energy =                -994.4200620479947474
    Two-Electron Energy =                 283.8051094712601525
    Total Energy =                       -675.0946487191440610
 Dipole X            :       -124.5737169          130.5866232            6.0129063
 Dipole Y            :         -0.0000000            0.0000000           -0.0000000
 Dipole Z            :          0.0000000            0.0000000            0.0000000
 Magnitude           :                                                    6.0129063
  Basis Set: (AUG-CC-PVTZ AUX)
    Blend: AUG-CC-PVTZ-RI + DEF2-QZVPP-RI
	 Reference Energy          =    -675.0946487191439473 [Eh]
	 Singles Energy            =      -0.0000000000000000 [Eh]
	 Same-Spin Energy          =      -0.0943545872894861 [Eh]
	 Opposite-Spin Energy      =      -0.2745743359565492 [Eh]
	 Correlation Energy        =      -0.3689289232460353 [Eh]
	 Total Energy              =    -675.4635776423899642 [Eh]

	 ================> DF-SCS-MP2 Energies <==================
	-----------------------------------------------------------
	 SCS Same-Spin Scale       =       0.3333333333333333 [-]
	 SCS Opposite-Spin Scale   =       1.2000000000000000 [-]
	 SCS Same-Spin Energy      =      -0.0314515290964954 [Eh]
	 SCS Opposite-Spin Energy  =      -0.3294892031478590 [Eh]
	 SCS Correlation Energy    =      -0.3609407322443544 [Eh]
	 SCS Total Energy          =    -675.4555894513882777 [Eh]
	-----------------------------------------------------------

*** Psi4 exiting successfully. Buy a developer a beer!
