                               Psi4 1.9 release

  ==> Input File <==

--------------------------------------------------------------------------
MEMORY 60 GB

molecule dimer {
0 1
O      0.000000     0.000000     0.000000
H     -0.591931     0.756733     0.000000
H     -0.591931    -0.756733     0.000000
--
1 1
K      2.342911     0.000000     0.000000

units ang
no_reorient
no_com
symmetry c1
}

set {
basis        aug-cc-pVTZ
scf_type     df
}

energy("mp2", bsse_type="cp")
--------------------------------------------------------------------------

                               Psi4 1.9 release
    Molecular point group: c1
  Charge       = 1
  Multiplicity = 1
  Basis Set: AUG-CC-PVTZ
    Blend: AUG-CC-PVTZ
  Basis Set: (AUG-CC-PVTZ AUX)
    Blend: AUG-CC-PVTZ-JKFIT + DEF2-UNIVERSAL-JKFIT
  @DF-RHF Final Energy:  -599.01750921003350
    Total Energy =                       -599.0175092100334950
 Dipole X            :        -79.6947472           84.1217424            4.4269952
 Dipole Y            :          0.0000000            0.0000000            0.0000000
 Dipole Z            :         -0.0000000            0.0000000           -0.0000000
 Magnitude           :                                                    4.4269952
  Basis Set: (AUG-CC-PVTZ AUX)
    Blend: AUG-CC-PVTZ-RI + DEF2-QZVPP-RI
	 Reference Energy          =    -599.0175092100334950 [Eh]
	 Singles Energy            =      -0.0000000000000000 [Eh]
	 Same-Spin Energy          =      -0.0297028287707891 [Eh]
	 Opposite-Spin Energy      =      -0.0707218420725467 [Eh]
	 Correlation Energy        =      -0.1004246708433358 [Eh]
	 Total Energy              =    -599.1179338808768762 [Eh]
	 SCS Total Energy          =    -599.1122763634441526 [Eh]
                               Psi4 1.9 release
    Molecular point group: c1
  Multiplicity = 1
  Basis Set: AUG-CC-PVTZ
    Blend: AUG-CC-PVTZ
  Basis Set: (AUG-CC-PVTZ AUX)
    Blend: AUG-CC-PVTZ-JKFIT + DEF2-UNIVERSAL-JKFIT
  @DF-RHF Final Energy:   -76.06033878061069
    Total Energy =                        -76.0603387806107065
  Basis Set: (AUG-CC-PVTZ AUX)
	 Singles Energy            =      -0.0000000000000000 [Eh]
	 Same-Spin Energy          =      -0.0684304174890465 [Eh]
	 Opposite-Spin Energy      =      -0.2155482748472140 [Eh]
	 Correlation Energy        =      -0.2839786923362605 [Eh]
	 Total Energy              =     -76.3443174729469547 [Eh]
	 SCS Total Energy          =     -76.3418068495903697 [Eh]
                               Psi4 1.9 release
    Molecular point group: c1

    Geometry (in Bohr), charge = 1, multiplicity = 1:

       Center              X                  Y                   Z               Mass
    ------------   -----------------  -----------------  -----------------  -----------------
         O            0.000000000000     0.000000000000     0.000000000000    15.994914619570
         H           -1.118587475168     1.430018120096     0.000000000000     1.007825032230
         H           -1.118587475168    -1.430018120096     0.000000000000     1.007825032230
         K            4.427460126323     0.000000000000     0.000000000000    38.963706486400

  Charge       = 1
  Multiplicity = 1
  Basis Set: AUG-CC-PVTZ
    Blend: AUG-CC-PVTZ
  Basis Set: (AUG-CC-PVTZ AUX)
    Blend: AUG-CC-PVTZ-JKFIT + DEF2-UNIVERSAL-JKFIT

    Orbital Energies [Eh]
    ---------------------

    Doubly Occupied:

       1A   -133.694328     2A    -20.764113     3A    -14.651979
       4A    -11.681899     5A    -11.681852     6A    -11.681746
       7A     -1.914040     8A     -1.557983     9A     -1.125006
      10A     -1.122836    11A     -1.122008    12A     -0.917041
      13A     -0.799735    14A     -0.716932

  @DF-RHF Final Energy:  -675.09851083098999

   => Energetics <=

    Nuclear Repulsion Energy =             50.1283650443805868
    One-Electron Energy =               -1023.5907527688892742
    Two-Electron Energy =                 298.3638768935188637
    Total Energy =                       -675.0985108309898806
 Dipole X            :        -78.6566591           81.8845674            3.2279083
 Dipole Y            :          0.0000000            0.0000000            0.0000000
 Dipole Z            :          0.0000000            0.0000000            0.0000000
 Magnitude           :                                                    3.2279083
  Basis Set: (AUG-CC-PVTZ AUX)
    Blend: AUG-CC-PVTZ-RI + DEF2-QZVPP-RI
	 Reference Energy          =    -675.0985108309899942 [Eh]
	 Singles Energy            =      -0.0000000000000000 [Eh]
	 Same-Spin Energy          =      -0.0995761242450495 [Eh]
	 Opposite-Spin Energy      =      -0.2862221384731437 [Eh]
	 Correlation Energy        =      -0.3857982627181931 [Eh]
	 Total Energy              =    -675.4843090937081342 [Eh]

	 ================> DF-SCS-MP2 Energies <==================
	-----------------------------------------------------------
	 SCS Same-Spin Scale       =       0.3333333333333333 [-]
	 SCS Opposite-Spin Scale   =       1.2000000000000000 [-]
	 SCS Same-Spin Energy      =      -0.0331920414150165 [Eh]
	 SCS Opposite-Spin Energy  =      -0.3434665661677724 [Eh]
	 SCS Correlation Energy    =      -0.3766586075827889 [Eh]
	 SCS Total Energy          =    -675.4751694385728342 [Eh]
	-----------------------------------------------------------

*** Psi4 exiting successfully. Buy a developer a beer!
