                               Psi4 1.9 release

  ==> Input File <==

--------------------------------------------------------------------------
MEMORY 60 GB

molecule dimer {
0 1
O      0.000000     0.000000     0.000000
H     -0.591931     0.756733     0.000000
H     -0.591931    -0.756733     0.000000
--
1 1
K      2.219600     0.000000     0.000000

units ang
no_reorient
no_com
symmetry c1
}

set {
basis        aug-cc-pVTZ
scf_type     df
}

energy("mp2", bsse_type="cp")
--------------------------------------------------------------------------

                               Psi4 1.9 release
    Molecular point group: c1
  Charge       = 1
  Multiplicity = 1
  Basis Set: AUG-CC-PVTZ
    Blend: AUG-CC-PVTZ
  Basis Set: (AUG-CC-PVTZ AUX)
    Blend: AUG-CC-PVTZ-JKFIT + DEF2-UNIVERSAL-JKFIT
  @DF-RHF Final Energy:  -599.01750955124317
    Total Energy =                       -599.0175095512430516
 Dipole X            :        -75.5003472           79.6942861            4.1939389
 Dipole Y            :          0.0000000            0.0000000            0.0000000
 Dipole Z            :          0.0000000            0.0000000            0.0000000
 Magnitude           :                                                    4.1939389
  Basis Set: (AUG-CC-PVTZ AUX)
    Blend: AUG-CC-PVTZ-RI + DEF2-QZVPP-RI
	 Reference Energy          =    -599.0175095512431653 [Eh]
	 Singles Energy            =      -0.0000000000000000 [Eh]
	 Same-Spin Energy          =      -0.0304184870790732 [Eh]
	 Opposite-Spin Energy      =      -0.0728408400853250 [Eh]
	 Correlation Energy        =      -0.1032593271643982 [Eh]
	 Total Energy              =    -599.1207688784076026 [Eh]
	 SCS Total Energy          =    -599.1150580550386167 [Eh]
                               Psi4 1.9 release
    Molecular point group: c1
  Multiplicity = 1
  Basis Set: AUG-CC-PVTZ
    Blend: AUG-CC-PVTZ
  Basis Set: (AUG-CC-PVTZ AUX)
    Blend: AUG-CC-PVTZ-JKFIT + DEF2-UNIVERSAL-JKFIT
  @DF-RHF Final Energy:   -76.06034106936549
    Total Energy =                        -76.0603410693654780
  Basis Set: (AUG-CC-PVTZ AUX)
	 Singles Energy            =      -0.0000000000000000 [Eh]
	 Same-Spin Energy          =      -0.0684319129507967 [Eh]
	 Opposite-Spin Energy      =      -0.2155636525668133 [Eh]
	 Correlation Energy        =      -0.2839955655176100 [Eh]
	 Total Energy              =     -76.3443366348831063 [Eh]
	 SCS Total Energy          =     -76.3418280900959303 [Eh]
                               Psi4 1.9 release
    Molecular point group: c1

    Geometry (in Bohr), charge = 1, multiplicity = 1:

       Center              X                  Y                   Z               Mass
    ------------   -----------------  -----------------  -----------------  -----------------
         O            0.000000000000     0.000000000000     0.000000000000    15.994914619570
         H           -1.118587475168     1.430018120096     0.000000000000     1.007825032230
         H           -1.118587475168    -1.430018120096     0.000000000000     1.007825032230
         K            4.194436108066     0.000000000000     0.000000000000    38.963706486400

  Charge       = 1
  Multiplicity = 1
  Basis Set: AUG-CC-PVTZ
    Blend: AUG-CC-PVTZ
  Basis Set: (AUG-CC-PVTZ AUX)
    Blend: AUG-CC-PVTZ-JKFIT + DEF2-UNIVERSAL-JKFIT

    Orbital Energies [Eh]
    ---------------------

    Doubly Occupied:

       1A   -133.685323     2A    -20.770008     3A    -14.643947
       4A    -11.673746     5A    -11.673685     6A    -11.673656
       7A     -1.909373     8A     -1.568230     9A     -1.124648
      10A     -1.118137    11A     -1.117091    12A     -0.925788
      13A     -0.803794    14A     -0.726276

  @DF-RHF Final Energy:  -675.08995912632031

   => Energetics <=

    Nuclear Repulsion Energy =             52.3073740891965002
    One-Electron Energy =               -1027.9672574722071658
    Two-Electron Energy =                 300.5699242566903422
    Total Energy =                       -675.0899591263203092
 Dipole X            :        -74.4936224           77.4571111            2.9634887
 Dipole Y            :         -0.0000000            0.0000000           -0.0000000
 Dipole Z            :          0.0000000            0.0000000            0.0000000
 Magnitude           :                                                    2.9634887
  Basis Set: (AUG-CC-PVTZ AUX)
    Blend: AUG-CC-PVTZ-RI + DEF2-QZVPP-RI
	 Reference Energy          =    -675.0899591263203092 [Eh]
	 Singles Energy            =      -0.0000000000000000 [Eh]
	 Same-Spin Energy          =      -0.1007981558830371 [Eh]
	 Opposite-Spin Energy      =      -0.2885613865005059 [Eh]
	 Correlation Energy        =      -0.3893595423835431 [Eh]
	 Total Energy              =    -675.4793186687038542 [Eh]

	 ================> DF-SCS-MP2 Energies <==================
	-----------------------------------------------------------
	 SCS Same-Spin Scale       =       0.3333333333333333 [-]
	 SCS Opposite-Spin Scale   =       1.2000000000000000 [-]
	 SCS Same-Spin Energy      =      -0.0335993852943457 [Eh]
	 SCS Opposite-Spin Energy  =      -0.3462736638006071 [Eh]
	 SCS Correlation Energy    =      -0.3798730490949528 [Eh]
	 SCS Total Energy          =    -675.4698321754152630 [Eh]
	-----------------------------------------------------------

*** Psi4 exiting successfully. Buy a developer a beer!
