                               Psi4 1.9 release

  ==> Input File <==

--------------------------------------------------------------------------
MEMORY 60 GB

molecule dimer {
0 1
O      0.000000     0.000000     0.000000
H     -0.591931     0.756733     0.000000
H     -0.591931    -0.756733     0.000000
--
1 1
K      2.959466     0.000000     0.000000

units ang
no_reorient
no_com
symmetry c1
}

set {
basis        aug-cc-pVTZ
scf_type     df
}

energy("mp2", bsse_type="cp")
--------------------------------------------------------------------------

                               Psi4 1.9 release
    Molecular point group: c1
  Charge       = 1
  Multiplicity = 1
  Basis Set: AUG-CC-PVTZ
    Blend: AUG-CC-PVTZ
  Basis Set: (AUG-CC-PVTZ AUX)
    Blend: AUG-CC-PVTZ-JKFIT + DEF2-UNIVERSAL-JKFIT
  @DF-RHF Final Energy:  -599.01750780753821
    Total Energy =                       -599.0175078075382089
 Dipole X            :       -100.6666979          106.2590241            5.5923262
 Dipole Y            :         -0.0000000            0.0000000           -0.0000000
 Dipole Z            :         -0.0000000            0.0000000           -0.0000000
 Magnitude           :                                                    5.5923262
  Basis Set: (AUG-CC-PVTZ AUX)
    Blend: AUG-CC-PVTZ-RI + DEF2-QZVPP-RI
	 Reference Energy          =    -599.0175078075382089 [Eh]
	 Singles Energy            =      -0.0000000000000000 [Eh]
	 Same-Spin Energy          =      -0.0271276200905827 [Eh]
	 Opposite-Spin Energy      =      -0.0629790276638655 [Eh]
	 Correlation Energy        =      -0.0901066477544482 [Eh]
	 Total Energy              =    -599.1076144552926053 [Eh]
	 SCS Total Energy          =    -599.1021251807650287 [Eh]
                               Psi4 1.9 release
    Molecular point group: c1
  Multiplicity = 1
  Basis Set: AUG-CC-PVTZ
    Blend: AUG-CC-PVTZ
  Basis Set: (AUG-CC-PVTZ AUX)
    Blend: AUG-CC-PVTZ-JKFIT + DEF2-UNIVERSAL-JKFIT
  @DF-RHF Final Energy:   -76.06032583914400
    Total Energy =                        -76.0603258391439994
  Basis Set: (AUG-CC-PVTZ AUX)
	 Singles Energy            =      -0.0000000000000000 [Eh]
	 Same-Spin Energy          =      -0.0684266324233181 [Eh]
	 Opposite-Spin Energy      =      -0.2155063543959275 [Eh]
	 Correlation Energy        =      -0.2839329868192456 [Eh]
	 Total Energy              =     -76.3442588259632515 [Eh]
	 SCS Total Energy          =     -76.3417423418935499 [Eh]
                               Psi4 1.9 release
    Molecular point group: c1

    Geometry (in Bohr), charge = 1, multiplicity = 1:

       Center              X                  Y                   Z               Mass
    ------------   -----------------  -----------------  -----------------  -----------------
         O            0.000000000000     0.000000000000     0.000000000000    15.994914619570
         H           -1.118587475168     1.430018120096     0.000000000000     1.007825032230
         H           -1.118587475168    -1.430018120096     0.000000000000     1.007825032230
         K            5.592580217604     0.000000000000     0.000000000000    38.963706486400

  Charge       = 1
  Multiplicity = 1
  Basis Set: AUG-CC-PVTZ
    Blend: AUG-CC-PVTZ
  Basis Set: (AUG-CC-PVTZ AUX)
    Blend: AUG-CC-PVTZ-JKFIT + DEF2-UNIVERSAL-JKFIT

    Orbital Energies [Eh]
    ---------------------

    Doubly Occupied:

       1A   -133.721626     2A    -20.733817     3A    -14.677305
       4A    -11.707391     5A    -11.707376     6A    -11.707269
       7A     -1.933236     8A     -1.519299     9A     -1.141058
      10A     -1.140742    11A     -1.138520    12A     -0.881134
      13A     -0.763618    14A     -0.679412

  @DF-RHF Final Energy:  -675.10283164774887

   => Energetics <=

    Nuclear Repulsion Energy =             41.8791938498009699
    One-Electron Energy =               -1007.0604409032224567
    Two-Electron Energy =                 290.0784154056725583
    Total Energy =                       -675.1028316477488715
 Dipole X            :        -99.5067058          104.0218492            4.5151434
 Dipole Y            :         -0.0000000            0.0000000           -0.0000000
 Dipole Z            :         -0.0000000            0.0000000           -0.0000000
 Magnitude           :                                                    4.5151434
  Basis Set: (AUG-CC-PVTZ AUX)
    Blend: AUG-CC-PVTZ-RI + DEF2-QZVPP-RI
	 Reference Energy          =    -675.1028316477488715 [Eh]
	 Singles Energy            =      -0.0000000000000000 [Eh]
	 Same-Spin Energy          =      -0.0958692057443184 [Eh]
	 Opposite-Spin Energy      =      -0.2780983164725399 [Eh]
	 Correlation Energy        =      -0.3739675222168583 [Eh]
	 Total Energy              =    -675.4767991699657159 [Eh]

	 ================> DF-SCS-MP2 Energies <==================
	-----------------------------------------------------------
	 SCS Same-Spin Scale       =       0.3333333333333333 [-]
	 SCS Opposite-Spin Scale   =       1.2000000000000000 [-]
	 SCS Same-Spin Energy      =      -0.0319564019147728 [Eh]
	 SCS Opposite-Spin Energy  =      -0.3337179797670478 [Eh]
	 SCS Correlation Energy    =      -0.3656743816818206 [Eh]
	 SCS Total Energy          =    -675.4685060294307277 [Eh]
	-----------------------------------------------------------

*** Psi4 exiting successfully. Buy a developer a beer!
