                               Psi4 1.9 release

  ==> Input File <==

--------------------------------------------------------------------------
MEMORY 60 GB

molecule dimer {
0 1
O      0.000000     0.000000     0.000000
H     -0.591931     0.756733     0.000000
H     -0.591931    -0.756733     0.000000
--
1 1
K      3.452711     0.000000     0.000000

units ang
no_reorient
no_com
symmetry c1
}

set {
basis        aug-cc-pVTZ
scf_type     df
}

energy("mp2", bsse_type="cp")
--------------------------------------------------------------------------

                               Psi4 1.9 release
    Molecular point group: c1
  Charge       = 1
  Multiplicity = 1
  Basis Set: AUG-CC-PVTZ
    Blend: AUG-CC-PVTZ
  Basis Set: (AUG-CC-PVTZ AUX)
    Blend: AUG-CC-PVTZ-JKFIT + DEF2-UNIVERSAL-JKFIT
  @DF-RHF Final Energy:  -599.01750715546007
    Total Energy =                       -599.0175071554601800
 Dipole X            :       -117.4445729          123.9688854            6.5243125
 Dipole Y            :         -0.0000000            0.0000000           -0.0000000
 Dipole Z            :          0.0000000            0.0000000            0.0000000
 Magnitude           :                                                    6.5243125
  Basis Set: (AUG-CC-PVTZ AUX)
    Blend: AUG-CC-PVTZ-RI + DEF2-QZVPP-RI
	 Reference Energy          =    -599.0175071554600663 [Eh]
	 Singles Energy            =      -0.0000000000000000 [Eh]
	 Same-Spin Energy          =      -0.0261292212342876 [Eh]
	 Opposite-Spin Energy      =      -0.0600324930645345 [Eh]
	 Correlation Energy        =      -0.0861617142988222 [Eh]
	 Total Energy              =    -599.1036688697588488 [Eh]
	 SCS Total Energy          =    -599.0982558875489303 [Eh]
                               Psi4 1.9 release
    Molecular point group: c1
  Multiplicity = 1
  Basis Set: AUG-CC-PVTZ
    Blend: AUG-CC-PVTZ
  Basis Set: (AUG-CC-PVTZ AUX)
    Blend: AUG-CC-PVTZ-JKFIT + DEF2-UNIVERSAL-JKFIT
  @DF-RHF Final Energy:   -76.06031907801385
    Total Energy =                        -76.0603190780138476
  Basis Set: (AUG-CC-PVTZ AUX)
	 Singles Energy            =      -0.0000000000000000 [Eh]
	 Same-Spin Energy          =      -0.0684217861215512 [Eh]
	 Opposite-Spin Energy      =      -0.2154640099998856 [Eh]
	 Correlation Energy        =      -0.2838857961214368 [Eh]
	 Total Energy              =     -76.3442048741352863 [Eh]
	 SCS Total Energy          =     -76.3416831520542303 [Eh]
                               Psi4 1.9 release
    Molecular point group: c1

    Geometry (in Bohr), charge = 1, multiplicity = 1:

       Center              X                  Y                   Z               Mass
    ------------   -----------------  -----------------  -----------------  -----------------
         O            0.000000000000     0.000000000000     0.000000000000    15.994914619570
         H           -1.118587475168     1.430018120096     0.000000000000     1.007825032230
         H           -1.118587475168    -1.430018120096     0.000000000000     1.007825032230
         K            6.524678180356     0.000000000000     0.000000000000    38.963706486400

  Charge       = 1
  Multiplicity = 1
  Basis Set: AUG-CC-PVTZ
    Blend: AUG-CC-PVTZ
  Basis Set: (AUG-CC-PVTZ AUX)
    Blend: AUG-CC-PVTZ-JKFIT + DEF2-UNIVERSAL-JKFIT

    Orbital Energies [Eh]
    ---------------------

    Doubly Occupied:

       1A   -133.731477     2A    -20.712403     3A    -14.687001
       4A    -11.717077     5A    -11.717070     6A    -11.717009
       7A     -1.942393     8A     -1.496938     9A     -1.149644
      10A     -1.149486    11A     -1.147914    12A     -0.859241
      13A     -0.738181    14A     -0.656796

  @DF-RHF Final Energy:  -675.09713221607922

   => Energetics <=

    Nuclear Repulsion Energy =             37.3455139132464211
    One-Electron Energy =                -998.0400343926223741
    Two-Electron Energy =                 285.5973882632966934
    Total Energy =                       -675.0971322160792170
 Dipole X            :       -116.2132862          121.7317105            5.5184243
 Dipole Y            :         -0.0000000            0.0000000           -0.0000000
 Dipole Z            :         -0.0000000            0.0000000           -0.0000000
 Magnitude           :                                                    5.5184243
  Basis Set: (AUG-CC-PVTZ AUX)
    Blend: AUG-CC-PVTZ-RI + DEF2-QZVPP-RI
	 Reference Energy          =    -675.0971322160792170 [Eh]
	 Singles Energy            =      -0.0000000000000000 [Eh]
	 Same-Spin Energy          =      -0.0946138701794182 [Eh]
	 Opposite-Spin Energy      =      -0.2750524282896883 [Eh]
	 Correlation Energy        =      -0.3696662984691065 [Eh]
	 Total Energy              =    -675.4667985145483726 [Eh]

	 ================> DF-SCS-MP2 Energies <==================
	-----------------------------------------------------------
	 SCS Same-Spin Scale       =       0.3333333333333333 [-]
	 SCS Opposite-Spin Scale   =       1.2000000000000000 [-]
	 SCS Same-Spin Energy      =      -0.0315379567264727 [Eh]
	 SCS Opposite-Spin Energy  =      -0.3300629139476259 [Eh]
	 SCS Correlation Energy    =      -0.3616008706740987 [Eh]
	 SCS Total Energy          =    -675.4587330867533410 [Eh]
	-----------------------------------------------------------

*** Psi4 exiting successfully. Buy a developer a beer!
