                               Psi4 1.9 release

  ==> Input File <==

--------------------------------------------------------------------------
MEMORY 60 GB

molecule dimer {
0 1
O      0.000000     0.000000     0.000000
H     -0.591931     0.756733     0.000000
H     -0.591931    -0.756733     0.000000
--
1 1
K      1.972978     0.000000     0.000000

units ang
no_reorient
no_com
symmetry c1
}

set {
basis        aug-cc-pVTZ
scf_type     df
}

energy("mp2", bsse_type="cp")
--------------------------------------------------------------------------

                               Psi4 1.9 release
    Molecular point group: c1
  Charge       = 1
  Multiplicity = 1
  Basis Set: AUG-CC-PVTZ
    Blend: AUG-CC-PVTZ
  Basis Set: (AUG-CC-PVTZ AUX)
    Blend: AUG-CC-PVTZ-JKFIT + DEF2-UNIVERSAL-JKFIT
  @DF-RHF Final Energy:  -599.01751032949790
    Total Energy =                       -599.0175103294980090
 Dipole X            :        -67.1115281           70.8393734            3.7278452
 Dipole Y            :         -0.0000000            0.0000000           -0.0000000
 Dipole Z            :          0.0000000            0.0000000            0.0000000
 Magnitude           :                                                    3.7278452
  Basis Set: (AUG-CC-PVTZ AUX)
    Blend: AUG-CC-PVTZ-RI + DEF2-QZVPP-RI
	 Reference Energy          =    -599.0175103294978953 [Eh]
	 Singles Energy            =      -0.0000000000000000 [Eh]
	 Same-Spin Energy          =      -0.0320905438955234 [Eh]
	 Opposite-Spin Energy      =      -0.0779808861568001 [Eh]
	 Correlation Energy        =      -0.1100714300523234 [Eh]
	 Total Energy              =    -599.1275817595502531 [Eh]
	 SCS Total Energy          =    -599.1217842408511842 [Eh]
                               Psi4 1.9 release
    Molecular point group: c1
  Multiplicity = 1
  Basis Set: AUG-CC-PVTZ
    Blend: AUG-CC-PVTZ
  Basis Set: (AUG-CC-PVTZ AUX)
    Blend: AUG-CC-PVTZ-JKFIT + DEF2-UNIVERSAL-JKFIT
  @DF-RHF Final Energy:   -76.06034242335896
    Total Energy =                        -76.0603424233589607
  Basis Set: (AUG-CC-PVTZ AUX)
	 Singles Energy            =      -0.0000000000000000 [Eh]
	 Same-Spin Energy          =      -0.0684370224450975 [Eh]
	 Opposite-Spin Energy      =      -0.2156115048406539 [Eh]
	 Correlation Energy        =      -0.2840485272857514 [Eh]
	 Total Energy              =     -76.3443909506447085 [Eh]
	 SCS Total Energy          =     -76.3418885699827712 [Eh]
                               Psi4 1.9 release
    Molecular point group: c1

    Geometry (in Bohr), charge = 1, multiplicity = 1:

       Center              X                  Y                   Z               Mass
    ------------   -----------------  -----------------  -----------------  -----------------
         O            0.000000000000     0.000000000000     0.000000000000    15.994914619570
         H           -1.118587475168     1.430018120096     0.000000000000     1.007825032230
         H           -1.118587475168    -1.430018120096     0.000000000000     1.007825032230
         K            3.728388071554     0.000000000000     0.000000000000    38.963706486400

  Charge       = 1
  Multiplicity = 1
  Basis Set: AUG-CC-PVTZ
    Blend: AUG-CC-PVTZ
  Basis Set: (AUG-CC-PVTZ AUX)
    Blend: AUG-CC-PVTZ-JKFIT + DEF2-UNIVERSAL-JKFIT

    Orbital Energies [Eh]
    ---------------------

    Doubly Occupied:

       1A   -133.662400     2A    -20.781781     3A    -14.623838
       4A    -11.653477     5A    -11.653177     6A    -11.653078
       7A     -1.901605     8A     -1.593631     9A     -1.133272
      10A     -1.108854    11A     -1.106796    12A     -0.945751
      13A     -0.797650    14A     -0.748468

  @DF-RHF Final Energy:  -675.04892069951825

   => Energetics <=

    Nuclear Repulsion Energy =             57.4502359791182755
    One-Electron Energy =               -1038.2707600592543713
    Two-Electron Energy =                 305.7716033806178189
    Total Energy =                       -675.0489206995182485
 Dipole X            :        -66.1889769           68.6021984            2.4132215
 Dipole Y            :         -0.0000000            0.0000000           -0.0000000
 Dipole Z            :         -0.0000000            0.0000000           -0.0000000
 Magnitude           :                                                    2.4132215
  Basis Set: (AUG-CC-PVTZ AUX)
    Blend: AUG-CC-PVTZ-RI + DEF2-QZVPP-RI
	 Reference Energy          =    -675.0489206995182485 [Eh]
	 Singles Energy            =      -0.0000000000000000 [Eh]
	 Same-Spin Energy          =      -0.1041288188545080 [Eh]
	 Opposite-Spin Energy      =      -0.2945901338884697 [Eh]
	 Correlation Energy        =      -0.3987189527429776 [Eh]
	 Total Energy              =    -675.4476396522612731 [Eh]

	 ================> DF-SCS-MP2 Energies <==================
	-----------------------------------------------------------
	 SCS Same-Spin Scale       =       0.3333333333333333 [-]
	 SCS Opposite-Spin Scale   =       1.2000000000000000 [-]
	 SCS Same-Spin Energy      =      -0.0347096062848360 [Eh]
	 SCS Opposite-Spin Energy  =      -0.3535081606661636 [Eh]
	 SCS Correlation Energy    =      -0.3882177669509996 [Eh]
	 SCS Total Energy          =    -675.4371384664692641 [Eh]
	-----------------------------------------------------------

*** Psi4 exiting successfully. Buy a developer a beer!
