                               Psi4 1.9 release

  ==> Input File <==

--------------------------------------------------------------------------
MEMORY 60 GB

molecule dimer {
0 1
O      0.000000     0.000000     0.000000
H     -0.591931     0.756733     0.000000
H     -0.591931    -0.756733     0.000000
--
1 1
K      2.589533     0.000000     0.000000

units ang
no_reorient
no_com
symmetry c1
}

set {
basis        aug-cc-pVTZ
scf_type     df
}

energy("mp2", bsse_type="cp")
--------------------------------------------------------------------------

                               Psi4 1.9 release
    Molecular point group: c1
  Charge       = 1
  Multiplicity = 1
  Basis Set: AUG-CC-PVTZ
    Blend: AUG-CC-PVTZ
  Basis Set: (AUG-CC-PVTZ AUX)
    Blend: AUG-CC-PVTZ-JKFIT + DEF2-UNIVERSAL-JKFIT
  @DF-RHF Final Energy:  -599.01750861106063
    Total Energy =                       -599.0175086110606344
 Dipole X            :        -88.0835242           92.9766551            4.8931309
 Dipole Y            :         -0.0000000            0.0000000           -0.0000000
 Dipole Z            :          0.0000000            0.0000000            0.0000000
 Magnitude           :                                                    4.8931309
  Basis Set: (AUG-CC-PVTZ AUX)
    Blend: AUG-CC-PVTZ-RI + DEF2-QZVPP-RI
	 Reference Energy          =    -599.0175086110606344 [Eh]
	 Singles Energy            =      -0.0000000000000000 [Eh]
	 Same-Spin Energy          =      -0.0284876645565766 [Eh]
	 Opposite-Spin Energy      =      -0.0671857732920262 [Eh]
	 Correlation Energy        =      -0.0956734378486028 [Eh]
	 Total Energy              =    -599.1131820489092661 [Eh]
	 SCS Total Energy          =    -599.1076274271965758 [Eh]
                               Psi4 1.9 release
    Molecular point group: c1
  Multiplicity = 1
  Basis Set: AUG-CC-PVTZ
    Blend: AUG-CC-PVTZ
  Basis Set: (AUG-CC-PVTZ AUX)
    Blend: AUG-CC-PVTZ-JKFIT + DEF2-UNIVERSAL-JKFIT
  @DF-RHF Final Energy:   -76.06033227247194
    Total Energy =                        -76.0603322724719391
  Basis Set: (AUG-CC-PVTZ AUX)
	 Singles Energy            =      -0.0000000000000000 [Eh]
	 Same-Spin Energy          =      -0.0684285695531876 [Eh]
	 Opposite-Spin Energy      =      -0.2155266772031454 [Eh]
	 Correlation Energy        =      -0.2839552467563330 [Eh]
	 Total Energy              =     -76.3442875192282742 [Eh]
	 SCS Total Energy          =     -76.3417738083001041 [Eh]
                               Psi4 1.9 release
    Molecular point group: c1

    Geometry (in Bohr), charge = 1, multiplicity = 1:

       Center              X                  Y                   Z               Mass
    ------------   -----------------  -----------------  -----------------  -----------------
         O            0.000000000000     0.000000000000     0.000000000000    15.994914619570
         H           -1.118587475168     1.430018120096     0.000000000000     1.007825032230
         H           -1.118587475168    -1.430018120096     0.000000000000     1.007825032230
         K            4.893508162835     0.000000000000     0.000000000000    38.963706486400

  Charge       = 1
  Multiplicity = 1
  Basis Set: AUG-CC-PVTZ
    Blend: AUG-CC-PVTZ
  Basis Set: (AUG-CC-PVTZ AUX)
    Blend: AUG-CC-PVTZ-JKFIT + DEF2-UNIVERSAL-JKFIT

    Orbital Energies [Eh]
    ---------------------

    Doubly Occupied:

       1A   -133.708258     2A    -20.751960     3A    -14.664667
       4A    -11.694710     5A    -11.694681     6A    -11.694538
       7A     -1.922814     8A     -1.540566     9A     -1.131273
      10A     -1.130720    11A     -1.129585    12A     -0.901341
      13A     -0.786219    14A     -0.700421

  @DF-RHF Final Energy:  -675.10456643989608

   => Energetics <=

    Nuclear Repulsion Energy =             46.3730464759271257
    One-Electron Energy =               -1016.0517221189854808
    Two-Electron Energy =                 294.5741092031622657
    Total Energy =                       -675.1045664398960753
 Dipole X            :        -86.9919813           90.7394801            3.7474989
 Dipole Y            :         -0.0000000            0.0000000           -0.0000000
 Dipole Z            :          0.0000000            0.0000000            0.0000000
 Magnitude           :                                                    3.7474989
  Basis Set: (AUG-CC-PVTZ AUX)
    Blend: AUG-CC-PVTZ-RI + DEF2-QZVPP-RI
	 Reference Energy          =    -675.1045664398960753 [Eh]
	 Singles Energy            =      -0.0000000000000000 [Eh]
	 Same-Spin Energy          =      -0.0977157460041836 [Eh]
	 Opposite-Spin Energy      =      -0.2824558807946680 [Eh]
	 Correlation Energy        =      -0.3801716267988516 [Eh]
	 Total Energy              =    -675.4847380666949448 [Eh]

	 ================> DF-SCS-MP2 Energies <==================
	-----------------------------------------------------------
	 SCS Same-Spin Scale       =       0.3333333333333333 [-]
	 SCS Opposite-Spin Scale   =       1.2000000000000000 [-]
	 SCS Same-Spin Energy      =      -0.0325719153347279 [Eh]
	 SCS Opposite-Spin Energy  =      -0.3389470569536017 [Eh]
	 SCS Correlation Energy    =      -0.3715189722883295 [Eh]
	 SCS Total Energy          =    -675.4760854121843749 [Eh]
	-----------------------------------------------------------

*** Psi4 exiting successfully. Buy a developer a beer!
