                               Psi4 1.9 release

  ==> Input File <==

--------------------------------------------------------------------------
MEMORY 60 GB

molecule dimer {
0 1
O      0.000000     0.000000     0.000000
H     -0.591931     0.756733     0.000000
H     -0.591931    -0.756733     0.000000
--
1 1
K      2.466222     0.000000     0.000000

units ang
no_reorient
no_com
symmetry c1
}

set {
basis        aug-cc-pVTZ
scf_type     df
}

energy("mp2", bsse_type="cp")
--------------------------------------------------------------------------

                               Psi4 1.9 release
    Molecular point group: c1
  Charge       = 1
  Multiplicity = 1
  Basis Set: AUG-CC-PVTZ
    Blend: AUG-CC-PVTZ
  Basis Set: (AUG-CC-PVTZ AUX)
    Blend: AUG-CC-PVTZ-JKFIT + DEF2-UNIVERSAL-JKFIT
  @DF-RHF Final Energy:  -599.01750890270819
    Total Energy =                       -599.0175089027081867
 Dipole X            :        -83.8891398           88.5491987            4.6600590
 Dipole Y            :         -0.0000000            0.0000000           -0.0000000
 Dipole Z            :          0.0000000            0.0000000            0.0000000
 Magnitude           :                                                    4.6600590
  Basis Set: (AUG-CC-PVTZ AUX)
    Blend: AUG-CC-PVTZ-RI + DEF2-QZVPP-RI
	 Reference Energy          =    -599.0175089027081867 [Eh]
	 Singles Energy            =      -0.0000000000000000 [Eh]
	 Same-Spin Energy          =      -0.0290600456611705 [Eh]
	 Opposite-Spin Energy      =      -0.0688501055730747 [Eh]
	 Correlation Energy        =      -0.0979101512342452 [Eh]
	 Total Energy              =    -599.1154190539424462 [Eh]
	 SCS Total Energy          =    -599.1098157112829767 [Eh]
                               Psi4 1.9 release
    Molecular point group: c1
  Multiplicity = 1
  Basis Set: AUG-CC-PVTZ
    Blend: AUG-CC-PVTZ
  Basis Set: (AUG-CC-PVTZ AUX)
    Blend: AUG-CC-PVTZ-JKFIT + DEF2-UNIVERSAL-JKFIT
  @DF-RHF Final Energy:   -76.06033555740250
    Total Energy =                        -76.0603355574024960
  Basis Set: (AUG-CC-PVTZ AUX)
	 Singles Energy            =      -0.0000000000000000 [Eh]
	 Same-Spin Energy          =      -0.0684293788925968 [Eh]
	 Opposite-Spin Energy      =      -0.2155363140259521 [Eh]
	 Correlation Energy        =      -0.2839656929185489 [Eh]
	 Total Energy              =     -76.3443012503210383 [Eh]
	 SCS Total Energy          =     -76.3417889271978396 [Eh]
                               Psi4 1.9 release
    Molecular point group: c1

    Geometry (in Bohr), charge = 1, multiplicity = 1:

       Center              X                  Y                   Z               Mass
    ------------   -----------------  -----------------  -----------------  -----------------
         O            0.000000000000     0.000000000000     0.000000000000    15.994914619570
         H           -1.118587475168     1.430018120096     0.000000000000     1.007825032230
         H           -1.118587475168    -1.430018120096     0.000000000000     1.007825032230
         K            4.660484144579     0.000000000000     0.000000000000    38.963706486400

  Charge       = 1
  Multiplicity = 1
  Basis Set: AUG-CC-PVTZ
    Blend: AUG-CC-PVTZ
  Basis Set: (AUG-CC-PVTZ AUX)
    Blend: AUG-CC-PVTZ-JKFIT + DEF2-UNIVERSAL-JKFIT

    Orbital Energies [Eh]
    ---------------------

    Doubly Occupied:

       1A   -133.701908     2A    -20.758083     3A    -14.658836
       4A    -11.688832     5A    -11.688795     6A    -11.688658
       7A     -1.918577     8A     -1.548851     9A     -1.127238
      10A     -1.126901    11A     -1.126566    12A     -0.908928
      13A     -0.793501    14A     -0.708370

  @DF-RHF Final Energy:  -675.10283908958945

   => Energetics <=

    Nuclear Repulsion Energy =             48.1600213580909724
    One-Electron Energy =               -1019.6376350011885279
    Two-Electron Energy =                 296.3747745535081322
    Total Energy =                       -675.1028390895894518
 Dipole X            :        -82.8232196           86.3120238            3.4888042
 Dipole Y            :          0.0000000            0.0000000            0.0000000
 Dipole Z            :          0.0000000            0.0000000            0.0000000
 Magnitude           :                                                    3.4888042
  Basis Set: (AUG-CC-PVTZ AUX)
    Blend: AUG-CC-PVTZ-RI + DEF2-QZVPP-RI
	 Reference Energy          =    -675.1028390895894518 [Eh]
	 Singles Energy            =      -0.0000000000000000 [Eh]
	 Same-Spin Energy          =      -0.0985629656999504 [Eh]
	 Opposite-Spin Energy      =      -0.2842113047245765 [Eh]
	 Correlation Energy        =      -0.3827742704245268 [Eh]
	 Total Energy              =    -675.4856133600139856 [Eh]

	 ================> DF-SCS-MP2 Energies <==================
	-----------------------------------------------------------
	 SCS Same-Spin Scale       =       0.3333333333333333 [-]
	 SCS Opposite-Spin Scale   =       1.2000000000000000 [-]
	 SCS Same-Spin Energy      =      -0.0328543218999835 [Eh]
	 SCS Opposite-Spin Energy  =      -0.3410535656694917 [Eh]
	 SCS Correlation Energy    =      -0.3739078875694752 [Eh]
	 SCS Total Energy          =    -675.4767469771588821 [Eh]
	-----------------------------------------------------------

*** Psi4 exiting successfully. Buy a developer a beer!
