                               Psi4 1.9 release

  ==> Input File <==

--------------------------------------------------------------------------
MEMORY 60 GB

molecule dimer {
0 1
O      0.000000     0.000000     0.000000
H     -0.159063     0.944263     0.000000
H      1.060028    -0.036721     0.000000
--
-1 1
F      2.547708     0.000000     0.000000

units ang
no_reorient
no_com
symmetry c1
}

set {
basis        aug-cc-pVTZ
scf_type     df
}

energy("mp2", bsse_type="cp")
--------------------------------------------------------------------------

                               Psi4 1.9 release
    Molecular point group: c1
  Charge       = -1
  Multiplicity = 1
  Basis Set: AUG-CC-PVTZ
    Blend: AUG-CC-PVTZ
  Basis Set: (AUG-CC-PVTZ AUX)
    Blend: AUG-CC-PVTZ-JKFIT
  @DF-RHF Final Energy:   -99.45090123696002
    Total Energy =                        -99.4509012369600214
 Dipole X            :        -48.1442918           43.3302333           -4.8140585
 Dipole Y            :          0.0005173            0.0000000            0.0005173
 Dipole Z            :          0.0000000            0.0000000            0.0000000
 Magnitude           :                                                    4.8140585
  Basis Set: (AUG-CC-PVTZ AUX)
    Blend: AUG-CC-PVTZ-RI
	 Reference Energy          =     -99.4509012369600214 [Eh]
	 Singles Energy            =      -0.0000000000000000 [Eh]
	 Same-Spin Energy          =      -0.0817396542012664 [Eh]
	 Opposite-Spin Energy      =      -0.2279384892106742 [Eh]
	 Correlation Energy        =      -0.3096781434119407 [Eh]
	 Total Energy              =     -99.7605793803719649 [Eh]
	 SCS Total Energy          =     -99.7516739754132544 [Eh]
                               Psi4 1.9 release
    Molecular point group: c1
  Multiplicity = 1
  Basis Set: AUG-CC-PVTZ
    Blend: AUG-CC-PVTZ
  Basis Set: (AUG-CC-PVTZ AUX)
    Blend: AUG-CC-PVTZ-JKFIT
  @DF-RHF Final Energy:   -76.04861185488365
    Total Energy =                        -76.0486118548836458
  Basis Set: (AUG-CC-PVTZ AUX)
	 Singles Energy            =      -0.0000000000000000 [Eh]
	 Same-Spin Energy          =      -0.0693137199558235 [Eh]
	 Opposite-Spin Energy      =      -0.2188093775112956 [Eh]
	 Correlation Energy        =      -0.2881230974671191 [Eh]
	 Total Energy              =     -76.3367349523507670 [Eh]
	 SCS Total Energy          =     -76.3342876812158124 [Eh]
                               Psi4 1.9 release
    Molecular point group: c1

    Geometry (in Bohr), charge = -1, multiplicity = 1:

       Center              X                  Y                   Z               Mass
    ------------   -----------------  -----------------  -----------------  -----------------
         O            0.000000000000     0.000000000000     0.000000000000    15.994914619570
         H           -0.300585506694     1.784398460403     0.000000000000     1.007825032230
         H            2.003162605317    -0.069392633053     0.000000000000     1.007825032230
         F            4.814470367638     0.000000000000     0.000000000000    18.998403162730

  Charge       = -1
  Multiplicity = 1
  Basis Set: AUG-CC-PVTZ
    Blend: AUG-CC-PVTZ
  Basis Set: (AUG-CC-PVTZ AUX)
    Blend: AUG-CC-PVTZ-JKFIT

    Orbital Energies [Eh]
    ---------------------

    Doubly Occupied:

       1A    -25.896601     2A    -20.326803     3A     -1.155721
       4A     -1.092970     5A     -0.459411     6A     -0.363156
       7A     -0.274462     8A     -0.250653     9A     -0.247127
      10A     -0.237472

  @DF-RHF Final Energy:  -175.54715358977404

   => Energetics <=

    Nuclear Repulsion Energy =             28.5671107268591875
    One-Electron Energy =                -307.6197756845774052
    Two-Electron Energy =                 103.5055113679441945
    Total Energy =                       -175.5471535897740125
 Dipole X            :        -48.4427930           45.0328104           -3.4099826
 Dipole Y            :         -1.1958072            1.7150058            0.5191986
 Dipole Z            :          0.0000000            0.0000000            0.0000000
 Magnitude           :                                                    3.4492823
  Basis Set: (AUG-CC-PVTZ AUX)
    Blend: AUG-CC-PVTZ-RI
	 Reference Energy          =    -175.5471535897740409 [Eh]
	 Singles Energy            =      -0.0000000000000000 [Eh]
	 Same-Spin Energy          =      -0.1534313995742078 [Eh]
	 Opposite-Spin Energy      =      -0.4458465900452676 [Eh]
	 Correlation Energy        =      -0.5992779896194753 [Eh]
	 Total Energy              =    -176.1464315793935214 [Eh]

	 ================> DF-SCS-MP2 Energies <==================
	-----------------------------------------------------------
	 SCS Same-Spin Scale       =       0.3333333333333333 [-]
	 SCS Opposite-Spin Scale   =       1.2000000000000000 [-]
	 SCS Same-Spin Energy      =      -0.0511437998580693 [Eh]
	 SCS Opposite-Spin Energy  =      -0.5350159080543211 [Eh]
	 SCS Correlation Energy    =      -0.5861597079123904 [Eh]
	 SCS Total Energy          =    -176.1333132976864420 [Eh]
	-----------------------------------------------------------

*** Psi4 exiting successfully. Buy a developer a beer!
