                               Psi4 1.9 release

  ==> Input File <==

--------------------------------------------------------------------------
MEMORY 60 GB

molecule dimer {
0 1
O      0.000000     0.000000     0.000000
H     -0.159063     0.944263     0.000000
H      1.060028    -0.036721     0.000000
--
-1 1
F      3.396945     0.000000     0.000000

units ang
no_reorient
no_com
symmetry c1
}

set {
basis        aug-cc-pVTZ
scf_type     df
}

energy("mp2", bsse_type="cp")
--------------------------------------------------------------------------

                               Psi4 1.9 release
    Molecular point group: c1
  Charge       = -1
  Multiplicity = 1
  Basis Set: AUG-CC-PVTZ
    Blend: AUG-CC-PVTZ
  Basis Set: (AUG-CC-PVTZ AUX)
    Blend: AUG-CC-PVTZ-JKFIT
  @DF-RHF Final Energy:   -99.45084813805371
    Total Energy =                        -99.4508481380537006
 Dipole X            :        -64.1919661           57.7736614           -6.4183046
 Dipole Y            :          0.0000497            0.0000000            0.0000497
 Dipole Z            :         -0.0000000            0.0000000           -0.0000000
 Magnitude           :                                                    6.4183046
  Basis Set: (AUG-CC-PVTZ AUX)
    Blend: AUG-CC-PVTZ-RI
	 Reference Energy          =     -99.4508481380537148 [Eh]
	 Singles Energy            =      -0.0000000000000000 [Eh]
	 Same-Spin Energy          =      -0.0816270582797494 [Eh]
	 Opposite-Spin Energy      =      -0.2266806147036672 [Eh]
	 Correlation Energy        =      -0.3083076729834165 [Eh]
	 Total Energy              =     -99.7591558110371324 [Eh]
	 SCS Total Energy          =     -99.7500738951247001 [Eh]
                               Psi4 1.9 release
    Molecular point group: c1
  Multiplicity = 1
  Basis Set: AUG-CC-PVTZ
    Blend: AUG-CC-PVTZ
  Basis Set: (AUG-CC-PVTZ AUX)
    Blend: AUG-CC-PVTZ-JKFIT
  @DF-RHF Final Energy:   -76.04858405717967
    Total Energy =                        -76.0485840571796530
  Basis Set: (AUG-CC-PVTZ AUX)
	 Singles Energy            =      -0.0000000000000000 [Eh]
	 Same-Spin Energy          =      -0.0692882949670240 [Eh]
	 Opposite-Spin Energy      =      -0.2184954994885838 [Eh]
	 Correlation Energy        =      -0.2877837944556079 [Eh]
	 Total Energy              =     -76.3363678516352735 [Eh]
	 SCS Total Energy          =     -76.3338747548883134 [Eh]
                               Psi4 1.9 release
    Molecular point group: c1

    Geometry (in Bohr), charge = -1, multiplicity = 1:

       Center              X                  Y                   Z               Mass
    ------------   -----------------  -----------------  -----------------  -----------------
         O            0.000000000000     0.000000000000     0.000000000000    15.994914619570
         H           -0.300585506694     1.784398460403     0.000000000000     1.007825032230
         H            2.003162605317    -0.069392633053     0.000000000000     1.007825032230
         F            6.419295713243     0.000000000000     0.000000000000    18.998403162730

  Charge       = -1
  Multiplicity = 1
  Basis Set: AUG-CC-PVTZ
    Blend: AUG-CC-PVTZ
  Basis Set: (AUG-CC-PVTZ AUX)
    Blend: AUG-CC-PVTZ-JKFIT

    Orbital Energies [Eh]
    ---------------------

    Doubly Occupied:

       1A    -25.863587     2A    -20.404260     3A     -1.164005
       4A     -1.106763     5A     -0.516930     6A     -0.414288
       7A     -0.339700     8A     -0.211772     9A     -0.211467
      10A     -0.211449

  @DF-RHF Final Energy:  -175.52597225068925

   => Energetics <=

    Nuclear Repulsion Energy =             23.2988530778892056
    One-Electron Energy =                -296.7612076311333453
    Two-Electron Energy =                  97.9363823025549323
    Total Energy =                       -175.5259722506892217
 Dipole X            :        -64.9287020           59.4762385           -5.4524635
 Dipole Y            :         -1.1572740            1.7150058            0.5577318
 Dipole Z            :         -0.0000000            0.0000000           -0.0000000
 Magnitude           :                                                    5.4809144
  Basis Set: (AUG-CC-PVTZ AUX)
    Blend: AUG-CC-PVTZ-RI
	 Reference Energy          =    -175.5259722506892501 [Eh]
	 Singles Energy            =      -0.0000000000000000 [Eh]
	 Same-Spin Energy          =      -0.1516286893661610 [Eh]
	 Opposite-Spin Energy      =      -0.4448811211752441 [Eh]
	 Correlation Energy        =      -0.5965098105414051 [Eh]
	 Total Energy              =    -176.1224820612306416 [Eh]

	 ================> DF-SCS-MP2 Energies <==================
	-----------------------------------------------------------
	 SCS Same-Spin Scale       =       0.3333333333333333 [-]
	 SCS Opposite-Spin Scale   =       1.2000000000000000 [-]
	 SCS Same-Spin Energy      =      -0.0505428964553870 [Eh]
	 SCS Opposite-Spin Energy  =      -0.5338573454102929 [Eh]
	 SCS Correlation Energy    =      -0.5844002418656800 [Eh]
	 SCS Total Energy          =    -176.1103724925549159 [Eh]
	-----------------------------------------------------------

*** Psi4 exiting successfully. Buy a developer a beer!
