                               Psi4 1.9 release

  ==> Input File <==

--------------------------------------------------------------------------
MEMORY 60 GB

molecule dimer {
0 1
O      0.000000     0.000000     0.000000
H     -0.159063     0.944263     0.000000
H      1.060028    -0.036721     0.000000
--
-1 1
F      3.154306     0.000000     0.000000

units ang
no_reorient
no_com
symmetry c1
}

set {
basis        aug-cc-pVTZ
scf_type     df
}

energy("mp2", bsse_type="cp")
--------------------------------------------------------------------------

                               Psi4 1.9 release
    Molecular point group: c1
  Charge       = -1
  Multiplicity = 1
  Basis Set: AUG-CC-PVTZ
    Blend: AUG-CC-PVTZ
  Basis Set: (AUG-CC-PVTZ AUX)
    Blend: AUG-CC-PVTZ-JKFIT
  @DF-RHF Final Energy:   -99.45085897969854
    Total Energy =                        -99.4508589796985234
 Dipole X            :        -59.6072381           53.6469701           -5.9602680
 Dipole Y            :          0.0002338            0.0000000            0.0002338
 Dipole Z            :         -0.0000000            0.0000000           -0.0000000
 Magnitude           :                                                    5.9602680
  Basis Set: (AUG-CC-PVTZ AUX)
    Blend: AUG-CC-PVTZ-RI
	 Reference Energy          =     -99.4508589796985376 [Eh]
	 Singles Energy            =      -0.0000000000000000 [Eh]
	 Same-Spin Energy          =      -0.0816527199088479 [Eh]
	 Opposite-Spin Energy      =      -0.2269268523152681 [Eh]
	 Correlation Energy        =      -0.3085795722241160 [Eh]
	 Total Energy              =     -99.7594385519226563 [Eh]
	 SCS Total Energy          =     -99.7503887757798111 [Eh]
                               Psi4 1.9 release
    Molecular point group: c1
  Multiplicity = 1
  Basis Set: AUG-CC-PVTZ
    Blend: AUG-CC-PVTZ
  Basis Set: (AUG-CC-PVTZ AUX)
    Blend: AUG-CC-PVTZ-JKFIT
  @DF-RHF Final Energy:   -76.04858782255235
    Total Energy =                        -76.0485878225523493
  Basis Set: (AUG-CC-PVTZ AUX)
	 Singles Energy            =      -0.0000000000000000 [Eh]
	 Same-Spin Energy          =      -0.0692930787577642 [Eh]
	 Opposite-Spin Energy      =      -0.2185830588358594 [Eh]
	 Correlation Energy        =      -0.2878761375936236 [Eh]
	 Total Energy              =     -76.3364639601459771 [Eh]
	 SCS Total Energy          =     -76.3339851860746421 [Eh]
                               Psi4 1.9 release
    Molecular point group: c1

    Geometry (in Bohr), charge = -1, multiplicity = 1:

       Center              X                  Y                   Z               Mass
    ------------   -----------------  -----------------  -----------------  -----------------
         O            0.000000000000     0.000000000000     0.000000000000    15.994914619570
         H           -0.300585506694     1.784398460403     0.000000000000     1.007825032230
         H            2.003162605317    -0.069392633053     0.000000000000     1.007825032230
         F            5.960774455888     0.000000000000     0.000000000000    18.998403162730

  Charge       = -1
  Multiplicity = 1
  Basis Set: AUG-CC-PVTZ
    Blend: AUG-CC-PVTZ
  Basis Set: (AUG-CC-PVTZ AUX)
    Blend: AUG-CC-PVTZ-JKFIT

    Orbital Energies [Eh]
    ---------------------

    Doubly Occupied:

       1A    -25.870140     2A    -20.388055     3A     -1.149202
       4A     -1.114186     5A     -0.502366     6A     -0.400665
       7A     -0.324753     8A     -0.218902     9A     -0.218593
      10A     -0.218592

  @DF-RHF Final Energy:  -175.53149750527038

   => Energetics <=

    Nuclear Repulsion Energy =             24.4855537170198758
    One-Electron Energy =                -299.2231937038216074
    Two-Electron Energy =                  99.2061424815313728
    Total Energy =                       -175.5314975052703801
 Dipole X            :        -60.2601957           55.3495472           -4.9106485
 Dipole Y            :         -1.1642724            1.7150058            0.5507334
 Dipole Z            :          0.0000000            0.0000000            0.0000000
 Magnitude           :                                                    4.9414346
  Basis Set: (AUG-CC-PVTZ AUX)
    Blend: AUG-CC-PVTZ-RI
	 Reference Energy          =    -175.5314975052703801 [Eh]
	 Singles Energy            =      -0.0000000000000000 [Eh]
	 Same-Spin Energy          =      -0.1519715053944064 [Eh]
	 Opposite-Spin Energy      =      -0.4452141557585247 [Eh]
	 Correlation Energy        =      -0.5971856611529311 [Eh]
	 Total Energy              =    -176.1286831664233148 [Eh]

	 ================> DF-SCS-MP2 Energies <==================
	-----------------------------------------------------------
	 SCS Same-Spin Scale       =       0.3333333333333333 [-]
	 SCS Opposite-Spin Scale   =       1.2000000000000000 [-]
	 SCS Same-Spin Energy      =      -0.0506571684648021 [Eh]
	 SCS Opposite-Spin Energy  =      -0.5342569869102297 [Eh]
	 SCS Correlation Energy    =      -0.5849141553750319 [Eh]
	 SCS Total Energy          =    -176.1164116606454115 [Eh]
	-----------------------------------------------------------

*** Psi4 exiting successfully. Buy a developer a beer!
