                               Psi4 1.9 release

  ==> Input File <==

--------------------------------------------------------------------------
MEMORY 60 GB

molecule dimer {
0 1
O      0.000000     0.000000     0.000000
H     -0.159063     0.944263     0.000000
H      1.060028    -0.036721     0.000000
--
-1 1
F      2.669028     0.000000     0.000000

units ang
no_reorient
no_com
symmetry c1
}

set {
basis        aug-cc-pVTZ
scf_type     df
}

energy("mp2", bsse_type="cp")
--------------------------------------------------------------------------

                               Psi4 1.9 release
    Molecular point group: c1
  Charge       = -1
  Multiplicity = 1
  Basis Set: AUG-CC-PVTZ
    Blend: AUG-CC-PVTZ
  Basis Set: (AUG-CC-PVTZ AUX)
    Blend: AUG-CC-PVTZ-JKFIT
  @DF-RHF Final Energy:   -99.45088658095214
    Total Energy =                        -99.4508865809521296
 Dipole X            :        -50.4371341           45.3935875           -5.0435466
 Dipole Y            :          0.0004784            0.0000000            0.0004784
 Dipole Z            :         -0.0000000            0.0000000           -0.0000000
 Magnitude           :                                                    5.0435466
  Basis Set: (AUG-CC-PVTZ AUX)
    Blend: AUG-CC-PVTZ-RI
	 Reference Energy          =     -99.4508865809521438 [Eh]
	 Singles Energy            =      -0.0000000000000000 [Eh]
	 Same-Spin Energy          =      -0.0817161813701292 [Eh]
	 Opposite-Spin Energy      =      -0.2276414967313286 [Eh]
	 Correlation Energy        =      -0.3093576781014578 [Eh]
	 Total Energy              =     -99.7602442590536072 [Eh]
	 SCS Total Energy          =     -99.7512951041531153 [Eh]
                               Psi4 1.9 release
    Molecular point group: c1
  Multiplicity = 1
  Basis Set: AUG-CC-PVTZ
    Blend: AUG-CC-PVTZ
  Basis Set: (AUG-CC-PVTZ AUX)
    Blend: AUG-CC-PVTZ-JKFIT
  @DF-RHF Final Energy:   -76.04860539543621
    Total Energy =                        -76.0486053954362120
  Basis Set: (AUG-CC-PVTZ AUX)
	 Singles Energy            =      -0.0000000000000000 [Eh]
	 Same-Spin Energy          =      -0.0693079096677816 [Eh]
	 Opposite-Spin Energy      =      -0.2187465864317152 [Eh]
	 Correlation Energy        =      -0.2880544960994967 [Eh]
	 Total Energy              =     -76.3366598915357031 [Eh]
	 SCS Total Energy          =     -76.3342039357101925 [Eh]
                               Psi4 1.9 release
    Molecular point group: c1

    Geometry (in Bohr), charge = -1, multiplicity = 1:

       Center              X                  Y                   Z               Mass
    ------------   -----------------  -----------------  -----------------  -----------------
         O            0.000000000000     0.000000000000     0.000000000000    15.994914619570
         H           -0.300585506694     1.784398460403     0.000000000000     1.007825032230
         H            2.003162605317    -0.069392633053     0.000000000000     1.007825032230
         F            5.043731941178     0.000000000000     0.000000000000    18.998403162730

  Charge       = -1
  Multiplicity = 1
  Basis Set: AUG-CC-PVTZ
    Blend: AUG-CC-PVTZ
  Basis Set: (AUG-CC-PVTZ AUX)
    Blend: AUG-CC-PVTZ-JKFIT

    Orbital Energies [Eh]
    ---------------------

    Doubly Occupied:

       1A    -25.889786     2A    -20.342308     3A     -1.144104
       4A     -1.106064     5A     -0.467631     6A     -0.369946
       7A     -0.285155     8A     -0.241884     9A     -0.240784
      10A     -0.235514

  @DF-RHF Final Energy:  -175.54462478484197

   => Energetics <=

    Nuclear Repulsion Energy =             27.5821816909894082
    One-Electron Energy =                -305.6072623090266802
    Two-Electron Energy =                 102.4804558331953217
    Total Energy =                       -175.5446247848419716
 Dipole X            :        -50.8296459           47.0961646           -3.7334814
 Dipole Y            :         -1.1870859            1.7150058            0.5279199
 Dipole Z            :          0.0000000            0.0000000            0.0000000
 Magnitude           :                                                    3.7706210
  Basis Set: (AUG-CC-PVTZ AUX)
    Blend: AUG-CC-PVTZ-RI
	 Reference Energy          =    -175.5446247848419716 [Eh]
	 Singles Energy            =      -0.0000000000000000 [Eh]
	 Same-Spin Energy          =      -0.1530742524568400 [Eh]
	 Opposite-Spin Energy      =      -0.4457717798062104 [Eh]
	 Correlation Energy        =      -0.5988460322630504 [Eh]
	 Total Energy              =    -176.1434708171050261 [Eh]

	 ================> DF-SCS-MP2 Energies <==================
	-----------------------------------------------------------
	 SCS Same-Spin Scale       =       0.3333333333333333 [-]
	 SCS Opposite-Spin Scale   =       1.2000000000000000 [-]
	 SCS Same-Spin Energy      =      -0.0510247508189467 [Eh]
	 SCS Opposite-Spin Energy  =      -0.5349261357674525 [Eh]
	 SCS Correlation Energy    =      -0.5859508865863992 [Eh]
	 SCS Total Energy          =    -176.1305756714283746 [Eh]
	-----------------------------------------------------------

*** Psi4 exiting successfully. Buy a developer a beer!
