                               Psi4 1.9 release

  ==> Input File <==

--------------------------------------------------------------------------
MEMORY 60 GB

molecule dimer {
0 1
O      0.000000     0.000000     0.000000
H     -0.159063     0.944263     0.000000
H      1.060028    -0.036721     0.000000
--
-1 1
F      1.941111     0.000000     0.000000

units ang
no_reorient
no_com
symmetry c1
}

set {
basis        aug-cc-pVTZ
scf_type     df
}

energy("mp2", bsse_type="cp")
--------------------------------------------------------------------------

                               Psi4 1.9 release
    Molecular point group: c1
  Charge       = -1
  Multiplicity = 1
  Basis Set: AUG-CC-PVTZ
    Blend: AUG-CC-PVTZ
  Basis Set: (AUG-CC-PVTZ AUX)
    Blend: AUG-CC-PVTZ-JKFIT
  @DF-RHF Final Energy:   -99.45098102538813
    Total Energy =                        -99.4509810253881312
 Dipole X            :        -36.6813542           33.0135135           -3.6678407
 Dipole Y            :          0.0002383            0.0000000            0.0002383
 Dipole Z            :          0.0000000            0.0000000            0.0000000
 Magnitude           :                                                    3.6678407
  Basis Set: (AUG-CC-PVTZ AUX)
    Blend: AUG-CC-PVTZ-RI
	 Reference Energy          =     -99.4509810253881312 [Eh]
	 Singles Energy            =      -0.0000000000000000 [Eh]
	 Same-Spin Energy          =      -0.0820972594014991 [Eh]
	 Opposite-Spin Energy      =      -0.2311221166379872 [Eh]
	 Correlation Energy        =      -0.3132193760394864 [Eh]
	 Total Energy              =     -99.7642004014276154 [Eh]
	 SCS Total Energy          =     -99.7556933184875447 [Eh]
                               Psi4 1.9 release
    Molecular point group: c1
  Multiplicity = 1
  Basis Set: AUG-CC-PVTZ
    Blend: AUG-CC-PVTZ
  Basis Set: (AUG-CC-PVTZ AUX)
    Blend: AUG-CC-PVTZ-JKFIT
  @DF-RHF Final Energy:   -76.04865231954891
    Total Energy =                        -76.0486523195488928
  Basis Set: (AUG-CC-PVTZ AUX)
	 Singles Energy            =      -0.0000000000000000 [Eh]
	 Same-Spin Energy          =      -0.0693730772442016 [Eh]
	 Opposite-Spin Energy      =      -0.2194690307358306 [Eh]
	 Correlation Energy        =      -0.2888421079800322 [Eh]
	 Total Energy              =     -76.3374944275289380 [Eh]
	 SCS Total Energy          =     -76.3351395155133048 [Eh]
                               Psi4 1.9 release
    Molecular point group: c1

    Geometry (in Bohr), charge = -1, multiplicity = 1:

       Center              X                  Y                   Z               Mass
    ------------   -----------------  -----------------  -----------------  -----------------
         O            0.000000000000     0.000000000000     0.000000000000    15.994914619570
         H           -0.300585506694     1.784398460403     0.000000000000     1.007825032230
         H            2.003162605317    -0.069392633053     0.000000000000     1.007825032230
         F            3.668168169114     0.000000000000     0.000000000000    18.998403162730

  Charge       = -1
  Multiplicity = 1
  Basis Set: AUG-CC-PVTZ
    Blend: AUG-CC-PVTZ
  Basis Set: (AUG-CC-PVTZ AUX)
    Blend: AUG-CC-PVTZ-JKFIT

    Orbital Energies [Eh]
    ---------------------

    Doubly Occupied:

       1A    -25.940350     2A    -20.218904     3A     -1.307355
       4A     -1.004311     5A     -0.514231     6A     -0.350407
       7A     -0.336550     8A     -0.298449     9A     -0.179024
      10A     -0.176300

  @DF-RHF Final Energy:  -175.47064318146914

   => Energetics <=

    Nuclear Repulsion Energy =             35.8477916971186801
    One-Electron Energy =                -321.9851065353671515
    Two-Electron Energy =                 110.6666716567793287
    Total Energy =                       -175.4706431814691427
 Dipole X            :        -36.2898189           34.7160906           -1.5737282
 Dipole Y            :         -1.2681491            1.7150058            0.4468567
 Dipole Z            :          0.0000000            0.0000000            0.0000000
 Magnitude           :                                                    1.6359406
  Basis Set: (AUG-CC-PVTZ AUX)
    Blend: AUG-CC-PVTZ-RI
	 Reference Energy          =    -175.4706431814691427 [Eh]
	 Singles Energy            =      -0.0000000000000000 [Eh]
	 Same-Spin Energy          =      -0.1543224749366175 [Eh]
	 Opposite-Spin Energy      =      -0.4433484411423556 [Eh]
	 Correlation Energy        =      -0.5976709160789730 [Eh]
	 Total Energy              =    -176.0683140975481251 [Eh]

	 ================> DF-SCS-MP2 Energies <==================
	-----------------------------------------------------------
	 SCS Same-Spin Scale       =       0.3333333333333333 [-]
	 SCS Opposite-Spin Scale   =       1.2000000000000000 [-]
	 SCS Same-Spin Energy      =      -0.0514408249788725 [Eh]
	 SCS Opposite-Spin Energy  =      -0.5320181293708267 [Eh]
	 SCS Correlation Energy    =      -0.5834589543496992 [Eh]
	 SCS Total Energy          =    -176.0541021358188516 [Eh]
	-----------------------------------------------------------

*** Psi4 exiting successfully. Buy a developer a beer!
