                               Psi4 1.9 release

  ==> Input File <==

--------------------------------------------------------------------------
MEMORY 60 GB

molecule dimer {
0 1
O      0.000000     0.000000     0.000000
H     -0.159063     0.944263     0.000000
H      1.060028    -0.036721     0.000000
--
-1 1
F      2.305070     0.000000     0.000000

units ang
no_reorient
no_com
symmetry c1
}

set {
basis        aug-cc-pVTZ
scf_type     df
}

energy("mp2", bsse_type="cp")
--------------------------------------------------------------------------

                               Psi4 1.9 release
    Molecular point group: c1
  Charge       = -1
  Multiplicity = 1
  Basis Set: AUG-CC-PVTZ
    Blend: AUG-CC-PVTZ
  Basis Set: (AUG-CC-PVTZ AUX)
    Blend: AUG-CC-PVTZ-JKFIT
  @DF-RHF Final Energy:   -99.45094085396607
    Total Energy =                        -99.4509408539660598
 Dipole X            :        -43.5586737           39.2035590           -4.3551147
 Dipole Y            :          0.0005229            0.0000000            0.0005229
 Dipole Z            :          0.0000000            0.0000000            0.0000000
 Magnitude           :                                                    4.3551147
  Basis Set: (AUG-CC-PVTZ AUX)
    Blend: AUG-CC-PVTZ-RI
	 Reference Energy          =     -99.4509408539660740 [Eh]
	 Singles Energy            =      -0.0000000000000000 [Eh]
	 Same-Spin Energy          =      -0.0818516074850045 [Eh]
	 Opposite-Spin Energy      =      -0.2288041696304667 [Eh]
	 Correlation Energy        =      -0.3106557771154712 [Eh]
	 Total Energy              =     -99.7615966310815452 [Eh]
	 SCS Total Energy          =     -99.7527897266842984 [Eh]
                               Psi4 1.9 release
    Molecular point group: c1
  Multiplicity = 1
  Basis Set: AUG-CC-PVTZ
    Blend: AUG-CC-PVTZ
  Basis Set: (AUG-CC-PVTZ AUX)
    Blend: AUG-CC-PVTZ-JKFIT
  @DF-RHF Final Energy:   -76.04862644759118
    Total Energy =                        -76.0486264475911753
  Basis Set: (AUG-CC-PVTZ AUX)
	 Singles Energy            =      -0.0000000000000000 [Eh]
	 Same-Spin Energy          =      -0.0693325148623642 [Eh]
	 Opposite-Spin Energy      =      -0.2190260003902448 [Eh]
	 Correlation Energy        =      -0.2883585152526090 [Eh]
	 Total Energy              =     -76.3369849628437862 [Eh]
	 SCS Total Energy          =     -76.3345684863469245 [Eh]
                               Psi4 1.9 release
    Molecular point group: c1

    Geometry (in Bohr), charge = -1, multiplicity = 1:

       Center              X                  Y                   Z               Mass
    ------------   -----------------  -----------------  -----------------  -----------------
         O            0.000000000000     0.000000000000     0.000000000000    15.994914619570
         H           -0.300585506694     1.784398460403     0.000000000000     1.007825032230
         H            2.003162605317    -0.069392633053     0.000000000000     1.007825032230
         F            4.355951000009     0.000000000000     0.000000000000    18.998403162730

  Charge       = -1
  Multiplicity = 1
  Basis Set: AUG-CC-PVTZ
    Blend: AUG-CC-PVTZ
  Basis Set: (AUG-CC-PVTZ AUX)
    Blend: AUG-CC-PVTZ-JKFIT

    Orbital Energies [Eh]
    ---------------------

    Doubly Occupied:

       1A    -25.913057     2A    -20.289282     3A     -1.191503
       4A     -1.061644     5A     -0.453484     6A     -0.352650
       7A     -0.280653     8A     -0.273315     9A     -0.233751
      10A     -0.229476

  @DF-RHF Final Energy:  -175.54576379514941

   => Energetics <=

    Nuclear Repulsion Energy =             30.9079786002509032
    One-Electron Energy =                -312.3498532569567487
    Two-Electron Energy =                 105.8961108615564513
    Total Energy =                       -175.5457637951494121
 Dipole X            :        -43.6224950           40.9061361           -2.7163589
 Dipole Y            :         -1.2188035            1.7150058            0.4962023
 Dipole Z            :          0.0000000            0.0000000            0.0000000
 Magnitude           :                                                    2.7613081
  Basis Set: (AUG-CC-PVTZ AUX)
    Blend: AUG-CC-PVTZ-RI
	 Reference Energy          =    -175.5457637951494121 [Eh]
	 Singles Energy            =      -0.0000000000000000 [Eh]
	 Same-Spin Energy          =      -0.1541474454237482 [Eh]
	 Opposite-Spin Energy      =      -0.4456811424509749 [Eh]
	 Correlation Energy        =      -0.5998285878747232 [Eh]
	 Total Energy              =    -176.1455923830241375 [Eh]

	 ================> DF-SCS-MP2 Energies <==================
	-----------------------------------------------------------
	 SCS Same-Spin Scale       =       0.3333333333333333 [-]
	 SCS Opposite-Spin Scale   =       1.2000000000000000 [-]
	 SCS Same-Spin Energy      =      -0.0513824818079161 [Eh]
	 SCS Opposite-Spin Energy  =      -0.5348173709411699 [Eh]
	 SCS Correlation Energy    =      -0.5861998527490859 [Eh]
	 SCS Total Energy          =    -176.1319636478984876 [Eh]
	-----------------------------------------------------------

*** Psi4 exiting successfully. Buy a developer a beer!
