                               Psi4 1.9 release

  ==> Input File <==

--------------------------------------------------------------------------
MEMORY 60 GB

molecule dimer {
0 1
O      0.000000     0.000000     0.000000
H     -0.159063     0.944263     0.000000
H      1.060028    -0.036721     0.000000
--
-1 1
F      3.639583     0.000000     0.000000

units ang
no_reorient
no_com
symmetry c1
}

set {
basis        aug-cc-pVTZ
scf_type     df
}

energy("mp2", bsse_type="cp")
--------------------------------------------------------------------------

                               Psi4 1.9 release
    Molecular point group: c1
  Charge       = -1
  Multiplicity = 1
  Basis Set: AUG-CC-PVTZ
    Blend: AUG-CC-PVTZ
  Basis Set: (AUG-CC-PVTZ AUX)
    Blend: AUG-CC-PVTZ-JKFIT
  @DF-RHF Final Energy:   -99.45083735760940
    Total Energy =                        -99.4508373576093874
 Dipole X            :        -68.7769824           61.9003357           -6.8766466
 Dipole Y            :         -0.0000057            0.0000000           -0.0000057
 Dipole Z            :         -0.0000000            0.0000000           -0.0000000
 Magnitude           :                                                    6.8766466
  Basis Set: (AUG-CC-PVTZ AUX)
    Blend: AUG-CC-PVTZ-RI
	 Reference Energy          =     -99.4508373576094016 [Eh]
	 Singles Energy            =      -0.0000000000000000 [Eh]
	 Same-Spin Energy          =      -0.0816055810929357 [Eh]
	 Opposite-Spin Energy      =      -0.2265051937713223 [Eh]
	 Correlation Energy        =      -0.3081107748642580 [Eh]
	 Total Energy              =     -99.7589481324736624 [Eh]
	 SCS Total Energy          =     -99.7498454504992935 [Eh]
                               Psi4 1.9 release
    Molecular point group: c1
  Multiplicity = 1
  Basis Set: AUG-CC-PVTZ
    Blend: AUG-CC-PVTZ
  Basis Set: (AUG-CC-PVTZ AUX)
    Blend: AUG-CC-PVTZ-JKFIT
  @DF-RHF Final Energy:   -76.04858163428035
    Total Energy =                        -76.0485816342803531
  Basis Set: (AUG-CC-PVTZ AUX)
	 Singles Energy            =      -0.0000000000000000 [Eh]
	 Same-Spin Energy          =      -0.0692833804465590 [Eh]
	 Opposite-Spin Energy      =      -0.2184105099905626 [Eh]
	 Correlation Energy        =      -0.2876938904371216 [Eh]
	 Total Energy              =     -76.3362755247174789 [Eh]
	 SCS Total Energy          =     -76.3337687064178851 [Eh]
                               Psi4 1.9 release
    Molecular point group: c1

    Geometry (in Bohr), charge = -1, multiplicity = 1:

       Center              X                  Y                   Z               Mass
    ------------   -----------------  -----------------  -----------------  -----------------
         O            0.000000000000     0.000000000000     0.000000000000    15.994914619570
         H           -0.300585506694     1.784398460403     0.000000000000     1.007825032230
         H            2.003162605317    -0.069392633053     0.000000000000     1.007825032230
         F            6.877815080872     0.000000000000     0.000000000000    18.998403162730

  Charge       = -1
  Multiplicity = 1
  Basis Set: AUG-CC-PVTZ
    Blend: AUG-CC-PVTZ
  Basis Set: (AUG-CC-PVTZ AUX)
    Blend: AUG-CC-PVTZ-JKFIT

    Orbital Energies [Eh]
    ---------------------

    Doubly Occupied:

       1A    -25.858483     2A    -20.417646     3A     -1.176590
       4A     -1.101194     5A     -0.529464     6A     -0.426167
       7A     -0.352247     8A     -0.206198     9A     -0.206067
      10A     -0.206044

  @DF-RHF Final Energy:  -175.52150384242969

   => Energetics <=

    Nuclear Repulsion Energy =             22.2817610344023258
    One-Electron Energy =                -294.6463282056452613
    Two-Electron Energy =                  96.8430633288132299
    Total Energy =                       -175.5215038424296949
 Dipole X            :        -69.5785225           63.6029128           -5.9756097
 Dipole Y            :         -1.1517813            1.7150058            0.5632245
 Dipole Z            :         -0.0000000            0.0000000           -0.0000000
 Magnitude           :                                                    6.0020940
  Basis Set: (AUG-CC-PVTZ AUX)
    Blend: AUG-CC-PVTZ-RI
	 Reference Energy          =    -175.5215038424296949 [Eh]
	 Singles Energy            =      -0.0000000000000000 [Eh]
	 Same-Spin Energy          =      -0.1513855636325541 [Eh]
	 Opposite-Spin Energy      =      -0.4446049421281985 [Eh]
	 Correlation Energy        =      -0.5959905057607525 [Eh]
	 Total Energy              =    -176.1174943481904336 [Eh]

	 ================> DF-SCS-MP2 Energies <==================
	-----------------------------------------------------------
	 SCS Same-Spin Scale       =       0.3333333333333333 [-]
	 SCS Opposite-Spin Scale   =       1.2000000000000000 [-]
	 SCS Same-Spin Energy      =      -0.0504618545441847 [Eh]
	 SCS Opposite-Spin Energy  =      -0.5335259305538381 [Eh]
	 SCS Correlation Energy    =      -0.5839877850980228 [Eh]
	 SCS Total Energy          =    -176.1054916275277265 [Eh]
	-----------------------------------------------------------

*** Psi4 exiting successfully. Buy a developer a beer!
