                               Psi4 1.9 release

  ==> Input File <==

--------------------------------------------------------------------------
MEMORY 60 GB

molecule dimer {
0 1
O      0.000000     0.000000     0.000000
H     -0.159063     0.944263     0.000000
H      1.060028    -0.036721     0.000000
--
-1 1
F      4.852778     0.000000     0.000000

units ang
no_reorient
no_com
symmetry c1
}

set {
basis        aug-cc-pVTZ
scf_type     df
}

energy("mp2", bsse_type="cp")
--------------------------------------------------------------------------

                               Psi4 1.9 release
    Molecular point group: c1
  Charge       = -1
  Multiplicity = 1
  Basis Set: AUG-CC-PVTZ
    Blend: AUG-CC-PVTZ
  Basis Set: (AUG-CC-PVTZ AUX)
    Blend: AUG-CC-PVTZ-JKFIT
  @DF-RHF Final Energy:   -99.45081351051469
    Total Energy =                        -99.4508135105147062
 Dipole X            :        -91.7040111           82.5337923           -9.1702188
 Dipole Y            :          0.0002803            0.0000000            0.0002803
 Dipole Z            :          0.0000000            0.0000000            0.0000000
 Magnitude           :                                                    9.1702188
  Basis Set: (AUG-CC-PVTZ AUX)
    Blend: AUG-CC-PVTZ-RI
	 Reference Energy          =     -99.4508135105146920 [Eh]
	 Singles Energy            =      -0.0000000000000000 [Eh]
	 Same-Spin Energy          =      -0.0815668032149518 [Eh]
	 Opposite-Spin Energy      =      -0.2262401616838545 [Eh]
	 Correlation Energy        =      -0.3078069648988063 [Eh]
	 Total Energy              =     -99.7586204754134940 [Eh]
	 SCS Total Energy          =     -99.7494906389403013 [Eh]
                               Psi4 1.9 release
    Molecular point group: c1
  Multiplicity = 1
  Basis Set: AUG-CC-PVTZ
    Blend: AUG-CC-PVTZ
  Basis Set: (AUG-CC-PVTZ AUX)
    Blend: AUG-CC-PVTZ-JKFIT
  @DF-RHF Final Energy:   -76.04857582350513
    Total Energy =                        -76.0485758235051321
  Basis Set: (AUG-CC-PVTZ AUX)
	 Singles Energy            =      -0.0000000000000000 [Eh]
	 Same-Spin Energy          =      -0.0692700034112178 [Eh]
	 Opposite-Spin Energy      =      -0.2182388880364043 [Eh]
	 Correlation Energy        =      -0.2875088914476221 [Eh]
	 Total Energy              =     -76.3360847149527473 [Eh]
	 SCS Total Energy          =     -76.3335524902858964 [Eh]
                               Psi4 1.9 release
    Molecular point group: c1

    Geometry (in Bohr), charge = -1, multiplicity = 1:

       Center              X                  Y                   Z               Mass
    ------------   -----------------  -----------------  -----------------  -----------------
         O            0.000000000000     0.000000000000     0.000000000000    15.994914619570
         H           -0.300585506694     1.784398460403     0.000000000000     1.007825032230
         H            2.003162605317    -0.069392633053     0.000000000000     1.007825032230
         F            9.170421367647     0.000000000000     0.000000000000    18.998403162730

  Charge       = -1
  Multiplicity = 1
  Basis Set: AUG-CC-PVTZ
    Blend: AUG-CC-PVTZ
  Basis Set: (AUG-CC-PVTZ AUX)
    Blend: AUG-CC-PVTZ-JKFIT

    Orbital Energies [Eh]
    ---------------------

    Doubly Occupied:

       1A    -25.844982     2A    -20.461105     3A     -1.218444
       4A     -1.087288     5A     -0.571699     6A     -0.466722
       7A     -0.393779     8A     -0.192253     9A     -0.192247
      10A     -0.192119

  @DF-RHF Final Energy:  -175.50961512500015

   => Energetics <=

    Nuclear Repulsion Energy =             18.7913087669717278
    One-Electron Energy =                -287.3605735408552277
    Two-Electron Energy =                  93.0596496488833367
    Total Energy =                       -175.5096151250001526
 Dipole X            :        -92.6801233           84.2363694           -8.4437538
 Dipole Y            :         -1.1361573            1.7150058            0.5788485
 Dipole Z            :          0.0000000            0.0000000            0.0000000
 Magnitude           :                                                    8.4635716
  Basis Set: (AUG-CC-PVTZ AUX)
    Blend: AUG-CC-PVTZ-RI
	 Reference Energy          =    -175.5096151250001526 [Eh]
	 Singles Energy            =      -0.0000000000000000 [Eh]
	 Same-Spin Energy          =      -0.1509247458486807 [Eh]
	 Opposite-Spin Energy      =      -0.4441731442913156 [Eh]
	 Correlation Energy        =      -0.5950978901399964 [Eh]
	 Total Energy              =    -176.1047130151401348 [Eh]

	 ================> DF-SCS-MP2 Energies <==================
	-----------------------------------------------------------
	 SCS Same-Spin Scale       =       0.3333333333333333 [-]
	 SCS Opposite-Spin Scale   =       1.2000000000000000 [-]
	 SCS Same-Spin Energy      =      -0.0503082486162269 [Eh]
	 SCS Opposite-Spin Energy  =      -0.5330077731495787 [Eh]
	 SCS Correlation Energy    =      -0.5833160217658057 [Eh]
	 SCS Total Energy          =    -176.0929311467659488 [Eh]
	-----------------------------------------------------------

*** Psi4 exiting successfully. Buy a developer a beer!
