                               Psi4 1.9 release

  ==> Input File <==

--------------------------------------------------------------------------
MEMORY 60 GB

molecule dimer {
0 1
O      0.000000     0.000000     0.000000
H     -0.159063     0.944263     0.000000
H      1.060028    -0.036721     0.000000
--
-1 1
F      2.183750     0.000000     0.000000

units ang
no_reorient
no_com
symmetry c1
}

set {
basis        aug-cc-pVTZ
scf_type     df
}

energy("mp2", bsse_type="cp")
--------------------------------------------------------------------------

                               Psi4 1.9 release
    Molecular point group: c1
  Charge       = -1
  Multiplicity = 1
  Basis Set: AUG-CC-PVTZ
    Blend: AUG-CC-PVTZ
  Basis Set: (AUG-CC-PVTZ AUX)
    Blend: AUG-CC-PVTZ-JKFIT
  @DF-RHF Final Energy:   -99.45096557683223
    Total Energy =                        -99.4509655768322318
 Dipole X            :        -41.2660084           37.1402048           -4.1258035
 Dipole Y            :          0.0004734            0.0000000            0.0004734
 Dipole Z            :          0.0000000            0.0000000            0.0000000
 Magnitude           :                                                    4.1258036
  Basis Set: (AUG-CC-PVTZ AUX)
    Blend: AUG-CC-PVTZ-RI
	 Reference Energy          =     -99.4509655768322318 [Eh]
	 Singles Energy            =      -0.0000000000000000 [Eh]
	 Same-Spin Energy          =      -0.0819433512259430 [Eh]
	 Opposite-Spin Energy      =      -0.2293925758335723 [Eh]
	 Correlation Energy        =      -0.3113359270595153 [Eh]
	 Total Energy              =     -99.7623015038917487 [Eh]
	 SCS Total Energy          =     -99.7535511182411625 [Eh]
                               Psi4 1.9 release
    Molecular point group: c1
  Multiplicity = 1
  Basis Set: AUG-CC-PVTZ
    Blend: AUG-CC-PVTZ
  Basis Set: (AUG-CC-PVTZ AUX)
    Blend: AUG-CC-PVTZ-JKFIT
  @DF-RHF Final Energy:   -76.04863739085555
    Total Energy =                        -76.0486373908555464
  Basis Set: (AUG-CC-PVTZ AUX)
	 Singles Energy            =      -0.0000000000000000 [Eh]
	 Same-Spin Energy          =      -0.0693452338816109 [Eh]
	 Opposite-Spin Energy      =      -0.2191737755691483 [Eh]
	 Correlation Energy        =      -0.2885190094507593 [Eh]
	 Total Energy              =     -76.3371564003062986 [Eh]
	 SCS Total Energy          =     -76.3347609994990677 [Eh]
                               Psi4 1.9 release
    Molecular point group: c1

    Geometry (in Bohr), charge = -1, multiplicity = 1:

       Center              X                  Y                   Z               Mass
    ------------   -----------------  -----------------  -----------------  -----------------
         O            0.000000000000     0.000000000000     0.000000000000    15.994914619570
         H           -0.300585506694     1.784398460403     0.000000000000     1.007825032230
         H            2.003162605317    -0.069392633053     0.000000000000     1.007825032230
         F            4.126689426469     0.000000000000     0.000000000000    18.998403162730

  Charge       = -1
  Multiplicity = 1
  Basis Set: AUG-CC-PVTZ
    Blend: AUG-CC-PVTZ
  Basis Set: (AUG-CC-PVTZ AUX)
    Blend: AUG-CC-PVTZ-JKFIT

    Orbital Energies [Eh]
    ---------------------

    Doubly Occupied:

       1A    -25.922490     2A    -20.267199     3A     -1.218956
       4A     -1.043573     5A     -0.462562     6A     -0.347178
       7A     -0.295679     8A     -0.286759     9A     -0.217022
      10A     -0.216820

  @DF-RHF Final Energy:  -175.53716162373559

   => Energetics <=

    Nuclear Repulsion Energy =             32.3193294691726010
    One-Electron Energy =                -315.1565031736167271
    Two-Electron Energy =                 107.3000120807085409
    Total Energy =                       -175.5371616237355852
 Dipole X            :        -41.1884810           38.8427819           -2.3456990
 Dipole Y            :         -1.2334658            1.7150058            0.4815400
 Dipole Z            :          0.0000000            0.0000000            0.0000000
 Magnitude           :                                                    2.3946158
  Basis Set: (AUG-CC-PVTZ AUX)
    Blend: AUG-CC-PVTZ-RI
	 Reference Energy          =    -175.5371616237355852 [Eh]
	 Singles Energy            =      -0.0000000000000000 [Eh]
	 Same-Spin Energy          =      -0.1543999707640811 [Eh]
	 Opposite-Spin Energy      =      -0.4452352003758847 [Eh]
	 Correlation Energy        =      -0.5996351711399659 [Eh]
	 Total Energy              =    -176.1367967948755506 [Eh]

	 ================> DF-SCS-MP2 Energies <==================
	-----------------------------------------------------------
	 SCS Same-Spin Scale       =       0.3333333333333333 [-]
	 SCS Opposite-Spin Scale   =       1.2000000000000000 [-]
	 SCS Same-Spin Energy      =      -0.0514666569213604 [Eh]
	 SCS Opposite-Spin Energy  =      -0.5342822404510617 [Eh]
	 SCS Correlation Energy    =      -0.5857488973724221 [Eh]
	 SCS Total Energy          =    -176.1229105211079968 [Eh]
	-----------------------------------------------------------

*** Psi4 exiting successfully. Buy a developer a beer!
