                               Psi4 1.9 release

  ==> Input File <==

--------------------------------------------------------------------------
MEMORY 60 GB

molecule dimer {
0 1
O      0.000000     0.000000     0.000000
H     -0.073994     0.955205     0.000000
H      0.981943    -0.112425     0.000000
--
-1 1
Cl     4.605528     0.000000     0.000000

units ang
no_reorient
no_com
symmetry c1
}

set {
basis        aug-cc-pVTZ
scf_type     df
}

energy("mp2", bsse_type="cp")
--------------------------------------------------------------------------

                               Psi4 1.9 release
    Molecular point group: c1
  Charge       = -1
  Multiplicity = 1
  Basis Set: AUG-CC-PVTZ
    Blend: AUG-CC-PVTZ
  Basis Set: (AUG-CC-PVTZ AUX)
    Blend: AUG-CC-PVTZ-JKFIT
  @DF-RHF Final Energy:  -459.57348783931036
    Total Energy =                       -459.5734878393103031
 Dipole X            :       -156.6569509          147.9541719           -8.7027790
 Dipole Y            :         -0.0000495            0.0000000           -0.0000495
 Dipole Z            :         -0.0000000            0.0000000           -0.0000000
 Magnitude           :                                                    8.7027790
  Basis Set: (AUG-CC-PVTZ AUX)
    Blend: AUG-CC-PVTZ-RI
	 Reference Energy          =    -459.5734878393103600 [Eh]
	 Singles Energy            =      -0.0000000000000000 [Eh]
	 Same-Spin Energy          =      -0.0623177221018931 [Eh]
	 Opposite-Spin Energy      =      -0.1788069835546374 [Eh]
	 Correlation Energy        =      -0.2411247056565305 [Eh]
	 Total Energy              =    -459.8146125449669057 [Eh]
	 SCS Total Energy          =    -459.8088287936099050 [Eh]
                               Psi4 1.9 release
    Molecular point group: c1
  Multiplicity = 1
  Basis Set: AUG-CC-PVTZ
    Blend: AUG-CC-PVTZ
  Basis Set: (AUG-CC-PVTZ AUX)
    Blend: AUG-CC-PVTZ-JKFIT
  @DF-RHF Final Energy:   -76.05821209927285
    Total Energy =                        -76.0582120992728505
  Basis Set: (AUG-CC-PVTZ AUX)
	 Singles Energy            =      -0.0000000000000000 [Eh]
	 Same-Spin Energy          =      -0.0687002514515990 [Eh]
	 Opposite-Spin Energy      =      -0.2162830803717626 [Eh]
	 Correlation Energy        =      -0.2849833318233616 [Eh]
	 Total Energy              =     -76.3431954310962055 [Eh]
	 SCS Total Energy          =     -76.3406518795361677 [Eh]
                               Psi4 1.9 release
    Molecular point group: c1

    Geometry (in Bohr), charge = -1, multiplicity = 1:

       Center              X                  Y                   Z               Mass
    ------------   -----------------  -----------------  -----------------  -----------------
         O            0.000000000000     0.000000000000     0.000000000000    15.994914619570
         H           -0.139828394927     1.805075843668     0.000000000000     1.007825032230
         H            1.855603340810    -0.212452459655     0.000000000000     1.007825032230
         CL           8.703186583128     0.000000000000     0.000000000000    34.968852682000

  Charge       = -1
  Multiplicity = 1
  Basis Set: AUG-CC-PVTZ
    Blend: AUG-CC-PVTZ
  Basis Set: (AUG-CC-PVTZ AUX)
    Blend: AUG-CC-PVTZ-JKFIT

    Orbital Energies [Eh]
    ---------------------

    Doubly Occupied:

       1A   -104.517776     2A    -20.449477     3A    -10.241539
       4A     -7.707589     5A     -7.707564     6A     -7.707562
       7A     -1.227109     8A     -0.745406     9A     -0.581133
      10A     -0.469926    11A     -0.390090    12A     -0.162935
      13A     -0.161950    14A     -0.161904

  @DF-RHF Final Energy:  -535.64277602816276

   => Energetics <=

    Nuclear Repulsion Energy =             29.0458734554579117
    One-Electron Energy =                -804.9133792130010079
    Two-Electron Energy =                 240.2247297293803285
    Total Energy =                       -535.6427760281627570
 Dipole X            :       -157.5603375          149.6699469           -7.8903906
 Dipole Y            :         -1.0621778            1.5926234            0.5304455
 Dipole Z            :         -0.0000000            0.0000000           -0.0000000
 Magnitude           :                                                    7.9082006
  Basis Set: (AUG-CC-PVTZ AUX)
    Blend: AUG-CC-PVTZ-RI
	 Reference Energy          =    -535.6427760281627570 [Eh]
	 Singles Energy            =      -0.0000000000000000 [Eh]
	 Same-Spin Energy          =      -0.1312334978415040 [Eh]
	 Opposite-Spin Energy      =      -0.3949737697028584 [Eh]
	 Correlation Energy        =      -0.5262072675443623 [Eh]
	 Total Energy              =    -536.1689832957071076 [Eh]

	 ================> DF-SCS-MP2 Energies <==================
	-----------------------------------------------------------
	 SCS Same-Spin Scale       =       0.3333333333333333 [-]
	 SCS Opposite-Spin Scale   =       1.2000000000000000 [-]
	 SCS Same-Spin Energy      =      -0.0437444992805013 [Eh]
	 SCS Opposite-Spin Energy  =      -0.4739685236434300 [Eh]
	 SCS Correlation Energy    =      -0.5177130229239313 [Eh]
	 SCS Total Energy          =    -536.1604890510866426 [Eh]
	-----------------------------------------------------------

*** Psi4 exiting successfully. Buy a developer a beer!
