                               Psi4 1.9 release

  ==> Input File <==

--------------------------------------------------------------------------
MEMORY 60 GB

molecule dimer {
0 1
O      0.000000     0.000000     0.000000
H     -0.073994     0.955205     0.000000
H      0.981943    -0.112425     0.000000
--
-1 1
Cl     3.377387     0.000000     0.000000

units ang
no_reorient
no_com
symmetry c1
}

set {
basis        aug-cc-pVTZ
scf_type     df
}

energy("mp2", bsse_type="cp")
--------------------------------------------------------------------------

                               Psi4 1.9 release
    Molecular point group: c1
  Charge       = -1
  Multiplicity = 1
  Basis Set: AUG-CC-PVTZ
    Blend: AUG-CC-PVTZ
  Basis Set: (AUG-CC-PVTZ AUX)
    Blend: AUG-CC-PVTZ-JKFIT
  @DF-RHF Final Energy:  -459.57350239470253
    Total Energy =                       -459.5735023947025297
 Dipole X            :       -114.8827507          108.4997196           -6.3830311
 Dipole Y            :         -0.0001539            0.0000000           -0.0001539
 Dipole Z            :          0.0000000            0.0000000            0.0000000
 Magnitude           :                                                    6.3830311
  Basis Set: (AUG-CC-PVTZ AUX)
    Blend: AUG-CC-PVTZ-RI
	 Reference Energy          =    -459.5735023947025297 [Eh]
	 Singles Energy            =      -0.0000000000000000 [Eh]
	 Same-Spin Energy          =      -0.0625413124351218 [Eh]
	 Opposite-Spin Energy      =      -0.1797787509928364 [Eh]
	 Correlation Energy        =      -0.2423200634279582 [Eh]
	 Total Energy              =    -459.8158224581304694 [Eh]
	 SCS Total Energy          =    -459.8100840000389553 [Eh]
                               Psi4 1.9 release
    Molecular point group: c1
  Multiplicity = 1
  Basis Set: AUG-CC-PVTZ
    Blend: AUG-CC-PVTZ
  Basis Set: (AUG-CC-PVTZ AUX)
    Blend: AUG-CC-PVTZ-JKFIT
  @DF-RHF Final Energy:   -76.05822528534780
    Total Energy =                        -76.0582252853478025
  Basis Set: (AUG-CC-PVTZ AUX)
	 Singles Energy            =      -0.0000000000000000 [Eh]
	 Same-Spin Energy          =      -0.0687237844506243 [Eh]
	 Opposite-Spin Energy      =      -0.2166637101547886 [Eh]
	 Correlation Energy        =      -0.2853874946054129 [Eh]
	 Total Energy              =     -76.3436127799532187 [Eh]
	 SCS Total Energy          =     -76.3411296656837521 [Eh]
                               Psi4 1.9 release
    Molecular point group: c1

    Geometry (in Bohr), charge = -1, multiplicity = 1:

       Center              X                  Y                   Z               Mass
    ------------   -----------------  -----------------  -----------------  -----------------
         O            0.000000000000     0.000000000000     0.000000000000    15.994914619570
         H           -0.139828394927     1.805075843668     0.000000000000     1.007825032230
         H            1.855603340810    -0.212452459655     0.000000000000     1.007825032230
         CL           6.382336449682     0.000000000000     0.000000000000    34.968852682000

  Charge       = -1
  Multiplicity = 1
  Basis Set: AUG-CC-PVTZ
    Blend: AUG-CC-PVTZ
  Basis Set: (AUG-CC-PVTZ AUX)
    Blend: AUG-CC-PVTZ-JKFIT

    Orbital Energies [Eh]
    ---------------------

    Doubly Occupied:

       1A   -104.527909     2A    -20.397109     3A    -10.251920
       4A     -7.717997     5A     -7.717969     6A     -7.717961
       7A     -1.177351     8A     -0.758857     9A     -0.532139
      10A     -0.423333    11A     -0.340787    12A     -0.177697
      13A     -0.173515    14A     -0.173226

  @DF-RHF Final Energy:  -535.65174307616428

   => Energetics <=

    Nuclear Repulsion Energy =             36.6266125002941862
    One-Electron Energy =                -820.3811711311570889
    Two-Electron Energy =                 248.1028155546986227
    Total Energy =                       -535.6517430761642800
 Dipole X            :       -115.5526108          110.2154946           -5.3371162
 Dipole Y            :         -1.0838896            1.5926234            0.5087338
 Dipole Z            :          0.0000000            0.0000000            0.0000000
 Magnitude           :                                                    5.3613077
  Basis Set: (AUG-CC-PVTZ AUX)
    Blend: AUG-CC-PVTZ-RI
	 Reference Energy          =    -535.6517430761642800 [Eh]
	 Singles Energy            =      -0.0000000000000000 [Eh]
	 Same-Spin Energy          =      -0.1330067945555123 [Eh]
	 Opposite-Spin Energy      =      -0.3974343651718121 [Eh]
	 Correlation Energy        =      -0.5304411597273243 [Eh]
	 Total Energy              =    -536.1821842358915546 [Eh]

	 ================> DF-SCS-MP2 Energies <==================
	-----------------------------------------------------------
	 SCS Same-Spin Scale       =       0.3333333333333333 [-]
	 SCS Opposite-Spin Scale   =       1.2000000000000000 [-]
	 SCS Same-Spin Energy      =      -0.0443355981851708 [Eh]
	 SCS Opposite-Spin Energy  =      -0.4769212382061745 [Eh]
	 SCS Correlation Energy    =      -0.5212568363913452 [Eh]
	 SCS Total Energy          =    -536.1729999125556105 [Eh]
	-----------------------------------------------------------

*** Psi4 exiting successfully. Buy a developer a beer!
