                               Psi4 1.9 release

  ==> Input File <==

--------------------------------------------------------------------------
MEMORY 60 GB

molecule dimer {
0 1
O      0.000000     0.000000     0.000000
H     -0.073994     0.955205     0.000000
H      0.981943    -0.112425     0.000000
--
-1 1
Cl     2.763317     0.000000     0.000000

units ang
no_reorient
no_com
symmetry c1
}

set {
basis        aug-cc-pVTZ
scf_type     df
}

energy("mp2", bsse_type="cp")
--------------------------------------------------------------------------

                               Psi4 1.9 release
    Molecular point group: c1
  Charge       = -1
  Multiplicity = 1
  Basis Set: AUG-CC-PVTZ
    Blend: AUG-CC-PVTZ
  Basis Set: (AUG-CC-PVTZ AUX)
    Blend: AUG-CC-PVTZ-JKFIT
  @DF-RHF Final Energy:  -459.57351814582330
    Total Energy =                       -459.5735181458233001
 Dipole X            :        -93.9953414           88.7725096           -5.2228318
 Dipole Y            :         -0.0004658            0.0000000           -0.0004658
 Dipole Z            :         -0.0000000            0.0000000           -0.0000000
 Magnitude           :                                                    5.2228318
  Basis Set: (AUG-CC-PVTZ AUX)
    Blend: AUG-CC-PVTZ-RI
	 Reference Energy          =    -459.5735181458233001 [Eh]
	 Singles Energy            =      -0.0000000000000000 [Eh]
	 Same-Spin Energy          =      -0.0629166777754374 [Eh]
	 Opposite-Spin Energy      =      -0.1814254992173742 [Eh]
	 Correlation Energy        =      -0.2443421769928117 [Eh]
	 Total Energy              =    -459.8178603228161023 [Eh]
	 SCS Total Energy          =    -459.8122009708092719 [Eh]
                               Psi4 1.9 release
    Molecular point group: c1
  Multiplicity = 1
  Basis Set: AUG-CC-PVTZ
    Blend: AUG-CC-PVTZ
  Basis Set: (AUG-CC-PVTZ AUX)
    Blend: AUG-CC-PVTZ-JKFIT
  @DF-RHF Final Energy:   -76.05825412128853
    Total Energy =                        -76.0582541212885417
  Basis Set: (AUG-CC-PVTZ AUX)
	 Singles Energy            =      -0.0000000000000000 [Eh]
	 Same-Spin Energy          =      -0.0687454110914557 [Eh]
	 Opposite-Spin Energy      =      -0.2168888317919011 [Eh]
	 Correlation Energy        =      -0.2856342428833568 [Eh]
	 Total Energy              =     -76.3438883641718888 [Eh]
	 SCS Total Energy          =     -76.3414358564692890 [Eh]
                               Psi4 1.9 release
    Molecular point group: c1

    Geometry (in Bohr), charge = -1, multiplicity = 1:

       Center              X                  Y                   Z               Mass
    ------------   -----------------  -----------------  -----------------  -----------------
         O            0.000000000000     0.000000000000     0.000000000000    15.994914619570
         H           -0.139828394927     1.805075843668     0.000000000000     1.007825032230
         H            1.855603340810    -0.212452459655     0.000000000000     1.007825032230
         CL           5.221912327822     0.000000000000     0.000000000000    34.968852682000

  Charge       = -1
  Multiplicity = 1
  Basis Set: AUG-CC-PVTZ
    Blend: AUG-CC-PVTZ
  Basis Set: (AUG-CC-PVTZ AUX)
    Blend: AUG-CC-PVTZ-JKFIT

    Orbital Energies [Eh]
    ---------------------

    Doubly Occupied:

       1A   -104.532474     2A    -20.346489     3A    -10.258272
       4A     -7.724424     5A     -7.724213     6A     -7.724194
       7A     -1.136524     8A     -0.778422     9A     -0.495876
      10A     -0.389194    11A     -0.298257    12A     -0.185729
      13A     -0.183412    14A     -0.183404

  @DF-RHF Final Energy:  -535.64082437105696

   => Energetics <=

    Nuclear Repulsion Energy =             43.1434076324687297
    One-Electron Energy =                -833.6466983266888064
    Two-Electron Energy =                 254.8624663231630336
    Total Energy =                       -535.6408243710569650
 Dipole X            :        -94.4486645           90.4882845           -3.9603800
 Dipole Y            :         -1.1069816            1.5926234            0.4856418
 Dipole Z            :         -0.0000000            0.0000000           -0.0000000
 Magnitude           :                                                    3.9900448
  Basis Set: (AUG-CC-PVTZ AUX)
    Blend: AUG-CC-PVTZ-RI
	 Reference Energy          =    -535.6408243710569650 [Eh]
	 Singles Energy            =      -0.0000000000000000 [Eh]
	 Same-Spin Energy          =      -0.1365251605959316 [Eh]
	 Opposite-Spin Energy      =      -0.4017522024355218 [Eh]
	 Correlation Energy        =      -0.5382773630314535 [Eh]
	 Total Energy              =    -536.1791017340883627 [Eh]

	 ================> DF-SCS-MP2 Energies <==================
	-----------------------------------------------------------
	 SCS Same-Spin Scale       =       0.3333333333333333 [-]
	 SCS Opposite-Spin Scale   =       1.2000000000000000 [-]
	 SCS Same-Spin Energy      =      -0.0455083868653105 [Eh]
	 SCS Opposite-Spin Energy  =      -0.4821026429226262 [Eh]
	 SCS Correlation Energy    =      -0.5276110297879367 [Eh]
	 SCS Total Energy          =    -536.1684354008449418 [Eh]
	-----------------------------------------------------------

*** Psi4 exiting successfully. Buy a developer a beer!
