                               Psi4 1.9 release

  ==> Input File <==

--------------------------------------------------------------------------
MEMORY 60 GB

molecule dimer {
0 1
O      0.000000     0.000000     0.000000
H     -0.073994     0.955205     0.000000
H      0.981943    -0.112425     0.000000
--
-1 1
Cl     3.991458     0.000000     0.000000

units ang
no_reorient
no_com
symmetry c1
}

set {
basis        aug-cc-pVTZ
scf_type     df
}

energy("mp2", bsse_type="cp")
--------------------------------------------------------------------------

                               Psi4 1.9 release
    Molecular point group: c1
  Charge       = -1
  Multiplicity = 1
  Basis Set: AUG-CC-PVTZ
    Blend: AUG-CC-PVTZ
  Basis Set: (AUG-CC-PVTZ AUX)
    Blend: AUG-CC-PVTZ-JKFIT
  @DF-RHF Final Energy:  -459.57349256558535
    Total Energy =                       -459.5734925655853544
 Dipole X            :       -135.7697572          128.2269618           -7.5427954
 Dipole Y            :         -0.0000321            0.0000000           -0.0000321
 Dipole Z            :         -0.0000000            0.0000000           -0.0000000
 Magnitude           :                                                    7.5427954
  Basis Set: (AUG-CC-PVTZ AUX)
    Blend: AUG-CC-PVTZ-RI
	 Reference Energy          =    -459.5734925655853544 [Eh]
	 Singles Energy            =      -0.0000000000000000 [Eh]
	 Same-Spin Energy          =      -0.0623876525284156 [Eh]
	 Opposite-Spin Energy      =      -0.1790829961923802 [Eh]
	 Correlation Energy        =      -0.2414706487207957 [Eh]
	 Total Energy              =    -459.8149632143061467 [Eh]
	 SCS Total Energy          =    -459.8091880451923430 [Eh]
                               Psi4 1.9 release
    Molecular point group: c1
  Multiplicity = 1
  Basis Set: AUG-CC-PVTZ
    Blend: AUG-CC-PVTZ
  Basis Set: (AUG-CC-PVTZ AUX)
    Blend: AUG-CC-PVTZ-JKFIT
  @DF-RHF Final Energy:   -76.05821511570080
    Total Energy =                        -76.0582151157008184
  Basis Set: (AUG-CC-PVTZ AUX)
	 Singles Energy            =      -0.0000000000000000 [Eh]
	 Same-Spin Energy          =      -0.0687095970325217 [Eh]
	 Opposite-Spin Energy      =      -0.2164349650153663 [Eh]
	 Correlation Energy        =      -0.2851445620478880 [Eh]
	 Total Energy              =     -76.3433596777486940 [Eh]
	 SCS Total Energy          =     -76.3408402727300910 [Eh]
                               Psi4 1.9 release
    Molecular point group: c1

    Geometry (in Bohr), charge = -1, multiplicity = 1:

       Center              X                  Y                   Z               Mass
    ------------   -----------------  -----------------  -----------------  -----------------
         O            0.000000000000     0.000000000000     0.000000000000    15.994914619570
         H           -0.139828394927     1.805075843668     0.000000000000     1.007825032230
         H            1.855603340810    -0.212452459655     0.000000000000     1.007825032230
         CL           7.542762461268     0.000000000000     0.000000000000    34.968852682000

  Charge       = -1
  Multiplicity = 1
  Basis Set: AUG-CC-PVTZ
    Blend: AUG-CC-PVTZ
  Basis Set: (AUG-CC-PVTZ AUX)
    Blend: AUG-CC-PVTZ-JKFIT

    Orbital Energies [Eh]
    ---------------------

    Doubly Occupied:

       1A   -104.522253     2A    -20.428262     3A    -10.246011
       4A     -7.712072     5A     -7.712043     6A     -7.712040
       7A     -1.206459     8A     -0.750362     9A     -0.560524
      10A     -0.450215    11A     -0.369753    12A     -0.168688
      13A     -0.166527    14A     -0.166426

  @DF-RHF Final Energy:  -535.64708494699869

   => Energetics <=

    Nuclear Repulsion Energy =             32.2261698250068775
    One-Electron Energy =                -811.4032407752241625
    Two-Electron Energy =                 243.5299860032185961
    Total Energy =                       -535.6470849469986888
 Dipole X            :       -136.5798054          129.9427368           -6.6370687
 Dipole Y            :         -1.0707501            1.5926234            0.5218733
 Dipole Z            :         -0.0000000            0.0000000           -0.0000000
 Magnitude           :                                                    6.6575545
  Basis Set: (AUG-CC-PVTZ AUX)
    Blend: AUG-CC-PVTZ-RI
	 Reference Energy          =    -535.6470849469986888 [Eh]
	 Singles Energy            =      -0.0000000000000000 [Eh]
	 Same-Spin Energy          =      -0.1317150988578052 [Eh]
	 Opposite-Spin Energy      =      -0.3956734181681256 [Eh]
	 Correlation Energy        =      -0.5273885170259309 [Eh]
	 Total Energy              =    -536.1744734640245724 [Eh]

	 ================> DF-SCS-MP2 Energies <==================
	-----------------------------------------------------------
	 SCS Same-Spin Scale       =       0.3333333333333333 [-]
	 SCS Opposite-Spin Scale   =       1.2000000000000000 [-]
	 SCS Same-Spin Energy      =      -0.0439050329526017 [Eh]
	 SCS Opposite-Spin Energy  =      -0.4748081018017507 [Eh]
	 SCS Correlation Energy    =      -0.5187131347543524 [Eh]
	 SCS Total Energy          =    -536.1657980817529960 [Eh]
	-----------------------------------------------------------

*** Psi4 exiting successfully. Buy a developer a beer!
