                               Psi4 1.9 release

  ==> Input File <==

--------------------------------------------------------------------------
MEMORY 60 GB

molecule dimer {
0 1
O      0.000000     0.000000     0.000000
H     -0.073994     0.955205     0.000000
H      0.981943    -0.112425     0.000000
--
-1 1
Cl     2.916834     0.000000     0.000000

units ang
no_reorient
no_com
symmetry c1
}

set {
basis        aug-cc-pVTZ
scf_type     df
}

energy("mp2", bsse_type="cp")
--------------------------------------------------------------------------

                               Psi4 1.9 release
    Molecular point group: c1
  Charge       = -1
  Multiplicity = 1
  Basis Set: AUG-CC-PVTZ
    Blend: AUG-CC-PVTZ
  Basis Set: (AUG-CC-PVTZ AUX)
    Blend: AUG-CC-PVTZ-JKFIT
  @DF-RHF Final Energy:  -459.57351219933901
    Total Energy =                       -459.5735121993390635
 Dipole X            :        -99.2170817           93.7042960           -5.5127856
 Dipole Y            :         -0.0003340            0.0000000           -0.0003340
 Dipole Z            :          0.0000000            0.0000000            0.0000000
 Magnitude           :                                                    5.5127857
  Basis Set: (AUG-CC-PVTZ AUX)
    Blend: AUG-CC-PVTZ-RI
	 Reference Energy          =    -459.5735121993390067 [Eh]
	 Singles Energy            =      -0.0000000000000000 [Eh]
	 Same-Spin Energy          =      -0.0627771885993187 [Eh]
	 Opposite-Spin Energy      =      -0.1808209700261082 [Eh]
	 Correlation Energy        =      -0.2435981586254270 [Eh]
	 Total Energy              =    -459.8171103579644523 [Eh]
	 SCS Total Energy          =    -459.8114230929034534 [Eh]
                               Psi4 1.9 release
    Molecular point group: c1
  Multiplicity = 1
  Basis Set: AUG-CC-PVTZ
    Blend: AUG-CC-PVTZ
  Basis Set: (AUG-CC-PVTZ AUX)
    Blend: AUG-CC-PVTZ-JKFIT
  @DF-RHF Final Energy:   -76.05824322494770
    Total Energy =                        -76.0582432249477023
  Basis Set: (AUG-CC-PVTZ AUX)
	 Singles Energy            =      -0.0000000000000000 [Eh]
	 Same-Spin Energy          =      -0.0687381758810788 [Eh]
	 Opposite-Spin Energy      =      -0.2168151750225081 [Eh]
	 Correlation Energy        =      -0.2855533509035869 [Eh]
	 Total Energy              =     -76.3437965758512860 [Eh]
	 SCS Total Energy          =     -76.3413341602684028 [Eh]
                               Psi4 1.9 release
    Molecular point group: c1

    Geometry (in Bohr), charge = -1, multiplicity = 1:

       Center              X                  Y                   Z               Mass
    ------------   -----------------  -----------------  -----------------  -----------------
         O            0.000000000000     0.000000000000     0.000000000000    15.994914619570
         H           -0.139828394927     1.805075843668     0.000000000000     1.007825032230
         H            1.855603340810    -0.212452459655     0.000000000000     1.007825032230
         CL           5.512017413424     0.000000000000     0.000000000000    34.968852682000

  Charge       = -1
  Multiplicity = 1
  Basis Set: AUG-CC-PVTZ
    Blend: AUG-CC-PVTZ
  Basis Set: (AUG-CC-PVTZ AUX)
    Blend: AUG-CC-PVTZ-JKFIT

    Orbital Energies [Eh]
    ---------------------

    Doubly Occupied:

       1A   -104.531726     2A    -20.361811     3A    -10.256750
       4A     -7.722863     5A     -7.722754     6A     -7.722739
       7A     -1.147738     8A     -0.771434     9A     -0.505157
      10A     -0.398048    11A     -0.310315    12A     -0.184347
      13A     -0.181327    14A     -0.180535

  @DF-RHF Final Energy:  -535.64787582997678

   => Energetics <=

    Nuclear Repulsion Energy =             41.2345782792403028
    One-Electron Energy =                -829.7698168558281395
    Two-Electron Energy =                 252.8873627466110463
    Total Energy =                       -535.6478758299767833
 Dipole X            :        -99.7342168           95.4200710           -4.3141458
 Dipole Y            :         -1.0996484            1.5926234            0.4929750
 Dipole Z            :          0.0000000            0.0000000            0.0000000
 Magnitude           :                                                    4.3422205
  Basis Set: (AUG-CC-PVTZ AUX)
    Blend: AUG-CC-PVTZ-RI
	 Reference Energy          =    -535.6478758299767833 [Eh]
	 Singles Energy            =      -0.0000000000000000 [Eh]
	 Same-Spin Energy          =      -0.1352864038737248 [Eh]
	 Opposite-Spin Energy      =      -0.4001917429645021 [Eh]
	 Correlation Energy        =      -0.5354781468382269 [Eh]
	 Total Energy              =    -536.1833539768150558 [Eh]

	 ================> DF-SCS-MP2 Energies <==================
	-----------------------------------------------------------
	 SCS Same-Spin Scale       =       0.3333333333333333 [-]
	 SCS Opposite-Spin Scale   =       1.2000000000000000 [-]
	 SCS Same-Spin Energy      =      -0.0450954679579083 [Eh]
	 SCS Opposite-Spin Energy  =      -0.4802300915574025 [Eh]
	 SCS Correlation Energy    =      -0.5253255595153108 [Eh]
	 SCS Total Energy          =    -536.1732013894920783 [Eh]
	-----------------------------------------------------------

*** Psi4 exiting successfully. Buy a developer a beer!
