                               Psi4 1.9 release

  ==> Input File <==

--------------------------------------------------------------------------
MEMORY 60 GB

molecule dimer {
0 1
O      0.000000     0.000000     0.000000
H     -0.073994     0.955205     0.000000
H      0.981943    -0.112425     0.000000
--
-1 1
Cl     6.140704     0.000000     0.000000

units ang
no_reorient
no_com
symmetry c1
}

set {
basis        aug-cc-pVTZ
scf_type     df
}

energy("mp2", bsse_type="cp")
--------------------------------------------------------------------------

                               Psi4 1.9 release
    Molecular point group: c1
  Charge       = -1
  Multiplicity = 1
  Basis Set: AUG-CC-PVTZ
    Blend: AUG-CC-PVTZ
  Basis Set: (AUG-CC-PVTZ AUX)
    Blend: AUG-CC-PVTZ-JKFIT
  @DF-RHF Final Energy:  -459.57348301671971
    Total Energy =                       -459.5734830167197629
 Dipole X            :       -208.8765466          197.2722292          -11.6043174
 Dipole Y            :         -0.0000103            0.0000000           -0.0000103
 Dipole Z            :          0.0000000            0.0000000            0.0000000
 Magnitude           :                                                   11.6043174
  Basis Set: (AUG-CC-PVTZ AUX)
    Blend: AUG-CC-PVTZ-RI
	 Reference Energy          =    -459.5734830167197060 [Eh]
	 Singles Energy            =      -0.0000000000000000 [Eh]
	 Same-Spin Energy          =      -0.0622708211798937 [Eh]
	 Opposite-Spin Energy      =      -0.1786499176677375 [Eh]
	 Correlation Energy        =      -0.2409207388476312 [Eh]
	 Total Energy              =    -459.8144037555673549 [Eh]
	 SCS Total Energy          =    -459.8086198583142732 [Eh]
                               Psi4 1.9 release
    Molecular point group: c1
  Multiplicity = 1
  Basis Set: AUG-CC-PVTZ
    Blend: AUG-CC-PVTZ
  Basis Set: (AUG-CC-PVTZ AUX)
    Blend: AUG-CC-PVTZ-JKFIT
  @DF-RHF Final Energy:   -76.05820666526805
    Total Energy =                        -76.0582066652680453
  Basis Set: (AUG-CC-PVTZ AUX)
	 Singles Energy            =      -0.0000000000000000 [Eh]
	 Same-Spin Energy          =      -0.0686963657106947 [Eh]
	 Opposite-Spin Energy      =      -0.2162322567590086 [Eh]
	 Correlation Energy        =      -0.2849286224697033 [Eh]
	 Total Energy              =     -76.3431352877377520 [Eh]
	 SCS Total Energy          =     -76.3405841619490815 [Eh]
                               Psi4 1.9 release
    Molecular point group: c1

    Geometry (in Bohr), charge = -1, multiplicity = 1:

       Center              X                  Y                   Z               Mass
    ------------   -----------------  -----------------  -----------------  -----------------
         O            0.000000000000     0.000000000000     0.000000000000    15.994914619570
         H           -0.139828394927     1.805075843668     0.000000000000     1.007825032230
         H            1.855603340810    -0.212452459655     0.000000000000     1.007825032230
         CL          11.604248777503     0.000000000000     0.000000000000    34.968852682000

  Charge       = -1
  Multiplicity = 1
  Basis Set: AUG-CC-PVTZ
    Blend: AUG-CC-PVTZ
  Basis Set: (AUG-CC-PVTZ AUX)
    Blend: AUG-CC-PVTZ-JKFIT

    Orbital Energies [Eh]
    ---------------------

    Doubly Occupied:

       1A   -104.511832     2A    -20.481871     3A    -10.235608
       4A     -7.701643     5A     -7.701634     6A     -7.701634
       7A     -1.259075     8A     -0.739374     9A     -0.613201
      10A     -0.500881    11A     -0.421565    12A     -0.156342
      13A     -0.156129    14A     -0.156120

  @DF-RHF Final Energy:  -535.63724607113932

   => Energetics <=

    Nuclear Repulsion Energy =             23.9483993656599665
    One-Electron Energy =                -794.4974696278596866
    Two-Electron Energy =                 234.9118241910604183
    Total Energy =                       -535.6372460711393160
 Dipole X            :       -209.8987326          198.9880042          -10.9107284
 Dipole Y            :         -1.0504858            1.5926234            0.5421376
 Dipole Z            :          0.0000000            0.0000000            0.0000000
 Magnitude           :                                                   10.9241891
  Basis Set: (AUG-CC-PVTZ AUX)
    Blend: AUG-CC-PVTZ-RI
	 Reference Energy          =    -535.6372460711393160 [Eh]
	 Singles Energy            =      -0.0000000000000000 [Eh]
	 Same-Spin Energy          =      -0.1309663189170666 [Eh]
	 Opposite-Spin Energy      =      -0.3946981569424415 [Eh]
	 Correlation Energy        =      -0.5256644758595080 [Eh]
	 Total Energy              =    -536.1629105469987735 [Eh]

	 ================> DF-SCS-MP2 Energies <==================
	-----------------------------------------------------------
	 SCS Same-Spin Scale       =       0.3333333333333333 [-]
	 SCS Opposite-Spin Scale   =       1.2000000000000000 [-]
	 SCS Same-Spin Energy      =      -0.0436554396390222 [Eh]
	 SCS Opposite-Spin Energy  =      -0.4736377883309297 [Eh]
	 SCS Correlation Energy    =      -0.5172932279699519 [Eh]
	 SCS Total Energy          =    -536.1545392991092740 [Eh]
	-----------------------------------------------------------

*** Psi4 exiting successfully. Buy a developer a beer!
