                               Psi4 1.9 release

  ==> Input File <==

--------------------------------------------------------------------------
MEMORY 60 GB

molecule dimer {
0 1
O      0.000000     0.000000     0.000000
H     -0.073994     0.955205     0.000000
H      0.981943    -0.112425     0.000000
--
-1 1
Cl     3.684422     0.000000     0.000000

units ang
no_reorient
no_com
symmetry c1
}

set {
basis        aug-cc-pVTZ
scf_type     df
}

energy("mp2", bsse_type="cp")
--------------------------------------------------------------------------

                               Psi4 1.9 release
    Molecular point group: c1
  Charge       = -1
  Multiplicity = 1
  Basis Set: AUG-CC-PVTZ
    Blend: AUG-CC-PVTZ
  Basis Set: (AUG-CC-PVTZ AUX)
    Blend: AUG-CC-PVTZ-JKFIT
  @DF-RHF Final Energy:  -459.57349655063126
    Total Energy =                       -459.5734965506312619
 Dipole X            :       -125.3263479          118.3633247           -6.9630233
 Dipole Y            :         -0.0000908            0.0000000           -0.0000908
 Dipole Z            :         -0.0000000            0.0000000           -0.0000000
 Magnitude           :                                                    6.9630233
  Basis Set: (AUG-CC-PVTZ AUX)
    Blend: AUG-CC-PVTZ-RI
	 Reference Energy          =    -459.5734965506312619 [Eh]
	 Singles Energy            =      -0.0000000000000000 [Eh]
	 Same-Spin Energy          =      -0.0624479063082430 [Eh]
	 Opposite-Spin Energy      =      -0.1793582902604096 [Eh]
	 Correlation Energy        =      -0.2418061965686526 [Eh]
	 Total Energy              =    -459.8153027471998939 [Eh]
	 SCS Total Energy          =    -459.8095424677131859 [Eh]
                               Psi4 1.9 release
    Molecular point group: c1
  Multiplicity = 1
  Basis Set: AUG-CC-PVTZ
    Blend: AUG-CC-PVTZ
  Basis Set: (AUG-CC-PVTZ AUX)
    Blend: AUG-CC-PVTZ-JKFIT
  @DF-RHF Final Energy:   -76.05821951538633
    Total Energy =                        -76.0582195153863267
  Basis Set: (AUG-CC-PVTZ AUX)
	 Singles Energy            =      -0.0000000000000000 [Eh]
	 Same-Spin Energy          =      -0.0687167012871103 [Eh]
	 Opposite-Spin Energy      =      -0.2165527879035268 [Eh]
	 Correlation Energy        =      -0.2852694891906371 [Eh]
	 Total Energy              =     -76.3434890045769663 [Eh]
	 SCS Total Energy          =     -76.3409884279662663 [Eh]
                               Psi4 1.9 release
    Molecular point group: c1

    Geometry (in Bohr), charge = -1, multiplicity = 1:

       Center              X                  Y                   Z               Mass
    ------------   -----------------  -----------------  -----------------  -----------------
         O            0.000000000000     0.000000000000     0.000000000000    15.994914619570
         H           -0.139828394927     1.805075843668     0.000000000000     1.007825032230
         H            1.855603340810    -0.212452459655     0.000000000000     1.007825032230
         CL           6.962548510612     0.000000000000     0.000000000000    34.968852682000

  Charge       = -1
  Multiplicity = 1
  Basis Set: AUG-CC-PVTZ
    Blend: AUG-CC-PVTZ
  Basis Set: (AUG-CC-PVTZ AUX)
    Blend: AUG-CC-PVTZ-JKFIT

    Orbital Energies [Eh]
    ---------------------

    Doubly Occupied:

       1A   -104.525000     2A    -20.414342     3A    -10.248816
       4A     -7.714885     5A     -7.714858     6A     -7.714853
       7A     -1.193209     8A     -0.753954     9A     -0.547462
      10A     -0.437802    11A     -0.356638    12A     -0.172781
      13A     -0.169641    14A     -0.169478

  @DF-RHF Final Energy:  -535.64965762472298

   => Energetics <=

    Nuclear Repulsion Energy =             34.2332156965769840
    One-Electron Energy =                -815.4983091286578656
    Two-Electron Energy =                 245.6154358073578976
    Total Energy =                       -535.6496576247229768
 Dipole X            :       -126.0734761          120.0790996           -5.9943765
 Dipole Y            :         -1.0765817            1.5926234            0.5160417
 Dipole Z            :         -0.0000000            0.0000000           -0.0000000
 Magnitude           :                                                    6.0165479
  Basis Set: (AUG-CC-PVTZ AUX)
    Blend: AUG-CC-PVTZ-RI
	 Reference Energy          =    -535.6496576247229768 [Eh]
	 Singles Energy            =      -0.0000000000000000 [Eh]
	 Same-Spin Energy          =      -0.1322024010229056 [Eh]
	 Opposite-Spin Energy      =      -0.3963747352976464 [Eh]
	 Correlation Energy        =      -0.5285771363205520 [Eh]
	 Total Energy              =    -536.1782347610435409 [Eh]

	 ================> DF-SCS-MP2 Energies <==================
	-----------------------------------------------------------
	 SCS Same-Spin Scale       =       0.3333333333333333 [-]
	 SCS Opposite-Spin Scale   =       1.2000000000000000 [-]
	 SCS Same-Spin Energy      =      -0.0440674670076352 [Eh]
	 SCS Opposite-Spin Energy  =      -0.4756496823571756 [Eh]
	 SCS Correlation Energy    =      -0.5197171493648108 [Eh]
	 SCS Total Energy          =    -536.1693747740878280 [Eh]
	-----------------------------------------------------------

*** Psi4 exiting successfully. Buy a developer a beer!
