                               Psi4 1.9 release

  ==> Input File <==

--------------------------------------------------------------------------
MEMORY 60 GB

molecule dimer {
0 1
O      0.000000     0.000000     0.000000
H     -0.073994     0.955205     0.000000
H      0.981943    -0.112425     0.000000
--
-1 1
Cl     2.456282     0.000000     0.000000

units ang
no_reorient
no_com
symmetry c1
}

set {
basis        aug-cc-pVTZ
scf_type     df
}

energy("mp2", bsse_type="cp")
--------------------------------------------------------------------------

                               Psi4 1.9 release
    Molecular point group: c1
  Charge       = -1
  Multiplicity = 1
  Basis Set: AUG-CC-PVTZ
    Blend: AUG-CC-PVTZ
  Basis Set: (AUG-CC-PVTZ AUX)
    Blend: AUG-CC-PVTZ-JKFIT
  @DF-RHF Final Energy:  -459.57353650994071
    Total Energy =                       -459.5735365099407090
 Dipole X            :        -83.5518263           78.9089045           -4.6429217
 Dipole Y            :         -0.0007425            0.0000000           -0.0007425
 Dipole Z            :          0.0000000            0.0000000            0.0000000
 Magnitude           :                                                    4.6429218
  Basis Set: (AUG-CC-PVTZ AUX)
    Blend: AUG-CC-PVTZ-RI
	 Reference Energy          =    -459.5735365099407090 [Eh]
	 Singles Energy            =      -0.0000000000000000 [Eh]
	 Same-Spin Energy          =      -0.0633928566953730 [Eh]
	 Opposite-Spin Energy      =      -0.1834889227455020 [Eh]
	 Correlation Energy        =      -0.2468817794408751 [Eh]
	 Total Energy              =    -459.8204182893815641 [Eh]
	 SCS Total Energy          =    -459.8148541694670826 [Eh]
                               Psi4 1.9 release
    Molecular point group: c1
  Multiplicity = 1
  Basis Set: AUG-CC-PVTZ
    Blend: AUG-CC-PVTZ
  Basis Set: (AUG-CC-PVTZ AUX)
    Blend: AUG-CC-PVTZ-JKFIT
  @DF-RHF Final Energy:   -76.05828280504994
    Total Energy =                        -76.0582828050499415
  Basis Set: (AUG-CC-PVTZ AUX)
	 Singles Energy            =      -0.0000000000000000 [Eh]
	 Same-Spin Energy          =      -0.0687616408956899 [Eh]
	 Opposite-Spin Energy      =      -0.2170695654372430 [Eh]
	 Correlation Energy        =      -0.2858312063329329 [Eh]
	 Total Energy              =     -76.3441140113828709 [Eh]
	 SCS Total Energy          =     -76.3416868305398566 [Eh]
                               Psi4 1.9 release
    Molecular point group: c1

    Geometry (in Bohr), charge = -1, multiplicity = 1:

       Center              X                  Y                   Z               Mass
    ------------   -----------------  -----------------  -----------------  -----------------
         O            0.000000000000     0.000000000000     0.000000000000    15.994914619570
         H           -0.139828394927     1.805075843668     0.000000000000     1.007825032230
         H            1.855603340810    -0.212452459655     0.000000000000     1.007825032230
         CL           4.641700266892     0.000000000000     0.000000000000    34.968852682000

  Charge       = -1
  Multiplicity = 1
  Basis Set: AUG-CC-PVTZ
    Blend: AUG-CC-PVTZ
  Basis Set: (AUG-CC-PVTZ AUX)
    Blend: AUG-CC-PVTZ-JKFIT

    Orbital Energies [Eh]
    ---------------------

    Doubly Occupied:

       1A   -104.531789     2A    -20.309128     3A    -10.260852
       4A     -7.727257     5A     -7.726404     6A     -7.726374
       7A     -1.115564     8A     -0.800540     9A     -0.481311
      10A     -0.372582    11A     -0.273802    12A     -0.193862
      13A     -0.188174    14A     -0.173116

  @DF-RHF Final Energy:  -535.60186199140139

   => Energetics <=

    Nuclear Repulsion Energy =             47.7642937262529159
    One-Electron Energy =                -842.9708001507564177
    Two-Electron Energy =                 259.6046444331020666
    Total Energy =                       -535.6018619914013925
 Dipole X            :        -83.8569798           80.6246795           -3.2323004
 Dipole Y            :         -1.1261114            1.5926234            0.4665120
 Dipole Z            :          0.0000000            0.0000000            0.0000000
 Magnitude           :                                                    3.2657922
  Basis Set: (AUG-CC-PVTZ AUX)
    Blend: AUG-CC-PVTZ-RI
	 Reference Energy          =    -535.6018619914013925 [Eh]
	 Singles Energy            =      -0.0000000000000000 [Eh]
	 Same-Spin Energy          =      -0.1401589491264390 [Eh]
	 Opposite-Spin Energy      =      -0.4067505121820309 [Eh]
	 Correlation Energy        =      -0.5469094613084698 [Eh]
	 Total Energy              =    -536.1487714527098660 [Eh]

	 ================> DF-SCS-MP2 Energies <==================
	-----------------------------------------------------------
	 SCS Same-Spin Scale       =       0.3333333333333333 [-]
	 SCS Opposite-Spin Scale   =       1.2000000000000000 [-]
	 SCS Same-Spin Energy      =      -0.0467196497088130 [Eh]
	 SCS Opposite-Spin Energy  =      -0.4881006146184371 [Eh]
	 SCS Correlation Energy    =      -0.5348202643272501 [Eh]
	 SCS Total Energy          =    -536.1366822557286014 [Eh]
	-----------------------------------------------------------

*** Psi4 exiting successfully. Buy a developer a beer!
