                               Psi4 1.9 release

  ==> Input File <==

--------------------------------------------------------------------------
MEMORY 60 GB

molecule dimer {
0 1
O      0.000000     0.000000     0.000000
H     -0.077717     0.955172     0.000000
H      0.978490    -0.109698     0.000000
--
-1 1
Br     3.212066     0.000000     0.000000

units ang
no_reorient
no_com
symmetry c1
}

set {
basis        aug-cc-pVTZ
scf_type     df
}

energy("mp2", bsse_type="cp")
--------------------------------------------------------------------------

                               Psi4 1.9 release
    Molecular point group: c1
  Charge       = -1
  Multiplicity = 1
  Basis Set: AUG-CC-PVTZ
    Blend: AUG-CC-PVTZ
  Basis Set: (AUG-CC-PVTZ AUX)
    Blend: AUG-CC-PVTZ-JKFIT
  @DF-RHF Final Energy: -2572.53368400541376
    Total Energy =                      -2572.5336840054137610
 Dipole X            :       -218.5174076          212.4473763           -6.0700313
 Dipole Y            :         -0.0002006            0.0000000           -0.0002006
 Dipole Z            :          0.0000000            0.0000000            0.0000000
 Magnitude           :                                                    6.0700313
  Basis Set: (AUG-CC-PVTZ AUX)
    Blend: AUG-CC-PVTZ-RI
	 Reference Energy          =   -2572.5336840054137610 [Eh]
	 Singles Energy            =      -0.0000000000000000 [Eh]
	 Same-Spin Energy          =      -0.0880911013266151 [Eh]
	 Opposite-Spin Energy      =      -0.2046579312581171 [Eh]
	 Correlation Energy        =      -0.2927490325847322 [Eh]
	 Total Energy              =   -2572.8264330379984131 [Eh]
	 SCS Total Energy          =   -2572.8086372233656220 [Eh]
                               Psi4 1.9 release
    Molecular point group: c1
  Multiplicity = 1
  Basis Set: AUG-CC-PVTZ
    Blend: AUG-CC-PVTZ
  Basis Set: (AUG-CC-PVTZ AUX)
    Blend: AUG-CC-PVTZ-JKFIT
  @DF-RHF Final Energy:   -76.05855096719728
    Total Energy =                        -76.0585509671972773
  Basis Set: (AUG-CC-PVTZ AUX)
	 Singles Energy            =      -0.0000000000000000 [Eh]
	 Same-Spin Energy          =      -0.0686980147285295 [Eh]
	 Opposite-Spin Energy      =      -0.2166603518382139 [Eh]
	 Correlation Energy        =      -0.2853583665667435 [Eh]
	 Total Energy              =     -76.3439093337640173 [Eh]
	 SCS Total Energy          =     -76.3414427276459833 [Eh]
                               Psi4 1.9 release
    Molecular point group: c1

    Geometry (in Bohr), charge = -1, multiplicity = 1:

       Center              X                  Y                   Z               Mass
    ------------   -----------------  -----------------  -----------------  -----------------
         O            0.000000000000     0.000000000000     0.000000000000    15.994914619570
         H           -0.146863845292     1.805013482706     0.000000000000     1.007825032230
         H            1.849078116499    -0.207299176510     0.000000000000     1.007825032230
         BR           6.069925036895     0.000000000000     0.000000000000    78.918337600000

  Charge       = -1
  Multiplicity = 1
  Basis Set: AUG-CC-PVTZ
    Blend: AUG-CC-PVTZ
  Basis Set: (AUG-CC-PVTZ AUX)
    Blend: AUG-CC-PVTZ-JKFIT

    Orbital Energies [Eh]
    ---------------------

    Doubly Occupied:

       1A   -489.741466     2A    -64.881761     3A    -58.236239
       4A    -58.236231     5A    -58.236229     6A    -20.384553
       7A     -9.554249     8A     -7.161810     9A     -7.161614
      10A     -7.161560    11A     -2.903453    12A     -2.903380
      13A     -2.903315    14A     -2.903140    15A     -2.903135
      16A     -1.168322    17A     -0.713727    18A     -0.524296
      19A     -0.415309    20A     -0.330543    21A     -0.167330
      22A     -0.162463    23A     -0.161876

  @DF-RHF Final Energy: -2648.60738345139680

   => Energetics <=

    Nuclear Repulsion Energy =             68.8877679093331494
    One-Electron Energy =               -3837.1582993154952419
    Two-Electron Energy =                1119.6631479547654635
    Total Energy =                      -2648.6073834513967995
 Dipole X            :       -219.1115640          214.1495906           -4.9619734
 Dipole Y            :         -1.1011562            1.5977143            0.4965581
 Dipole Z            :          0.0000000            0.0000000            0.0000000
 Magnitude           :                                                    4.9867575
  Basis Set: (AUG-CC-PVTZ AUX)
    Blend: AUG-CC-PVTZ-RI
	 Reference Energy          =   -2648.6073834513967995 [Eh]
	 Singles Energy            =      -0.0000000000000000 [Eh]
	 Same-Spin Energy          =      -0.1598587582593755 [Eh]
	 Opposite-Spin Energy      =      -0.4235522801483451 [Eh]
	 Correlation Energy        =      -0.5834110384077206 [Eh]
	 Total Energy              =   -2649.1907944898043752 [Eh]

	 ================> DF-SCS-MP2 Energies <==================
	-----------------------------------------------------------
	 SCS Same-Spin Scale       =       0.3333333333333333 [-]
	 SCS Opposite-Spin Scale   =       1.2000000000000000 [-]
	 SCS Same-Spin Energy      =      -0.0532862527531252 [Eh]
	 SCS Opposite-Spin Energy  =      -0.5082627361780141 [Eh]
	 SCS Correlation Energy    =      -0.5615489889311392 [Eh]
	 SCS Total Energy          =   -2649.1689324403278079 [Eh]
	-----------------------------------------------------------

*** Psi4 exiting successfully. Buy a developer a beer!
