                               Psi4 1.9 release

  ==> Input File <==

--------------------------------------------------------------------------
MEMORY 60 GB

molecule dimer {
0 1
O      0.000000     0.000000     0.000000
H     -0.077717     0.955172     0.000000
H      0.978490    -0.109698     0.000000
--
-1 1
Br     3.854479     0.000000     0.000000

units ang
no_reorient
no_com
symmetry c1
}

set {
basis        aug-cc-pVTZ
scf_type     df
}

energy("mp2", bsse_type="cp")
--------------------------------------------------------------------------

                               Psi4 1.9 release
    Molecular point group: c1
  Charge       = -1
  Multiplicity = 1
  Basis Set: AUG-CC-PVTZ
    Blend: AUG-CC-PVTZ
  Basis Set: (AUG-CC-PVTZ AUX)
    Blend: AUG-CC-PVTZ-JKFIT
  @DF-RHF Final Energy: -2572.53367590095331
    Total Energy =                      -2572.5336759009533125
 Dipole X            :       -262.2210494          254.9368383           -7.2842111
 Dipole Y            :         -0.0001252            0.0000000           -0.0001252
 Dipole Z            :          0.0000000            0.0000000            0.0000000
 Magnitude           :                                                    7.2842111
  Basis Set: (AUG-CC-PVTZ AUX)
    Blend: AUG-CC-PVTZ-RI
	 Reference Energy          =   -2572.5336759009533125 [Eh]
	 Singles Energy            =      -0.0000000000000000 [Eh]
	 Same-Spin Energy          =      -0.0872714940722940 [Eh]
	 Opposite-Spin Energy      =      -0.2024408092035941 [Eh]
	 Correlation Energy        =      -0.2897123032758880 [Eh]
	 Total Energy              =   -2572.8233882042291043 [Eh]
	 SCS Total Energy          =   -2572.8056953700215672 [Eh]
                               Psi4 1.9 release
    Molecular point group: c1
  Multiplicity = 1
  Basis Set: AUG-CC-PVTZ
    Blend: AUG-CC-PVTZ
  Basis Set: (AUG-CC-PVTZ AUX)
    Blend: AUG-CC-PVTZ-JKFIT
  @DF-RHF Final Energy:   -76.05853670505937
    Total Energy =                        -76.0585367050593533
  Basis Set: (AUG-CC-PVTZ AUX)
	 Singles Energy            =      -0.0000000000000000 [Eh]
	 Same-Spin Energy          =      -0.0686823216231504 [Eh]
	 Opposite-Spin Energy      =      -0.2164065672240741 [Eh]
	 Correlation Energy        =      -0.2850888888472245 [Eh]
	 Total Energy              =     -76.3436255939065944 [Eh]
	 SCS Total Energy          =     -76.3411186929359786 [Eh]
                               Psi4 1.9 release
    Molecular point group: c1

    Geometry (in Bohr), charge = -1, multiplicity = 1:

       Center              X                  Y                   Z               Mass
    ------------   -----------------  -----------------  -----------------  -----------------
         O            0.000000000000     0.000000000000     0.000000000000    15.994914619570
         H           -0.146863845292     1.805013482706     0.000000000000     1.007825032230
         H            1.849078116499    -0.207299176510     0.000000000000     1.007825032230
         BR           7.283909666329     0.000000000000     0.000000000000    78.918337600000

  Charge       = -1
  Multiplicity = 1
  Basis Set: AUG-CC-PVTZ
    Blend: AUG-CC-PVTZ
  Basis Set: (AUG-CC-PVTZ AUX)
    Blend: AUG-CC-PVTZ-JKFIT

    Orbital Energies [Eh]
    ---------------------

    Doubly Occupied:

       1A   -489.736874     2A    -64.876963     3A    -58.231460
       4A    -58.231434     5A    -58.231429     6A    -20.421215
       7A     -9.549313     8A     -7.156804     9A     -7.156623
      10A     -7.156599    11A     -2.898495    12A     -2.898435
      13A     -2.898405    14A     -2.898169    15A     -2.898168
      16A     -1.200949    17A     -0.703640    18A     -0.555498
      19A     -0.444671    20A     -0.363593    21A     -0.159161
      22A     -0.155804    23A     -0.155621

  @DF-RHF Final Energy: -2648.60779757598630

   => Energetics <=

    Nuclear Repulsion Energy =             58.5230677935590364
    One-Electron Energy =               -3816.3030849708147798
    Two-Electron Energy =                1109.1722196012694894
    Total Energy =                      -2648.6077975759862966
 Dipole X            :       -262.9630874          256.6390526           -6.3240348
 Dipole Y            :         -1.0836562            1.5977143            0.5140581
 Dipole Z            :         -0.0000000            0.0000000           -0.0000000
 Magnitude           :                                                    6.3448934
  Basis Set: (AUG-CC-PVTZ AUX)
    Blend: AUG-CC-PVTZ-RI
	 Reference Energy          =   -2648.6077975759862966 [Eh]
	 Singles Energy            =      -0.0000000000000000 [Eh]
	 Same-Spin Energy          =      -0.1570263022588674 [Eh]
	 Opposite-Spin Energy      =      -0.4194360033743045 [Eh]
	 Correlation Energy        =      -0.5764623056331719 [Eh]
	 Total Energy              =   -2649.1842598816192549 [Eh]

	 ================> DF-SCS-MP2 Energies <==================
	-----------------------------------------------------------
	 SCS Same-Spin Scale       =       0.3333333333333333 [-]
	 SCS Opposite-Spin Scale   =       1.2000000000000000 [-]
	 SCS Same-Spin Energy      =      -0.0523421007529558 [Eh]
	 SCS Opposite-Spin Energy  =      -0.5033232040491653 [Eh]
	 SCS Correlation Energy    =      -0.5556653048021212 [Eh]
	 SCS Total Energy          =   -2649.1634628807883018 [Eh]
	-----------------------------------------------------------

*** Psi4 exiting successfully. Buy a developer a beer!
