                               Psi4 1.9 release

  ==> Input File <==

--------------------------------------------------------------------------
MEMORY 60 GB

molecule dimer {
0 1
O      0.000000     0.000000     0.000000
H     -0.077717     0.955172     0.000000
H      0.978490    -0.109698     0.000000
--
-1 1
Br     4.818099     0.000000     0.000000

units ang
no_reorient
no_com
symmetry c1
}

set {
basis        aug-cc-pVTZ
scf_type     df
}

energy("mp2", bsse_type="cp")
--------------------------------------------------------------------------

                               Psi4 1.9 release
    Molecular point group: c1
  Charge       = -1
  Multiplicity = 1
  Basis Set: AUG-CC-PVTZ
    Blend: AUG-CC-PVTZ
  Basis Set: (AUG-CC-PVTZ AUX)
    Blend: AUG-CC-PVTZ-JKFIT
  @DF-RHF Final Energy: -2572.53366997977764
    Total Energy =                      -2572.5336699797776419
 Dipole X            :       -327.7757846          318.6710644           -9.1047201
 Dipole Y            :         -0.0000361            0.0000000           -0.0000361
 Dipole Z            :          0.0000000            0.0000000            0.0000000
 Magnitude           :                                                    9.1047201
  Basis Set: (AUG-CC-PVTZ AUX)
    Blend: AUG-CC-PVTZ-RI
	 Reference Energy          =   -2572.5336699797776419 [Eh]
	 Singles Energy            =      -0.0000000000000000 [Eh]
	 Same-Spin Energy          =      -0.0868480069912038 [Eh]
	 Opposite-Spin Energy      =      -0.2013664624523531 [Eh]
	 Correlation Energy        =      -0.2882144694435569 [Eh]
	 Total Energy              =   -2572.8218844492212156 [Eh]
	 SCS Total Energy          =   -2572.8042590703839778 [Eh]
                               Psi4 1.9 release
    Molecular point group: c1
  Multiplicity = 1
  Basis Set: AUG-CC-PVTZ
    Blend: AUG-CC-PVTZ
  Basis Set: (AUG-CC-PVTZ AUX)
    Blend: AUG-CC-PVTZ-JKFIT
  @DF-RHF Final Energy:   -76.05853036647302
    Total Energy =                        -76.0585303664730219
  Basis Set: (AUG-CC-PVTZ AUX)
	 Singles Energy            =      -0.0000000000000000 [Eh]
	 Same-Spin Energy          =      -0.0686678365735182 [Eh]
	 Opposite-Spin Energy      =      -0.2161715539641187 [Eh]
	 Correlation Energy        =      -0.2848393905376368 [Eh]
	 Total Energy              =     -76.3433697570106631 [Eh]
	 SCS Total Energy          =     -76.3408255100877966 [Eh]
                               Psi4 1.9 release
    Molecular point group: c1

    Geometry (in Bohr), charge = -1, multiplicity = 1:

       Center              X                  Y                   Z               Mass
    ------------   -----------------  -----------------  -----------------  -----------------
         O            0.000000000000     0.000000000000     0.000000000000    15.994914619570
         H           -0.146863845292     1.805013482706     0.000000000000     1.007825032230
         H            1.849078116499    -0.207299176510     0.000000000000     1.007825032230
         BR           9.104887555342     0.000000000000     0.000000000000    78.918337600000

  Charge       = -1
  Multiplicity = 1
  Basis Set: AUG-CC-PVTZ
    Blend: AUG-CC-PVTZ
  Basis Set: (AUG-CC-PVTZ AUX)
    Blend: AUG-CC-PVTZ-JKFIT

    Orbital Energies [Eh]
    ---------------------

    Doubly Occupied:

       1A   -489.730745     2A    -64.870837     3A    -58.225322
       4A    -58.225299     5A    -58.225297     6A    -20.454702
       7A     -9.543235     8A     -7.150661     9A     -7.150538
      10A     -7.150531    11A     -2.892346    12A     -2.892302
      13A     -2.892293    14A     -2.892135    15A     -2.892134
      16A     -1.233308    17A     -0.696471    18A     -0.587668
      19A     -0.475399    20A     -0.395554    21A     -0.150594
      22A     -0.149493    23A     -0.149441

  @DF-RHF Final Energy: -2648.60203548233585

   => Energetics <=

    Nuclear Repulsion Energy =             48.3573970358798846
    One-Electron Energy =               -3795.8662586209452456
    Two-Electron Energy =                1098.9068261027293829
    Total Energy =                      -2648.6020354823358502
 Dipole X            :       -328.6685964          320.3732787           -8.2953177
 Dipole Y            :         -1.0679107            1.5977143            0.5298036
 Dipole Z            :         -0.0000000            0.0000000           -0.0000000
 Magnitude           :                                                    8.3122191
  Basis Set: (AUG-CC-PVTZ AUX)
    Blend: AUG-CC-PVTZ-RI
	 Reference Energy          =   -2648.6020354823358502 [Eh]
	 Singles Energy            =      -0.0000000000000000 [Eh]
	 Same-Spin Energy          =      -0.1557325604388917 [Eh]
	 Opposite-Spin Energy      =      -0.4174617256071399 [Eh]
	 Correlation Energy        =      -0.5731942860460315 [Eh]
	 Total Energy              =   -2649.1752297683819961 [Eh]

	 ================> DF-SCS-MP2 Energies <==================
	-----------------------------------------------------------
	 SCS Same-Spin Scale       =       0.3333333333333333 [-]
	 SCS Opposite-Spin Scale   =       1.2000000000000000 [-]
	 SCS Same-Spin Energy      =      -0.0519108534796306 [Eh]
	 SCS Opposite-Spin Energy  =      -0.5009540707285679 [Eh]
	 SCS Correlation Energy    =      -0.5528649242081984 [Eh]
	 SCS Total Energy          =   -2649.1549004065441295 [Eh]
	-----------------------------------------------------------

*** Psi4 exiting successfully. Buy a developer a beer!
