                               Psi4 1.9 release

  ==> Input File <==

--------------------------------------------------------------------------
MEMORY 60 GB

molecule dimer {
0 1
O      0.000000     0.000000     0.000000
H     -0.077717     0.955172     0.000000
H      0.978490    -0.109698     0.000000
--
-1 1
Br     2.569653     0.000000     0.000000

units ang
no_reorient
no_com
symmetry c1
}

set {
basis        aug-cc-pVTZ
scf_type     df
}

energy("mp2", bsse_type="cp")
--------------------------------------------------------------------------

                               Psi4 1.9 release
    Molecular point group: c1
  Charge       = -1
  Multiplicity = 1
  Basis Set: AUG-CC-PVTZ
    Blend: AUG-CC-PVTZ
  Basis Set: (AUG-CC-PVTZ AUX)
    Blend: AUG-CC-PVTZ-JKFIT
  @DF-RHF Final Energy: -2572.53370231785902
    Total Energy =                      -2572.5337023178590243
 Dipole X            :       -174.8138551          169.9579143           -4.8559408
 Dipole Y            :         -0.0003285            0.0000000           -0.0003285
 Dipole Z            :          0.0000000            0.0000000            0.0000000
 Magnitude           :                                                    4.8559408
  Basis Set: (AUG-CC-PVTZ AUX)
    Blend: AUG-CC-PVTZ-RI
	 Reference Energy          =   -2572.5337023178590243 [Eh]
	 Singles Energy            =      -0.0000000000000000 [Eh]
	 Same-Spin Energy          =      -0.0898011550045780 [Eh]
	 Opposite-Spin Energy      =      -0.2096769694011505 [Eh]
	 Correlation Energy        =      -0.2994781244057285 [Eh]
	 Total Energy              =   -2572.8331804422646201 [Eh]
	 SCS Total Energy          =   -2572.8152483994754220 [Eh]
                               Psi4 1.9 release
    Molecular point group: c1
  Multiplicity = 1
  Basis Set: AUG-CC-PVTZ
    Blend: AUG-CC-PVTZ
  Basis Set: (AUG-CC-PVTZ AUX)
    Blend: AUG-CC-PVTZ-JKFIT
  @DF-RHF Final Energy:   -76.05859731686506
    Total Energy =                        -76.0585973168650469
  Basis Set: (AUG-CC-PVTZ AUX)
	 Singles Energy            =      -0.0000000000000000 [Eh]
	 Same-Spin Energy          =      -0.0687273637842442 [Eh]
	 Opposite-Spin Energy      =      -0.2169491089297345 [Eh]
	 Correlation Energy        =      -0.2856764727139787 [Eh]
	 Total Energy              =     -76.3442737895790344 [Eh]
	 SCS Total Energy          =     -76.3418453688421579 [Eh]
                               Psi4 1.9 release
    Molecular point group: c1

    Geometry (in Bohr), charge = -1, multiplicity = 1:

       Center              X                  Y                   Z               Mass
    ------------   -----------------  -----------------  -----------------  -----------------
         O            0.000000000000     0.000000000000     0.000000000000    15.994914619570
         H           -0.146863845292     1.805013482706     0.000000000000     1.007825032230
         H            1.849078116499    -0.207299176510     0.000000000000     1.007825032230
         BR           4.855940407461     0.000000000000     0.000000000000    78.918337600000

  Charge       = -1
  Multiplicity = 1
  Basis Set: AUG-CC-PVTZ
    Blend: AUG-CC-PVTZ
  Basis Set: (AUG-CC-PVTZ AUX)
    Blend: AUG-CC-PVTZ-JKFIT

    Orbital Energies [Eh]
    ---------------------

    Doubly Occupied:

       1A   -489.742670     2A    -64.884593     3A    -58.238915
       4A    -58.238894     5A    -58.238875     6A    -20.325278
       7A     -9.558807     8A     -7.167102     9A     -7.166018
      10A     -7.165900    11A     -2.908493    12A     -2.907928
      13A     -2.907789    14A     -2.907384    15A     -2.907378
      16A     -1.130110    17A     -0.744768    18A     -0.490986
      19A     -0.383176    20A     -0.286908    21A     -0.173188
      22A     -0.169046    23A     -0.158378

  @DF-RHF Final Energy: -2648.55353615588092

   => Energetics <=

    Nuclear Repulsion Energy =             84.9245192228997325
    One-Electron Energy =               -3869.3509451248651203
    Two-Electron Energy =                1135.8728897460848657
    Total Energy =                      -2648.5535361558804652
 Dipole X            :       -175.2355820          171.6601285           -3.5754534
 Dipole Y            :         -1.1327761            1.5977143            0.4649382
 Dipole Z            :          0.0000000            0.0000000            0.0000000
 Magnitude           :                                                    3.6055561
  Basis Set: (AUG-CC-PVTZ AUX)
    Blend: AUG-CC-PVTZ-RI
	 Reference Energy          =   -2648.5535361558809200 [Eh]
	 Singles Energy            =      -0.0000000000000000 [Eh]
	 Same-Spin Energy          =      -0.1671159904471735 [Eh]
	 Opposite-Spin Energy      =      -0.4337972802012773 [Eh]
	 Correlation Energy        =      -0.6009132706484508 [Eh]
	 Total Energy              =   -2649.1544494265294816 [Eh]

	 ================> DF-SCS-MP2 Energies <==================
	-----------------------------------------------------------
	 SCS Same-Spin Scale       =       0.3333333333333333 [-]
	 SCS Opposite-Spin Scale   =       1.2000000000000000 [-]
	 SCS Same-Spin Energy      =      -0.0557053301490578 [Eh]
	 SCS Opposite-Spin Energy  =      -0.5205567362415328 [Eh]
	 SCS Correlation Energy    =      -0.5762620663905906 [Eh]
	 SCS Total Energy          =   -2649.1297982222713472 [Eh]
	-----------------------------------------------------------

*** Psi4 exiting successfully. Buy a developer a beer!
