                               Psi4 1.9 release

  ==> Input File <==

--------------------------------------------------------------------------
MEMORY 60 GB

molecule dimer {
0 1
O      0.000000     0.000000     0.000000
H     -0.077717     0.955172     0.000000
H      0.978490    -0.109698     0.000000
--
-1 1
Br     3.051463     0.000000     0.000000

units ang
no_reorient
no_com
symmetry c1
}

set {
basis        aug-cc-pVTZ
scf_type     df
}

energy("mp2", bsse_type="cp")
--------------------------------------------------------------------------

                               Psi4 1.9 release
    Molecular point group: c1
  Charge       = -1
  Multiplicity = 1
  Basis Set: AUG-CC-PVTZ
    Blend: AUG-CC-PVTZ
  Basis Set: (AUG-CC-PVTZ AUX)
    Blend: AUG-CC-PVTZ-JKFIT
  @DF-RHF Final Energy: -2572.53368668476196
    Total Energy =                      -2572.5336866847619604
 Dipole X            :       -207.5915401          201.8250273           -5.7665128
 Dipole Y            :         -0.0002714            0.0000000           -0.0002714
 Dipole Z            :          0.0000000            0.0000000            0.0000000
 Magnitude           :                                                    5.7665128
  Basis Set: (AUG-CC-PVTZ AUX)
    Blend: AUG-CC-PVTZ-RI
	 Reference Energy          =   -2572.5336866847619604 [Eh]
	 Singles Energy            =      -0.0000000000000000 [Eh]
	 Same-Spin Energy          =      -0.0883658770277947 [Eh]
	 Opposite-Spin Energy      =      -0.2054621603600097 [Eh]
	 Correlation Energy        =      -0.2938280373878045 [Eh]
	 Total Energy              =   -2572.8275147221497718 [Eh]
	 SCS Total Energy          =   -2572.8096965695367544 [Eh]
                               Psi4 1.9 release
    Molecular point group: c1
  Multiplicity = 1
  Basis Set: AUG-CC-PVTZ
    Blend: AUG-CC-PVTZ
  Basis Set: (AUG-CC-PVTZ AUX)
    Blend: AUG-CC-PVTZ-JKFIT
  @DF-RHF Final Energy:   -76.05855763773417
    Total Energy =                        -76.0585576377341681
  Basis Set: (AUG-CC-PVTZ AUX)
	 Singles Energy            =      -0.0000000000000000 [Eh]
	 Same-Spin Energy          =      -0.0687030741461092 [Eh]
	 Opposite-Spin Energy      =      -0.2167101596787362 [Eh]
	 Correlation Energy        =      -0.2854132338248454 [Eh]
	 Total Energy              =     -76.3439708715590086 [Eh]
	 SCS Total Energy          =     -76.3415108540640261 [Eh]
                               Psi4 1.9 release
    Molecular point group: c1

    Geometry (in Bohr), charge = -1, multiplicity = 1:

       Center              X                  Y                   Z               Mass
    ------------   -----------------  -----------------  -----------------  -----------------
         O            0.000000000000     0.000000000000     0.000000000000    15.994914619570
         H           -0.146863845292     1.805013482706     0.000000000000     1.007825032230
         H            1.849078116499    -0.207299176510     0.000000000000     1.007825032230
         BR           5.766429351968     0.000000000000     0.000000000000    78.918337600000

  Charge       = -1
  Multiplicity = 1
  Basis Set: AUG-CC-PVTZ
    Blend: AUG-CC-PVTZ
  Basis Set: (AUG-CC-PVTZ AUX)
    Blend: AUG-CC-PVTZ-JKFIT

    Orbital Energies [Eh]
    ---------------------

    Doubly Occupied:

       1A   -489.742310     2A    -64.882775     3A    -58.237246
       4A    -58.237234     5A    -58.237223     6A    -20.372293
       7A     -9.555421     8A     -7.163033     9A     -7.162800
      10A     -7.162735    11A     -2.904643    12A     -2.904546
      13A     -2.904466    14A     -2.904318    15A     -2.904311
      16A     -1.158554    17A     -0.718187    18A     -0.515405
      19A     -0.407014    20A     -0.320260    21A     -0.168570
      22A     -0.164572    23A     -0.163752

  @DF-RHF Final Energy: -2648.60345705556847

   => Energetics <=

    Nuclear Repulsion Energy =             72.2099123123967388
    One-Electron Energy =               -3843.8434041122686722
    Two-Electron Energy =                1123.0300347443035207
    Total Energy =                      -2648.6034570555684695
 Dipole X            :       -208.1428200          203.5272416           -4.6155784
 Dipole Y            :         -1.1072775            1.5977143            0.4904368
 Dipole Z            :          0.0000000            0.0000000            0.0000000
 Magnitude           :                                                    4.6415614
  Basis Set: (AUG-CC-PVTZ AUX)
    Blend: AUG-CC-PVTZ-RI
	 Reference Energy          =   -2648.6034570555684695 [Eh]
	 Singles Energy            =      -0.0000000000000000 [Eh]
	 Same-Spin Energy          =      -0.1610525138185597 [Eh]
	 Opposite-Spin Energy      =      -0.4251734375901229 [Eh]
	 Correlation Energy        =      -0.5862259514086825 [Eh]
	 Total Energy              =   -2649.1896830069772477 [Eh]

	 ================> DF-SCS-MP2 Energies <==================
	-----------------------------------------------------------
	 SCS Same-Spin Scale       =       0.3333333333333333 [-]
	 SCS Opposite-Spin Scale   =       1.2000000000000000 [-]
	 SCS Same-Spin Energy      =      -0.0536841712728532 [Eh]
	 SCS Opposite-Spin Energy  =      -0.5102081251081474 [Eh]
	 SCS Correlation Energy    =      -0.5638922963810006 [Eh]
	 SCS Total Energy          =   -2649.1673493519492695 [Eh]
	-----------------------------------------------------------

*** Psi4 exiting successfully. Buy a developer a beer!
