                               Psi4 1.9 release

  ==> Input File <==

--------------------------------------------------------------------------
MEMORY 60 GB

molecule dimer {
0 1
O      0.000000     0.000000     0.000000
H     -0.077717     0.955172     0.000000
H      0.978490    -0.109698     0.000000
--
-1 1
Br     6.424132     0.000000     0.000000

units ang
no_reorient
no_com
symmetry c1
}

set {
basis        aug-cc-pVTZ
scf_type     df
}

energy("mp2", bsse_type="cp")
--------------------------------------------------------------------------

                               Psi4 1.9 release
    Molecular point group: c1
  Charge       = -1
  Multiplicity = 1
  Basis Set: AUG-CC-PVTZ
    Blend: AUG-CC-PVTZ
  Basis Set: (AUG-CC-PVTZ AUX)
    Blend: AUG-CC-PVTZ-JKFIT
  @DF-RHF Final Energy: -2572.53366666229795
    Total Energy =                      -2572.5336666622979465
 Dipole X            :       -437.0345897          424.8947526          -12.1398371
 Dipole Y            :         -0.0000203            0.0000000           -0.0000203
 Dipole Z            :         -0.0000000            0.0000000           -0.0000000
 Magnitude           :                                                   12.1398371
  Basis Set: (AUG-CC-PVTZ AUX)
    Blend: AUG-CC-PVTZ-RI
	 Reference Energy          =   -2572.5336666622979465 [Eh]
	 Singles Energy            =      -0.0000000000000000 [Eh]
	 Same-Spin Energy          =      -0.0866882532257041 [Eh]
	 Opposite-Spin Energy      =      -0.2010191143607269 [Eh]
	 Correlation Energy        =      -0.2877073675864310 [Eh]
	 Total Energy              =   -2572.8213740298842822 [Eh]
	 SCS Total Energy          =   -2572.8037856839391679 [Eh]
                               Psi4 1.9 release
    Molecular point group: c1
  Multiplicity = 1
  Basis Set: AUG-CC-PVTZ
    Blend: AUG-CC-PVTZ
  Basis Set: (AUG-CC-PVTZ AUX)
    Blend: AUG-CC-PVTZ-JKFIT
  @DF-RHF Final Energy:   -76.05852456504618
    Total Energy =                        -76.0585245650461843
  Basis Set: (AUG-CC-PVTZ AUX)
	 Singles Energy            =      -0.0000000000000000 [Eh]
	 Same-Spin Energy          =      -0.0686641096028800 [Eh]
	 Opposite-Spin Energy      =      -0.2161305342684907 [Eh]
	 Correlation Energy        =      -0.2847946438713707 [Eh]
	 Total Energy              =     -76.3433192089175492 [Eh]
	 SCS Total Energy          =     -76.3407692427026632 [Eh]
                               Psi4 1.9 release
    Molecular point group: c1

    Geometry (in Bohr), charge = -1, multiplicity = 1:

       Center              X                  Y                   Z               Mass
    ------------   -----------------  -----------------  -----------------  -----------------
         O            0.000000000000     0.000000000000     0.000000000000    15.994914619570
         H           -0.146863845292     1.805013482706     0.000000000000     1.007825032230
         H            1.849078116499    -0.207299176510     0.000000000000     1.007825032230
         BR          12.139850073790     0.000000000000     0.000000000000    78.918337600000

  Charge       = -1
  Multiplicity = 1
  Basis Set: AUG-CC-PVTZ
    Blend: AUG-CC-PVTZ
  Basis Set: (AUG-CC-PVTZ AUX)
    Blend: AUG-CC-PVTZ-JKFIT

    Orbital Energies [Eh]
    ---------------------

    Doubly Occupied:

       1A   -489.725533     2A    -64.865639     3A    -58.220109
       4A    -58.220102     5A    -58.220102     6A    -20.485638
       7A     -9.538068     8A     -7.145435     9A     -7.145394
      10A     -7.145393    11A     -2.887105    12A     -2.887090
      13A     -2.887089    14A     -2.887038    15A     -2.887038
      16A     -1.263870    17A     -0.691226    18A     -0.618310
      19A     -0.505012    20A     -0.425660    21A     -0.144734
      22A     -0.144480    23A     -0.144470

  @DF-RHF Final Energy: -2648.59716981870497

   => Energetics <=

    Nuclear Repulsion Energy =             38.3531750315883144
    One-Electron Energy =               -3775.7316102020463404
    Two-Electron Energy =                1088.7812653517532908
    Total Energy =                      -2648.5971698187049697
 Dipole X            :       -438.0473617          426.5969669          -11.4503948
 Dipole Y            :         -1.0549080            1.5977143            0.5428063
 Dipole Z            :          0.0000000            0.0000000            0.0000000
 Magnitude           :                                                   11.4632535
  Basis Set: (AUG-CC-PVTZ AUX)
    Blend: AUG-CC-PVTZ-RI
	 Reference Energy          =   -2648.5971698187049697 [Eh]
	 Singles Energy            =      -0.0000000000000000 [Eh]
	 Same-Spin Energy          =      -0.1553522505650871 [Eh]
	 Opposite-Spin Energy      =      -0.4169858831909202 [Eh]
	 Correlation Energy        =      -0.5723381337560072 [Eh]
	 Total Energy              =   -2649.1695079524611174 [Eh]

	 ================> DF-SCS-MP2 Energies <==================
	-----------------------------------------------------------
	 SCS Same-Spin Scale       =       0.3333333333333333 [-]
	 SCS Opposite-Spin Scale   =       1.2000000000000000 [-]
	 SCS Same-Spin Energy      =      -0.0517840835216957 [Eh]
	 SCS Opposite-Spin Energy  =      -0.5003830598291041 [Eh]
	 SCS Correlation Energy    =      -0.5521671433507999 [Eh]
	 SCS Total Energy          =   -2649.1493369620557132 [Eh]
	-----------------------------------------------------------

*** Psi4 exiting successfully. Buy a developer a beer!
