                               Psi4 1.9 release

  ==> Input File <==

--------------------------------------------------------------------------
MEMORY 60 GB

molecule dimer {
0 1
O      0.000000     0.000000     0.000000
H     -0.077717     0.955172     0.000000
H      0.978490    -0.109698     0.000000
--
-1 1
Br     4.496892     0.000000     0.000000

units ang
no_reorient
no_com
symmetry c1
}

set {
basis        aug-cc-pVTZ
scf_type     df
}

energy("mp2", bsse_type="cp")
--------------------------------------------------------------------------

                               Psi4 1.9 release
    Molecular point group: c1
  Charge       = -1
  Multiplicity = 1
  Basis Set: AUG-CC-PVTZ
    Blend: AUG-CC-PVTZ
  Basis Set: (AUG-CC-PVTZ AUX)
    Blend: AUG-CC-PVTZ-JKFIT
  @DF-RHF Final Energy: -2572.53367079542568
    Total Energy =                      -2572.5336707954261328
 Dipole X            :       -305.9241418          297.4263004           -8.4978415
 Dipole Y            :         -0.0000367            0.0000000           -0.0000367
 Dipole Z            :         -0.0000000            0.0000000           -0.0000000
 Magnitude           :                                                    8.4978415
  Basis Set: (AUG-CC-PVTZ AUX)
    Blend: AUG-CC-PVTZ-RI
	 Reference Energy          =   -2572.5336707954256781 [Eh]
	 Singles Energy            =      -0.0000000000000000 [Eh]
	 Same-Spin Energy          =      -0.0869236240243511 [Eh]
	 Opposite-Spin Energy      =      -0.2015462008176872 [Eh]
	 Correlation Energy        =      -0.2884698248420383 [Eh]
	 Total Energy              =   -2572.8221406202678736 [Eh]
	 SCS Total Energy          =   -2572.8045007777482169 [Eh]
                               Psi4 1.9 release
    Molecular point group: c1
  Multiplicity = 1
  Basis Set: AUG-CC-PVTZ
    Blend: AUG-CC-PVTZ
  Basis Set: (AUG-CC-PVTZ AUX)
    Blend: AUG-CC-PVTZ-JKFIT
  @DF-RHF Final Energy:   -76.05853104735209
    Total Energy =                        -76.0585310473520906
  Basis Set: (AUG-CC-PVTZ AUX)
	 Singles Energy            =      -0.0000000000000000 [Eh]
	 Same-Spin Energy          =      -0.0686703789414501 [Eh]
	 Opposite-Spin Energy      =      -0.2162161577828032 [Eh]
	 Correlation Energy        =      -0.2848865367242532 [Eh]
	 Total Energy              =     -76.3434175840763487 [Eh]
	 SCS Total Energy          =     -76.3408805630052711 [Eh]
                               Psi4 1.9 release
    Molecular point group: c1

    Geometry (in Bohr), charge = -1, multiplicity = 1:

       Center              X                  Y                   Z               Mass
    ------------   -----------------  -----------------  -----------------  -----------------
         O            0.000000000000     0.000000000000     0.000000000000    15.994914619570
         H           -0.146863845292     1.805013482706     0.000000000000     1.007825032230
         H            1.849078116499    -0.207299176510     0.000000000000     1.007825032230
         BR           8.497894295762     0.000000000000     0.000000000000    78.918337600000

  Charge       = -1
  Multiplicity = 1
  Basis Set: AUG-CC-PVTZ
    Blend: AUG-CC-PVTZ
  Basis Set: (AUG-CC-PVTZ AUX)
    Blend: AUG-CC-PVTZ-JKFIT

    Orbital Energies [Eh]
    ---------------------

    Doubly Occupied:

       1A   -489.732501     2A    -64.872587     3A    -58.227076
       4A    -58.227049     5A    -58.227047     6A    -20.445428
       7A     -9.544972     8A     -7.152419     9A     -7.152271
      10A     -7.152260    11A     -2.894111    12A     -2.894056
      13A     -2.894043    14A     -2.893851    15A     -2.893850
      16A     -1.224224    17A     -0.698334    18A     -0.578579
      19A     -0.466678    20A     -0.386609    21A     -0.152811
      22A     -0.151216    23A     -0.151140

  @DF-RHF Final Energy: -2648.60373264201735

   => Energetics <=

    Nuclear Repulsion Energy =             51.2439722470926000
    One-Electron Energy =               -3801.6691816132633903
    Two-Electron Energy =                1101.8214767241533991
    Total Energy =                      -2648.6037326420173486
 Dipole X            :       -306.7753215          299.1285146           -7.6468069
 Dipole Y            :         -1.0721911            1.5977143            0.5255232
 Dipole Z            :          0.0000000            0.0000000            0.0000000
 Magnitude           :                                                    7.6648438
  Basis Set: (AUG-CC-PVTZ AUX)
    Blend: AUG-CC-PVTZ-RI
	 Reference Energy          =   -2648.6037326420173486 [Eh]
	 Singles Energy            =      -0.0000000000000000 [Eh]
	 Same-Spin Energy          =      -0.1559654901234638 [Eh]
	 Opposite-Spin Energy      =      -0.4177954800419169 [Eh]
	 Correlation Energy        =      -0.5737609701653806 [Eh]
	 Total Energy              =   -2649.1774936121828432 [Eh]

	 ================> DF-SCS-MP2 Energies <==================
	-----------------------------------------------------------
	 SCS Same-Spin Scale       =       0.3333333333333333 [-]
	 SCS Opposite-Spin Scale   =       1.2000000000000000 [-]
	 SCS Same-Spin Energy      =      -0.0519884967078212 [Eh]
	 SCS Opposite-Spin Energy  =      -0.5013545760503003 [Eh]
	 SCS Correlation Energy    =      -0.5533430727581216 [Eh]
	 SCS Total Energy          =   -2649.1570757147756012 [Eh]
	-----------------------------------------------------------

*** Psi4 exiting successfully. Buy a developer a beer!
