                               Psi4 1.9 release

  ==> Input File <==

--------------------------------------------------------------------------
MEMORY 60 GB

molecule dimer {
0 1
O      0.000000     0.000000     0.000000
H     -0.077717     0.955172     0.000000
H      0.978490    -0.109698     0.000000
--
-1 1
Br     3.533273     0.000000     0.000000

units ang
no_reorient
no_com
symmetry c1
}

set {
basis        aug-cc-pVTZ
scf_type     df
}

energy("mp2", bsse_type="cp")
--------------------------------------------------------------------------

                               Psi4 1.9 release
    Molecular point group: c1
  Charge       = -1
  Multiplicity = 1
  Basis Set: AUG-CC-PVTZ
    Blend: AUG-CC-PVTZ
  Basis Set: (AUG-CC-PVTZ AUX)
    Blend: AUG-CC-PVTZ-JKFIT
  @DF-RHF Final Energy: -2572.53367957904902
    Total Energy =                      -2572.5336795790490214
 Dipole X            :       -240.3693013          233.6921404           -6.6771609
 Dipole Y            :         -0.0001435            0.0000000           -0.0001435
 Dipole Z            :          0.0000000            0.0000000            0.0000000
 Magnitude           :                                                    6.6771609
  Basis Set: (AUG-CC-PVTZ AUX)
    Blend: AUG-CC-PVTZ-RI
	 Reference Energy          =   -2572.5336795790490214 [Eh]
	 Singles Energy            =      -0.0000000000000000 [Eh]
	 Same-Spin Energy          =      -0.0876232059999660 [Eh]
	 Opposite-Spin Energy      =      -0.2033696562966131 [Eh]
	 Correlation Energy        =      -0.2909928622965792 [Eh]
	 Total Energy              =   -2572.8246724413456832 [Eh]
	 SCS Total Energy          =   -2572.8069309019383581 [Eh]
                               Psi4 1.9 release
    Molecular point group: c1
  Multiplicity = 1
  Basis Set: AUG-CC-PVTZ
    Blend: AUG-CC-PVTZ
  Basis Set: (AUG-CC-PVTZ AUX)
    Blend: AUG-CC-PVTZ-JKFIT
  @DF-RHF Final Energy:   -76.05854280785864
    Total Energy =                        -76.0585428078586432
  Basis Set: (AUG-CC-PVTZ AUX)
	 Singles Energy            =      -0.0000000000000000 [Eh]
	 Same-Spin Energy          =      -0.0686902293071725 [Eh]
	 Opposite-Spin Energy      =      -0.2165413051911374 [Eh]
	 Correlation Energy        =      -0.2852315344983100 [Eh]
	 Total Energy              =     -76.3437743423569515 [Eh]
	 SCS Total Energy          =     -76.3412891171903993 [Eh]
                               Psi4 1.9 release
    Molecular point group: c1

    Geometry (in Bohr), charge = -1, multiplicity = 1:

       Center              X                  Y                   Z               Mass
    ------------   -----------------  -----------------  -----------------  -----------------
         O            0.000000000000     0.000000000000     0.000000000000    15.994914619570
         H           -0.146863845292     1.805013482706     0.000000000000     1.007825032230
         H            1.849078116499    -0.207299176510     0.000000000000     1.007825032230
         BR           6.676918296475     0.000000000000     0.000000000000    78.918337600000

  Charge       = -1
  Multiplicity = 1
  Basis Set: AUG-CC-PVTZ
    Blend: AUG-CC-PVTZ
  Basis Set: (AUG-CC-PVTZ AUX)
    Blend: AUG-CC-PVTZ-JKFIT

    Orbital Energies [Eh]
    ---------------------

    Doubly Occupied:

       1A   -489.739288     2A    -64.879423     3A    -58.233916
       4A    -58.233900     5A    -58.233894     6A    -20.404971
       7A     -9.551785     8A     -7.159299     9A     -7.159117
      10A     -7.159081    11A     -2.900977    12A     -2.900918
      13A     -2.900874    14A     -2.900652    15A     -2.900650
      16A     -1.185973    17A     -0.707668    18A     -0.540943
      19A     -0.430914    20A     -0.348599    21A     -0.163316
      22A     -0.158814    23A     -0.158500

  @DF-RHF Final Energy: -2648.60916509496883

   => Energetics <=

    Nuclear Repulsion Energy =             63.2069056674825376
    One-Electron Energy =               -3825.7251968556915926
    Two-Electron Energy =                1113.9091260932405021
    Total Energy =                      -2648.6091650949683753
 Dipole X            :       -241.0423726          235.3943546           -5.6480179
 Dipole Y            :         -1.0913238            1.5977143            0.5063905
 Dipole Z            :          0.0000000            0.0000000            0.0000000
 Magnitude           :                                                    5.6706735
  Basis Set: (AUG-CC-PVTZ AUX)
    Blend: AUG-CC-PVTZ-RI
	 Reference Energy          =   -2648.6091650949688301 [Eh]
	 Singles Energy            =      -0.0000000000000000 [Eh]
	 Same-Spin Energy          =      -0.1581300429380251 [Eh]
	 Opposite-Spin Energy      =      -0.4211091255335957 [Eh]
	 Correlation Energy        =      -0.5792391684716207 [Eh]
	 Total Energy              =   -2649.1884042634405887 [Eh]

	 ================> DF-SCS-MP2 Energies <==================
	-----------------------------------------------------------
	 SCS Same-Spin Scale       =       0.3333333333333333 [-]
	 SCS Opposite-Spin Scale   =       1.2000000000000000 [-]
	 SCS Same-Spin Energy      =      -0.0527100143126750 [Eh]
	 SCS Opposite-Spin Energy  =      -0.5053309506403149 [Eh]
	 SCS Correlation Energy    =      -0.5580409649529898 [Eh]
	 SCS Total Energy          =   -2649.1672060599216820 [Eh]
	-----------------------------------------------------------

*** Psi4 exiting successfully. Buy a developer a beer!
