                               Psi4 1.9 release

  ==> Input File <==

--------------------------------------------------------------------------
MEMORY 60 GB

molecule dimer {
0 1
O      0.000000     0.000000     0.000000
H     -0.077717     0.955172     0.000000
H      0.978490    -0.109698     0.000000
--
-1 1
Br     3.372669     0.000000     0.000000

units ang
no_reorient
no_com
symmetry c1
}

set {
basis        aug-cc-pVTZ
scf_type     df
}

energy("mp2", bsse_type="cp")
--------------------------------------------------------------------------

                               Psi4 1.9 release
    Molecular point group: c1
  Charge       = -1
  Multiplicity = 1
  Basis Set: AUG-CC-PVTZ
    Blend: AUG-CC-PVTZ
  Basis Set: (AUG-CC-PVTZ AUX)
    Blend: AUG-CC-PVTZ-JKFIT
  @DF-RHF Final Energy: -2572.53368148853815
    Total Energy =                      -2572.5336814885376953
 Dipole X            :       -229.4433174          223.0697253           -6.3735921
 Dipole Y            :         -0.0001596            0.0000000           -0.0001596
 Dipole Z            :         -0.0000000            0.0000000           -0.0000000
 Magnitude           :                                                    6.3735921
  Basis Set: (AUG-CC-PVTZ AUX)
    Blend: AUG-CC-PVTZ-RI
	 Reference Energy          =   -2572.5336814885381500 [Eh]
	 Singles Energy            =      -0.0000000000000000 [Eh]
	 Same-Spin Energy          =      -0.0878439403450619 [Eh]
	 Opposite-Spin Energy      =      -0.2039670717611625 [Eh]
	 Correlation Energy        =      -0.2918110121062244 [Eh]
	 Total Energy              =   -2572.8254925006444864 [Eh]
	 SCS Total Energy          =   -2572.8077232881000782 [Eh]
                               Psi4 1.9 release
    Molecular point group: c1
  Multiplicity = 1
  Basis Set: AUG-CC-PVTZ
    Blend: AUG-CC-PVTZ
  Basis Set: (AUG-CC-PVTZ AUX)
    Blend: AUG-CC-PVTZ-JKFIT
  @DF-RHF Final Energy:   -76.05854646196539
    Total Energy =                        -76.0585464619653919
  Basis Set: (AUG-CC-PVTZ AUX)
	 Singles Energy            =      -0.0000000000000000 [Eh]
	 Same-Spin Energy          =      -0.0686940173480068 [Eh]
	 Opposite-Spin Energy      =      -0.2166051772632783 [Eh]
	 Correlation Energy        =      -0.2852991946112851 [Eh]
	 Total Energy              =     -76.3438456565766757 [Eh]
	 SCS Total Energy          =     -76.3413706804639958 [Eh]
                               Psi4 1.9 release
    Molecular point group: c1

    Geometry (in Bohr), charge = -1, multiplicity = 1:

       Center              X                  Y                   Z               Mass
    ------------   -----------------  -----------------  -----------------  -----------------
         O            0.000000000000     0.000000000000     0.000000000000    15.994914619570
         H           -0.146863845292     1.805013482706     0.000000000000     1.007825032230
         H            1.849078116499    -0.207299176510     0.000000000000     1.007825032230
         BR           6.373420721822     0.000000000000     0.000000000000    78.918337600000

  Charge       = -1
  Multiplicity = 1
  Basis Set: AUG-CC-PVTZ
    Blend: AUG-CC-PVTZ
  Basis Set: (AUG-CC-PVTZ AUX)
    Blend: AUG-CC-PVTZ-JKFIT

    Orbital Energies [Eh]
    ---------------------

    Doubly Occupied:

       1A   -489.740432     2A    -64.880626     3A    -58.235110
       4A    -58.235105     5A    -58.235097     6A    -20.395375
       7A     -9.553029     8A     -7.160561     9A     -7.160378
      10A     -7.160334    11A     -2.902226    12A     -2.902164
      13A     -2.902110    14A     -2.901908    15A     -2.901905
      16A     -1.177487    17A     -0.710340    18A     -0.532858
      19A     -0.423318    20A     -0.339985    21A     -0.165443
      22A     -0.160547    23A     -0.160123

  @DF-RHF Final Energy: -2648.60894268185302

   => Energetics <=

    Nuclear Repulsion Energy =             65.9034390215330461
    One-Electron Energy =               -3831.1518384656988019
    Two-Electron Energy =                1116.6394567623128751
    Total Energy =                      -2648.6089426818530228
 Dipole X            :       -230.0781490          224.7719395           -5.3062095
 Dipole Y            :         -1.0958982            1.5977143            0.5018161
 Dipole Z            :         -0.0000000            0.0000000           -0.0000000
 Magnitude           :                                                    5.3298854
  Basis Set: (AUG-CC-PVTZ AUX)
    Blend: AUG-CC-PVTZ-RI
	 Reference Energy          =   -2648.6089426818530228 [Eh]
	 Singles Energy            =      -0.0000000000000000 [Eh]
	 Same-Spin Energy          =      -0.1589003835864821 [Eh]
	 Opposite-Spin Energy      =      -0.4222200899720899 [Eh]
	 Correlation Energy        =      -0.5811204735585720 [Eh]
	 Total Energy              =   -2649.1900631554117354 [Eh]

	 ================> DF-SCS-MP2 Energies <==================
	-----------------------------------------------------------
	 SCS Same-Spin Scale       =       0.3333333333333333 [-]
	 SCS Opposite-Spin Scale   =       1.2000000000000000 [-]
	 SCS Same-Spin Energy      =      -0.0529667945288274 [Eh]
	 SCS Opposite-Spin Energy  =      -0.5066641079665078 [Eh]
	 SCS Correlation Energy    =      -0.5596309024953352 [Eh]
	 SCS Total Energy          =   -2649.1685735843484508 [Eh]
	-----------------------------------------------------------

*** Psi4 exiting successfully. Buy a developer a beer!
