                               Psi4 1.9 release

  ==> Input File <==

--------------------------------------------------------------------------
MEMORY 60 GB

molecule dimer {
0 1
O      0.000000     0.000000     0.000000
H     -0.077717     0.955172     0.000000
H      0.978490    -0.109698     0.000000
--
-1 1
Br     4.175686     0.000000     0.000000

units ang
no_reorient
no_com
symmetry c1
}

set {
basis        aug-cc-pVTZ
scf_type     df
}

energy("mp2", bsse_type="cp")
--------------------------------------------------------------------------

                               Psi4 1.9 release
    Molecular point group: c1
  Charge       = -1
  Multiplicity = 1
  Basis Set: AUG-CC-PVTZ
    Blend: AUG-CC-PVTZ
  Basis Set: (AUG-CC-PVTZ AUX)
    Blend: AUG-CC-PVTZ-JKFIT
  @DF-RHF Final Energy: -2572.53367279597023
    Total Energy =                      -2572.5336727959702330
 Dipole X            :       -284.0726899          276.1816024           -7.8910875
 Dipole Y            :         -0.0000779            0.0000000           -0.0000779
 Dipole Z            :         -0.0000000            0.0000000           -0.0000000
 Magnitude           :                                                    7.8910875
  Basis Set: (AUG-CC-PVTZ AUX)
    Blend: AUG-CC-PVTZ-RI
	 Reference Energy          =   -2572.5336727959702330 [Eh]
	 Singles Energy            =      -0.0000000000000000 [Eh]
	 Same-Spin Energy          =      -0.0870493260992434 [Eh]
	 Opposite-Spin Energy      =      -0.2018635642476796 [Eh]
	 Correlation Energy        =      -0.2889128903469230 [Eh]
	 Total Energy              =   -2572.8225856863173249 [Eh]
	 SCS Total Energy          =   -2572.8049255151004218 [Eh]
                               Psi4 1.9 release
    Molecular point group: c1
  Multiplicity = 1
  Basis Set: AUG-CC-PVTZ
    Blend: AUG-CC-PVTZ
  Basis Set: (AUG-CC-PVTZ AUX)
    Blend: AUG-CC-PVTZ-JKFIT
  @DF-RHF Final Energy:   -76.05853270357672
    Total Energy =                        -76.0585327035767165
  Basis Set: (AUG-CC-PVTZ AUX)
	 Singles Energy            =      -0.0000000000000000 [Eh]
	 Same-Spin Energy          =      -0.0686752972513430 [Eh]
	 Opposite-Spin Energy      =      -0.2162941557113310 [Eh]
	 Correlation Energy        =      -0.2849694529626740 [Eh]
	 Total Energy              =     -76.3435021565393868 [Eh]
	 SCS Total Energy          =     -76.3409774561807666 [Eh]
                               Psi4 1.9 release
    Molecular point group: c1

    Geometry (in Bohr), charge = -1, multiplicity = 1:

       Center              X                  Y                   Z               Mass
    ------------   -----------------  -----------------  -----------------  -----------------
         O            0.000000000000     0.000000000000     0.000000000000    15.994914619570
         H           -0.146863845292     1.805013482706     0.000000000000     1.007825032230
         H            1.849078116499    -0.207299176510     0.000000000000     1.007825032230
         BR           7.890902925908     0.000000000000     0.000000000000    78.918337600000

  Charge       = -1
  Multiplicity = 1
  Basis Set: AUG-CC-PVTZ
    Blend: AUG-CC-PVTZ
  Basis Set: (AUG-CC-PVTZ AUX)
    Blend: AUG-CC-PVTZ-JKFIT

    Orbital Energies [Eh]
    ---------------------

    Doubly Occupied:

       1A   -489.734558     2A    -64.874639     3A    -58.229134
       4A    -58.229104     5A    -58.229101     6A    -20.434443
       7A     -9.547008     8A     -7.154477     9A     -7.154308
      10A     -7.154291    11A     -2.896172    12A     -2.896111
      13A     -2.896091    14A     -2.895869    15A     -2.895869
      16A     -1.213562    17A     -0.700662    18A     -0.567957
      19A     -0.456524    20A     -0.376092    21A     -0.155633
      22A     -0.153299    23A     -0.153184

  @DF-RHF Final Energy: -2648.60572245699041

   => Energetics <=

    Nuclear Repulsion Energy =             54.5919443291051678
    One-Electron Energy =               -3808.3991580944280031
    Two-Electron Energy =                1105.2014913083326064
    Total Energy =                      -2648.6057224569904065
 Dipole X            :       -284.8739004          277.8838167           -6.9900837
 Dipole Y            :         -1.0773832            1.5977143            0.5203311
 Dipole Z            :          0.0000000            0.0000000            0.0000000
 Magnitude           :                                                    7.0094232
  Basis Set: (AUG-CC-PVTZ AUX)
    Blend: AUG-CC-PVTZ-RI
	 Reference Energy          =   -2648.6057224569904065 [Eh]
	 Singles Energy            =      -0.0000000000000000 [Eh]
	 Same-Spin Energy          =      -0.1563567162006088 [Eh]
	 Opposite-Spin Energy      =      -0.4183916790996357 [Eh]
	 Correlation Energy        =      -0.5747483953002446 [Eh]
	 Total Energy              =   -2649.1804708522904548 [Eh]

	 ================> DF-SCS-MP2 Energies <==================
	-----------------------------------------------------------
	 SCS Same-Spin Scale       =       0.3333333333333333 [-]
	 SCS Opposite-Spin Scale   =       1.2000000000000000 [-]
	 SCS Same-Spin Energy      =      -0.0521189054002029 [Eh]
	 SCS Opposite-Spin Energy  =      -0.5020700149195628 [Eh]
	 SCS Correlation Energy    =      -0.5541889203197657 [Eh]
	 SCS Total Energy          =   -2649.1599113773099816 [Eh]
	-----------------------------------------------------------

*** Psi4 exiting successfully. Buy a developer a beer!
