                               Psi4 1.8.2 release

  ==> Input File <==

--------------------------------------------------------------------------
MEMORY 60 GB

molecule dimer {
1 1
Li     0.000000     0.000000     0.000000
--
0 1
O      1.762969     0.000000     0.000000
H      2.347973     0.763729     0.000000
H      2.347973    -0.763729     0.000000
--
0 1
O     -1.762969     0.000000     0.000000
H     -2.347972    -0.763729     0.000000
H     -2.347972     0.763729     0.000000

units ang
no_reorient
no_com
symmetry c1
}

set {
basis        aug-cc-pVTZ
scf_type     df
}

energy("mp2", bsse_type="cp")
--------------------------------------------------------------------------

                               Psi4 1.8.2 release
    Molecular point group: c1
  Charge       = 1
  Multiplicity = 1
  Basis Set: AUG-CC-PVTZ
    Blend: AUG-CC-PVTZ
  Basis Set: (AUG-CC-PVTZ AUX)
    Blend: AUG-CC-PVTZ-JKFIT + DEF2-UNIVERSAL-JKFIT
  @DF-RHF Final Energy:    -7.23638410471932
    Total Energy =                         -7.2363841047193187
 Dipole X            :          0.0000000            0.0000000            0.0000000
 Dipole Y            :          0.0000000            0.0000000            0.0000000
 Dipole Z            :          0.0000000            0.0000000            0.0000000
 Magnitude           :                                                    0.0000000
  Basis Set: (AUG-CC-PVTZ AUX)
    Blend: AUG-CC-PVTZ-RI + DEF2-QZVPP-RI
	 Reference Energy          =      -7.2363841047193187 [Eh]
	 Singles Energy            =      -0.0000000000000000 [Eh]
	 Same-Spin Energy          =       0.0000000000000000 [Eh]
	 Opposite-Spin Energy      =      -0.0157052407040401 [Eh]
	 Correlation Energy        =      -0.0157052407040401 [Eh]
	 Total Energy              =      -7.2520893454233590 [Eh]
	 SCS Total Energy          =      -7.2552303935641671 [Eh]
                               Psi4 1.8.2 release
    Molecular point group: c1
  Basis Set: AUG-CC-PVTZ
    Blend: AUG-CC-PVTZ
  Basis Set: (AUG-CC-PVTZ AUX)
    Blend: AUG-CC-PVTZ-JKFIT + DEF2-UNIVERSAL-JKFIT
  @DF-RHF Final Energy:   -76.06036212866061
    Total Energy =                        -76.0603621286606142
  Basis Set: (AUG-CC-PVTZ AUX)
                               Psi4 1.8.2 release
  @DF-RHF Final Energy:  -152.11722233740025
    Total Energy =                       -152.1172223374002499
                               Psi4 1.8.2 release
  @DF-RHF Final Energy:   -83.35304625265489
    Total Energy =                        -83.3530462526548774
                               Psi4 1.8.2 release
  @DF-RHF Final Energy:   -83.35304621222124
    Total Energy =                        -83.3530462122212441
                               Psi4 1.8.2 release
  Multiplicity = 1
  @DF-RHF Final Energy:   -76.06036218237620
    Total Energy =                        -76.0603621823761955
	 Singles Energy            =      -0.0000000000000000 [Eh]
	 Same-Spin Energy          =      -0.0684781037125222 [Eh]
	 Opposite-Spin Energy      =      -0.2160242167240831 [Eh]
	 Correlation Energy        =      -0.2845023204366053 [Eh]
	 Total Energy              =     -76.3448645028127970 [Eh]
	 SCS Total Energy          =     -76.3424172770159402 [Eh]
                               Psi4 1.8.2 release
    Molecular point group: c1

    Geometry (in Bohr), charge = 1, multiplicity = 1:

       Center              X                  Y                   Z               Mass
    ------------   -----------------  -----------------  -----------------  -----------------
         LI           0.000000000000     0.000000000000     0.000000000000     7.016003436600
         O            3.331528577672     0.000000000000     0.000000000000    15.994914619570
         H            4.437025919970     1.443238644070     0.000000000000     1.007825032230
         H            4.437025919970    -1.443238644070     0.000000000000     1.007825032230
         O           -3.331528577672     0.000000000000     0.000000000000    15.994914619570
         H           -4.437024030243    -1.443238644070     0.000000000000     1.007825032230
         H           -4.437024030243     1.443238644070     0.000000000000     1.007825032230

  Charge       = 1
  Multiplicity = 1
  Basis Set: AUG-CC-PVTZ
    Blend: AUG-CC-PVTZ
  Basis Set: (AUG-CC-PVTZ AUX)
    Blend: AUG-CC-PVTZ-JKFIT + DEF2-UNIVERSAL-JKFIT

    Orbital Energies [Eh]
    ---------------------

    Doubly Occupied:

       1A    -20.792741     2A    -20.792741     3A     -2.611021
       4A     -1.585408     5A     -1.583468     6A     -0.946410
       7A     -0.945486     8A     -0.854859     9A     -0.842618
      10A     -0.747559    11A     -0.744038

  @DF-RHF Final Energy:  -159.45991622186241

   => Energetics <=

    Nuclear Repulsion Energy =             49.3692726702873657
    One-Electron Energy =                -312.7656754623771462
    Two-Electron Energy =                 103.9364865702273306
    Total Energy =                       -159.4599162218624429
 Dipole X            :         -0.0000025            0.0000038            0.0000012
 Dipole Y            :         -0.0000000            0.0000000           -0.0000000
 Dipole Z            :          0.0000000            0.0000000            0.0000000
 Magnitude           :                                                    0.0000012
  Basis Set: (AUG-CC-PVTZ AUX)
    Blend: AUG-CC-PVTZ-RI + DEF2-QZVPP-RI
	 Reference Energy          =    -159.4599162218624144 [Eh]
	 Singles Energy            =      -0.0000000000000000 [Eh]
	 Same-Spin Energy          =      -0.1359276981331660 [Eh]
	 Opposite-Spin Energy      =      -0.4424545434387384 [Eh]
	 Correlation Energy        =      -0.5783822415719044 [Eh]
	 Total Energy              =    -160.0382984634343302 [Eh]

	 ================> DF-SCS-MP2 Energies <==================
	-----------------------------------------------------------
	 SCS Same-Spin Scale       =       0.3333333333333333 [-]
	 SCS Opposite-Spin Scale   =       1.2000000000000000 [-]
	 SCS Same-Spin Energy      =      -0.0453092327110553 [Eh]
	 SCS Opposite-Spin Energy  =      -0.5309454521264860 [Eh]
	 SCS Correlation Energy    =      -0.5762546848375414 [Eh]
	 SCS Total Energy          =    -160.0361709066999651 [Eh]
	-----------------------------------------------------------

*** Psi4 exiting successfully. Buy a developer a beer!
