                               Psi4 1.9 release

  ==> Input File <==

--------------------------------------------------------------------------
MEMORY 60 GB

molecule dimer {
1 1
Li     0.000000     0.000000     0.000000
--
0 1
O      2.783635     0.000000     0.000000
H      3.368640     0.763729     0.000000
H      3.368640    -0.763729     0.000000
O     -2.783635     0.000000     0.000000
H     -3.368638    -0.763729     0.000000
H     -3.368638     0.763729     0.000000

units ang
no_reorient
no_com
symmetry c1
}

set {
basis        aug-cc-pVTZ
scf_type     df
}

energy("mp2", bsse_type="cp")
--------------------------------------------------------------------------

                               Psi4 1.9 release
    Molecular point group: c1
  Charge       = 0
  Multiplicity = 1
  Basis Set: AUG-CC-PVTZ
    Blend: AUG-CC-PVTZ
  Basis Set: (AUG-CC-PVTZ AUX)
    Blend: AUG-CC-PVTZ-JKFIT + DEF2-UNIVERSAL-JKFIT
  @DF-RHF Final Energy:  -152.11966411853953
    Total Energy =                       -152.1196641185395038
 Dipole X            :         -0.0000058            0.0000076            0.0000017
 Dipole Y            :         -0.0000000            0.0000000           -0.0000000
 Dipole Z            :         -0.0000000            0.0000000           -0.0000000
 Magnitude           :                                                    0.0000017
  Basis Set: (AUG-CC-PVTZ AUX)
    Blend: AUG-CC-PVTZ-RI + DEF2-QZVPP-RI
	 Reference Energy          =    -152.1196641185395322 [Eh]
	 Singles Energy            =      -0.0000000000000000 [Eh]
	 Same-Spin Energy          =      -0.1369108320694606 [Eh]
	 Opposite-Spin Energy      =      -0.4313029164220720 [Eh]
	 Correlation Energy        =      -0.5682137484915326 [Eh]
	 Total Energy              =    -152.6878778670310624 [Eh]
	 SCS Total Energy          =    -152.6828645622691738 [Eh]
                               Psi4 1.9 release
    Molecular point group: c1
  Multiplicity = 1
  Basis Set: AUG-CC-PVTZ
    Blend: AUG-CC-PVTZ
  Basis Set: (AUG-CC-PVTZ AUX)
    Blend: AUG-CC-PVTZ-JKFIT + DEF2-UNIVERSAL-JKFIT
  @DF-RHF Final Energy:    -7.23638353448223
    Total Energy =                         -7.2363835344822283
  Basis Set: (AUG-CC-PVTZ AUX)
	 Singles Energy            =      -0.0000000000000000 [Eh]
	 Same-Spin Energy          =       0.0000000000000000 [Eh]
	 Opposite-Spin Energy      =      -0.0118421083865388 [Eh]
	 Correlation Energy        =      -0.0118421083865388 [Eh]
	 Total Energy              =      -7.2482256428687677 [Eh]
	 SCS Total Energy          =      -7.2505940645460756 [Eh]
                               Psi4 1.9 release
    Molecular point group: c1

    Geometry (in Bohr), charge = 1, multiplicity = 1:

       Center              X                  Y                   Z               Mass
    ------------   -----------------  -----------------  -----------------  -----------------
         LI           0.000000000000     0.000000000000     0.000000000000     7.016003436600
         O            5.260307783239     0.000000000000     0.000000000000    15.994914619570
         H            6.365807015262     1.443238644070     0.000000000000     1.007825032230
         H            6.365807015262    -1.443238644070     0.000000000000     1.007825032230
         O           -5.260307783239     0.000000000000     0.000000000000    15.994914619570
         H           -6.365803235810    -1.443238644070     0.000000000000     1.007825032230
         H           -6.365803235810     1.443238644070     0.000000000000     1.007825032230

  Charge       = 1
  Multiplicity = 1
  Basis Set: AUG-CC-PVTZ
    Blend: AUG-CC-PVTZ
  Basis Set: (AUG-CC-PVTZ AUX)
    Blend: AUG-CC-PVTZ-JKFIT + DEF2-UNIVERSAL-JKFIT

    Orbital Energies [Eh]
    ---------------------

    Doubly Occupied:

       1A    -20.736857     2A    -20.736857     3A     -2.717781
       4A     -1.519451     5A     -1.519443     6A     -0.884381
       7A     -0.884369     8A     -0.763689     9A     -0.763549
      10A     -0.680997    11A     -0.680912

  @DF-RHF Final Energy:  -159.41760257038388

   => Energetics <=

    Nuclear Repulsion Energy =             38.3832120733858346
    One-Electron Energy =                -291.8250524997593516
    Two-Electron Energy =                  94.0242378559896395
    Total Energy =                       -159.4176025703838775
 Dipole X            :         -0.0000056            0.0000076            0.0000020
 Dipole Y            :         -0.0000000            0.0000000           -0.0000000
 Dipole Z            :         -0.0000000            0.0000000           -0.0000000
 Magnitude           :                                                    0.0000020
  Basis Set: (AUG-CC-PVTZ AUX)
    Blend: AUG-CC-PVTZ-RI + DEF2-QZVPP-RI
	 Reference Energy          =    -159.4176025703838775 [Eh]
	 Singles Energy            =      -0.0000000000000000 [Eh]
	 Same-Spin Energy          =      -0.1365113154807093 [Eh]
	 Opposite-Spin Energy      =      -0.4413899765976343 [Eh]
	 Correlation Energy        =      -0.5779012920783436 [Eh]
	 Total Energy              =    -159.9955038624622148 [Eh]

	 ================> DF-SCS-MP2 Energies <==================
	-----------------------------------------------------------
	 SCS Same-Spin Scale       =       0.3333333333333333 [-]
	 SCS Opposite-Spin Scale   =       1.2000000000000000 [-]
	 SCS Same-Spin Energy      =      -0.0455037718269031 [Eh]
	 SCS Opposite-Spin Energy  =      -0.5296679719171612 [Eh]
	 SCS Correlation Energy    =      -0.5751717437440643 [Eh]
	 SCS Total Energy          =    -159.9927743141279279 [Eh]
	-----------------------------------------------------------

*** Psi4 exiting successfully. Buy a developer a beer!
