                               Psi4 1.8.2 release

  ==> Input File <==

--------------------------------------------------------------------------
MEMORY 60 GB

molecule dimer {
1 1
Li     0.000000     0.000000     0.000000
--
0 1
O      1.670181     0.000000     0.000000
H      2.255185     0.763729     0.000000
H      2.255185    -0.763729     0.000000
--
0 1
O     -1.670181     0.000000     0.000000
H     -2.255184    -0.763729     0.000000
H     -2.255184     0.763729     0.000000

units ang
no_reorient
no_com
symmetry c1
}

set {
basis        aug-cc-pVTZ
scf_type     df
}

energy("mp2", bsse_type="cp")
--------------------------------------------------------------------------

                               Psi4 1.8.2 release
    Molecular point group: c1
  Charge       = 1
  Multiplicity = 1
  Basis Set: AUG-CC-PVTZ
    Blend: AUG-CC-PVTZ
  Basis Set: (AUG-CC-PVTZ AUX)
    Blend: AUG-CC-PVTZ-JKFIT + DEF2-UNIVERSAL-JKFIT
  @DF-RHF Final Energy:    -7.23638423970166
    Total Energy =                         -7.2363842397016649
 Dipole X            :          0.0000000            0.0000000            0.0000000
 Dipole Y            :         -0.0000000            0.0000000           -0.0000000
 Dipole Z            :          0.0000000            0.0000000            0.0000000
 Magnitude           :                                                    0.0000000
  Basis Set: (AUG-CC-PVTZ AUX)
    Blend: AUG-CC-PVTZ-RI + DEF2-QZVPP-RI
	 Reference Energy          =      -7.2363842397016649 [Eh]
	 Singles Energy            =      -0.0000000000000000 [Eh]
	 Same-Spin Energy          =       0.0000000000000000 [Eh]
	 Opposite-Spin Energy      =      -0.0165181867514670 [Eh]
	 Correlation Energy        =      -0.0165181867514670 [Eh]
	 Total Energy              =      -7.2529024264531321 [Eh]
	 SCS Total Energy          =      -7.2562060638034254 [Eh]
                               Psi4 1.8.2 release
    Molecular point group: c1
  Basis Set: AUG-CC-PVTZ
    Blend: AUG-CC-PVTZ
  Basis Set: (AUG-CC-PVTZ AUX)
    Blend: AUG-CC-PVTZ-JKFIT + DEF2-UNIVERSAL-JKFIT
  @DF-RHF Final Energy:   -76.06036620778319
    Total Energy =                        -76.0603662077831899
  Basis Set: (AUG-CC-PVTZ AUX)
                               Psi4 1.8.2 release
  @DF-RHF Final Energy:  -152.11655703609617
    Total Energy =                       -152.1165570360961965
                               Psi4 1.8.2 release
  @DF-RHF Final Energy:   -83.35002081516919
    Total Energy =                        -83.3500208151691879
                               Psi4 1.8.2 release
  @DF-RHF Final Energy:   -83.35002077773953
    Total Energy =                        -83.3500207777395303
                               Psi4 1.8.2 release
  Multiplicity = 1
  @DF-RHF Final Energy:   -76.06036626148061
    Total Energy =                        -76.0603662614806098
	 Singles Energy            =      -0.0000000000000000 [Eh]
	 Same-Spin Energy          =      -0.0684843501175556 [Eh]
	 Opposite-Spin Energy      =      -0.2160893502383178 [Eh]
	 Correlation Energy        =      -0.2845737003558734 [Eh]
	 Total Energy              =     -76.3449399618364879 [Eh]
	 SCS Total Energy          =     -76.3425015984724382 [Eh]
                               Psi4 1.8.2 release
    Molecular point group: c1

    Geometry (in Bohr), charge = 1, multiplicity = 1:

       Center              X                  Y                   Z               Mass
    ------------   -----------------  -----------------  -----------------  -----------------
         LI           0.000000000000     0.000000000000     0.000000000000     7.016003436600
         O            3.156184669943     0.000000000000     0.000000000000    15.994914619570
         H            4.261682012241     1.443238644070     0.000000000000     1.007825032230
         H            4.261682012241    -1.443238644070     0.000000000000     1.007825032230
         O           -3.156184669943     0.000000000000     0.000000000000    15.994914619570
         H           -4.261680122514    -1.443238644070     0.000000000000     1.007825032230
         H           -4.261680122514     1.443238644070     0.000000000000     1.007825032230

  Charge       = 1
  Multiplicity = 1
  Basis Set: AUG-CC-PVTZ
    Blend: AUG-CC-PVTZ
  Basis Set: (AUG-CC-PVTZ AUX)
    Blend: AUG-CC-PVTZ-JKFIT + DEF2-UNIVERSAL-JKFIT

    Orbital Energies [Eh]
    ---------------------

    Doubly Occupied:

       1A    -20.796300     2A    -20.796300     3A     -2.599609
       4A     -1.592932     5A     -1.589648     6A     -0.953000
       7A     -0.951580     8A     -0.866742     9A     -0.848865
      10A     -0.755140    11A     -0.750154

  @DF-RHF Final Energy:  -159.45220575428766

   => Energetics <=

    Nuclear Repulsion Energy =             51.0002864254242212
    One-Electron Energy =                -315.9044415019470762
    Two-Electron Energy =                 105.4519493222352082
    Total Energy =                       -159.4522057542876325
 Dipole X            :         -0.0000025            0.0000038            0.0000013
 Dipole Y            :          0.0000000            0.0000000            0.0000000
 Dipole Z            :          0.0000000            0.0000000            0.0000000
 Magnitude           :                                                    0.0000013
  Basis Set: (AUG-CC-PVTZ AUX)
    Blend: AUG-CC-PVTZ-RI + DEF2-QZVPP-RI
	 Reference Energy          =    -159.4522057542876610 [Eh]
	 Singles Energy            =      -0.0000000000000000 [Eh]
	 Same-Spin Energy          =      -0.1359738665668489 [Eh]
	 Opposite-Spin Energy      =      -0.4427630441580945 [Eh]
	 Correlation Energy        =      -0.5787369107249434 [Eh]
	 Total Energy              =    -160.0309426650126170 [Eh]

	 ================> DF-SCS-MP2 Energies <==================
	-----------------------------------------------------------
	 SCS Same-Spin Scale       =       0.3333333333333333 [-]
	 SCS Opposite-Spin Scale   =       1.2000000000000000 [-]
	 SCS Same-Spin Energy      =      -0.0453246221889496 [Eh]
	 SCS Opposite-Spin Energy  =      -0.5313156529897134 [Eh]
	 SCS Correlation Energy    =      -0.5766402751786630 [Eh]
	 SCS Total Energy          =    -160.0288460294663366 [Eh]
	-----------------------------------------------------------

*** Psi4 exiting successfully. Buy a developer a beer!
