                               Psi4 1.8.2 release

  ==> Input File <==

--------------------------------------------------------------------------
MEMORY 60 GB

molecule dimer {
0 1
Gh(Li)     0.000000     0.000000     0.000000
O          2.412484     0.000000     0.000000
H          2.997488     0.763729     0.000000
H          2.997488    -0.763729     0.000000
Gh(O)     -2.412484     0.000000     0.000000
Gh(H)     -2.997487    -0.763729     0.000000
Gh(H)     -2.997487     0.763729     0.000000

units ang
no_reorient
no_com
symmetry c1
}

set {
basis        aug-cc-pVTZ
scf_type     df
}

energy("mp2")
--------------------------------------------------------------------------

    Molecular point group: c1

    Geometry (in Angstrom), charge = 0, multiplicity = 1:

       Center              X                  Y                   Z               Mass
    ------------   -----------------  -----------------  -----------------  -----------------
      Gh(LI)          0.000000000000     0.000000000000     0.000000000000     7.016003436600
         O            2.412484000000     0.000000000000     0.000000000000    15.994914619570
         H            2.997488000000     0.763729000000     0.000000000000     1.007825032230
         H            2.997488000000    -0.763729000000     0.000000000000     1.007825032230
      Gh(O)          -2.412484000000     0.000000000000     0.000000000000    15.994914619570
      Gh(H)          -2.997487000000    -0.763729000000     0.000000000000     1.007825032230
      Gh(H)          -2.997487000000     0.763729000000     0.000000000000     1.007825032230

  Charge       = 0
  Multiplicity = 1
  Basis Set: AUG-CC-PVTZ
    Blend: AUG-CC-PVTZ
  Basis Set: (AUG-CC-PVTZ AUX)
    Blend: AUG-CC-PVTZ-JKFIT + DEF2-UNIVERSAL-JKFIT

    Orbital Energies [Eh]
    ---------------------

    Doubly Occupied:

       1A    -20.567691     2A     -1.350659     3A     -0.716284
       4A     -0.582856     5A     -0.509745

  @DF-RHF Final Energy:   -76.06033171416730

   => Energetics <=

    Nuclear Repulsion Energy =              9.1474054777200244
    One-Electron Energy =                -122.9610042182100926
    Two-Electron Energy =                  37.7532670263227601
    Total Energy =                        -76.0603317141673045
 Dipole X            :        -47.0230722           47.8003351            0.7772629
 Dipole Y            :         -0.0000000            0.0000000           -0.0000000
 Dipole Z            :         -0.0000000            0.0000000           -0.0000000
 Magnitude           :                                                    0.7772629
  Basis Set: (AUG-CC-PVTZ AUX)
    Blend: AUG-CC-PVTZ-RI + DEF2-QZVPP-RI
	 Reference Energy          =     -76.0603317141673045 [Eh]
	 Singles Energy            =      -0.0000000000000000 [Eh]
	 Same-Spin Energy          =      -0.0684455072878924 [Eh]
	 Opposite-Spin Energy      =      -0.2157051304072662 [Eh]
	 Correlation Energy        =      -0.2841506376951585 [Eh]
	 Total Energy              =     -76.3444823518624673 [Eh]

	 ================> DF-SCS-MP2 Energies <==================
	-----------------------------------------------------------
	 SCS Same-Spin Scale       =       0.3333333333333333 [-]
	 SCS Opposite-Spin Scale   =       1.2000000000000000 [-]
	 SCS Same-Spin Energy      =      -0.0228151690959641 [Eh]
	 SCS Opposite-Spin Energy  =      -0.2588461564887194 [Eh]
	 SCS Correlation Energy    =      -0.2816613255846835 [Eh]
	 SCS Total Energy          =     -76.3419930397519835 [Eh]
	-----------------------------------------------------------

*** Psi4 exiting successfully. Buy a developer a beer!
