                               Psi4 1.8.2 release

  ==> Input File <==

--------------------------------------------------------------------------
MEMORY 60 GB

molecule dimer {
1 1
Li     0.000000     0.000000     0.000000
--
0 1
O      2.783635     0.000000     0.000000
H      3.368640     0.763729     0.000000
H      3.368640    -0.763729     0.000000
--
0 1
O     -2.783635     0.000000     0.000000
H     -3.368638    -0.763729     0.000000
H     -3.368638     0.763729     0.000000

units ang
no_reorient
no_com
symmetry c1
}

set {
basis        aug-cc-pVTZ
scf_type     df
}

energy("mp2", bsse_type="cp")
--------------------------------------------------------------------------

                               Psi4 1.8.2 release
    Molecular point group: c1
  Charge       = 1
  Multiplicity = 1
  Basis Set: AUG-CC-PVTZ
    Blend: AUG-CC-PVTZ
  Basis Set: (AUG-CC-PVTZ AUX)
    Blend: AUG-CC-PVTZ-JKFIT + DEF2-UNIVERSAL-JKFIT
  @DF-RHF Final Energy:    -7.23638353448239
    Total Energy =                         -7.2363835344823926
 Dipole X            :         -0.0000000            0.0000000           -0.0000000
 Dipole Y            :          0.0000000            0.0000000            0.0000000
 Dipole Z            :         -0.0000000            0.0000000           -0.0000000
 Magnitude           :                                                    0.0000000
  Basis Set: (AUG-CC-PVTZ AUX)
    Blend: AUG-CC-PVTZ-RI + DEF2-QZVPP-RI
	 Reference Energy          =      -7.2363835344823926 [Eh]
	 Singles Energy            =      -0.0000000000000000 [Eh]
	 Same-Spin Energy          =       0.0000000000000000 [Eh]
	 Opposite-Spin Energy      =      -0.0118421083865275 [Eh]
	 Correlation Energy        =      -0.0118421083865275 [Eh]
	 Total Energy              =      -7.2482256428689205 [Eh]
	 SCS Total Energy          =      -7.2505940645462257 [Eh]
                               Psi4 1.8.2 release
    Molecular point group: c1
  Basis Set: AUG-CC-PVTZ
    Blend: AUG-CC-PVTZ
  Basis Set: (AUG-CC-PVTZ AUX)
    Blend: AUG-CC-PVTZ-JKFIT + DEF2-UNIVERSAL-JKFIT
  @DF-RHF Final Energy:   -76.06030685626756
    Total Energy =                        -76.0603068562675446
  Basis Set: (AUG-CC-PVTZ AUX)
                               Psi4 1.8.2 release
  @DF-RHF Final Energy:  -152.11966411853547
    Total Energy =                       -152.1196641185354679
                               Psi4 1.8.2 release
  @DF-RHF Final Energy:   -83.32797305064733
    Total Energy =                        -83.3279730506473157
                               Psi4 1.8.2 release
  @DF-RHF Final Energy:   -83.32797295558697
    Total Energy =                        -83.3279729555869721
                               Psi4 1.8.2 release
  Multiplicity = 1
  @DF-RHF Final Energy:   -76.06030696382579
    Total Energy =                        -76.0603069638257807
	 Singles Energy            =      -0.0000000000000000 [Eh]
	 Same-Spin Energy          =      -0.0684352142800037 [Eh]
	 Opposite-Spin Energy      =      -0.2155985285010817 [Eh]
	 Correlation Energy        =      -0.2840337427810853 [Eh]
	 Total Energy              =     -76.3443407066068858 [Eh]
	 SCS Total Energy          =     -76.3418369361204299 [Eh]
                               Psi4 1.8.2 release
    Molecular point group: c1

    Geometry (in Bohr), charge = 1, multiplicity = 1:

       Center              X                  Y                   Z               Mass
    ------------   -----------------  -----------------  -----------------  -----------------
         LI           0.000000000000     0.000000000000     0.000000000000     7.016003436600
         O            5.260307783239     0.000000000000     0.000000000000    15.994914619570
         H            6.365807015262     1.443238644070     0.000000000000     1.007825032230
         H            6.365807015262    -1.443238644070     0.000000000000     1.007825032230
         O           -5.260307783239     0.000000000000     0.000000000000    15.994914619570
         H           -6.365803235810    -1.443238644070     0.000000000000     1.007825032230
         H           -6.365803235810     1.443238644070     0.000000000000     1.007825032230

  Charge       = 1
  Multiplicity = 1
  Basis Set: AUG-CC-PVTZ
    Blend: AUG-CC-PVTZ
  Basis Set: (AUG-CC-PVTZ AUX)
    Blend: AUG-CC-PVTZ-JKFIT + DEF2-UNIVERSAL-JKFIT

    Orbital Energies [Eh]
    ---------------------

    Doubly Occupied:

       1A    -20.736857     2A    -20.736857     3A     -2.717781
       4A     -1.519451     5A     -1.519443     6A     -0.884381
       7A     -0.884369     8A     -0.763689     9A     -0.763549
      10A     -0.680997    11A     -0.680912

  @DF-RHF Final Energy:  -159.41760257038118

   => Energetics <=

    Nuclear Repulsion Energy =             38.3832120733858346
    One-Electron Energy =                -291.8250524997627053
    Two-Electron Energy =                  94.0242378559956933
    Total Energy =                       -159.4176025703811774
 Dipole X            :         -0.0000056            0.0000076            0.0000020
 Dipole Y            :          0.0000000            0.0000000            0.0000000
 Dipole Z            :          0.0000000            0.0000000            0.0000000
 Magnitude           :                                                    0.0000020
  Basis Set: (AUG-CC-PVTZ AUX)
    Blend: AUG-CC-PVTZ-RI + DEF2-QZVPP-RI
	 Reference Energy          =    -159.4176025703811774 [Eh]
	 Singles Energy            =      -0.0000000000000000 [Eh]
	 Same-Spin Energy          =      -0.1365113154806832 [Eh]
	 Opposite-Spin Energy      =      -0.4413899765974336 [Eh]
	 Correlation Energy        =      -0.5779012920781168 [Eh]
	 Total Energy              =    -159.9955038624592873 [Eh]

	 ================> DF-SCS-MP2 Energies <==================
	-----------------------------------------------------------
	 SCS Same-Spin Scale       =       0.3333333333333333 [-]
	 SCS Opposite-Spin Scale   =       1.2000000000000000 [-]
	 SCS Same-Spin Energy      =      -0.0455037718268944 [Eh]
	 SCS Opposite-Spin Energy  =      -0.5296679719169203 [Eh]
	 SCS Correlation Energy    =      -0.5751717437438146 [Eh]
	 SCS Total Energy          =    -159.9927743141250005 [Eh]
	-----------------------------------------------------------

*** Psi4 exiting successfully. Buy a developer a beer!
