                               Psi4 1.8.2 release

  ==> Input File <==

--------------------------------------------------------------------------
MEMORY 60 GB

molecule dimer {
0 1
Gh(Li)     0.000000     0.000000     0.000000
Gh(O)      2.412484     0.000000     0.000000
Gh(H)      2.997488     0.763729     0.000000
Gh(H)      2.997488    -0.763729     0.000000
O         -2.412484     0.000000     0.000000
H         -2.997487    -0.763729     0.000000
H         -2.997487     0.763729     0.000000

units ang
no_reorient
no_com
symmetry c1
}

set {
basis        aug-cc-pVTZ
scf_type     df
}

energy("mp2")
--------------------------------------------------------------------------

    Molecular point group: c1

    Geometry (in Angstrom), charge = 0, multiplicity = 1:

       Center              X                  Y                   Z               Mass
    ------------   -----------------  -----------------  -----------------  -----------------
      Gh(LI)          0.000000000000     0.000000000000     0.000000000000     7.016003436600
      Gh(O)           2.412484000000     0.000000000000     0.000000000000    15.994914619570
      Gh(H)           2.997488000000     0.763729000000     0.000000000000     1.007825032230
      Gh(H)           2.997488000000    -0.763729000000     0.000000000000     1.007825032230
         O           -2.412484000000     0.000000000000     0.000000000000    15.994914619570
         H           -2.997487000000    -0.763729000000     0.000000000000     1.007825032230
         H           -2.997487000000     0.763729000000     0.000000000000     1.007825032230

  Charge       = 0
  Multiplicity = 1
  Basis Set: AUG-CC-PVTZ
    Blend: AUG-CC-PVTZ
  Basis Set: (AUG-CC-PVTZ AUX)
    Blend: AUG-CC-PVTZ-JKFIT + DEF2-UNIVERSAL-JKFIT

    Orbital Energies [Eh]
    ---------------------

    Doubly Occupied:

       1A    -20.567691     2A     -1.350659     3A     -0.716284
       4A     -0.582856     5A     -0.509745

  @DF-RHF Final Energy:   -76.06033176789903

   => Energetics <=

    Nuclear Repulsion Energy =              9.1474110406955091
    One-Electron Energy =                -122.9610143260909609
    Two-Electron Energy =                  37.7532715174964295
    Total Energy =                        -76.0603317678990294
 Dipole X            :         47.0230692          -47.8003313           -0.7772621
 Dipole Y            :         -0.0000000            0.0000000           -0.0000000
 Dipole Z            :         -0.0000000            0.0000000           -0.0000000
 Magnitude           :                                                    0.7772621
  Basis Set: (AUG-CC-PVTZ AUX)
    Blend: AUG-CC-PVTZ-RI + DEF2-QZVPP-RI
	 Reference Energy          =     -76.0603317678990294 [Eh]
	 Singles Energy            =      -0.0000000000000000 [Eh]
	 Same-Spin Energy          =      -0.0684454950043306 [Eh]
	 Opposite-Spin Energy      =      -0.2157050930139987 [Eh]
	 Correlation Energy        =      -0.2841505880183293 [Eh]
	 Total Energy              =     -76.3444823559173642 [Eh]

	 ================> DF-SCS-MP2 Energies <==================
	-----------------------------------------------------------
	 SCS Same-Spin Scale       =       0.3333333333333333 [-]
	 SCS Opposite-Spin Scale   =       1.2000000000000000 [-]
	 SCS Same-Spin Energy      =      -0.0228151650014435 [Eh]
	 SCS Opposite-Spin Energy  =      -0.2588461116167984 [Eh]
	 SCS Correlation Energy    =      -0.2816612766182420 [Eh]
	 SCS Total Energy          =     -76.3419930445172668 [Eh]
	-----------------------------------------------------------

*** Psi4 exiting successfully. Buy a developer a beer!
