                               Psi4 1.9 release

  ==> Input File <==

--------------------------------------------------------------------------
MEMORY 60 GB

molecule dimer {
1 1
Li     0.000000     0.000000     0.000000
--
0 1
O      2.041333     0.000000     0.000000
H      2.626337     0.763729     0.000000
H      2.626337    -0.763729     0.000000
O     -2.041333     0.000000     0.000000
H     -2.626336    -0.763729     0.000000
H     -2.626336     0.763729     0.000000

units ang
no_reorient
no_com
symmetry c1
}

set {
basis        aug-cc-pVTZ
scf_type     df
}

energy("mp2", bsse_type="cp")
--------------------------------------------------------------------------

                               Psi4 1.9 release
    Molecular point group: c1
  Charge       = 0
  Multiplicity = 1
  Basis Set: AUG-CC-PVTZ
    Blend: AUG-CC-PVTZ
  Basis Set: (AUG-CC-PVTZ AUX)
    Blend: AUG-CC-PVTZ-JKFIT + DEF2-UNIVERSAL-JKFIT
  @DF-RHF Final Energy:  -152.11843480457367
    Total Energy =                       -152.1184348045736670
 Dipole X            :         -0.0000029            0.0000038            0.0000009
 Dipole Y            :          0.0000000            0.0000000            0.0000000
 Dipole Z            :          0.0000000            0.0000000            0.0000000
 Magnitude           :                                                    0.0000009
  Basis Set: (AUG-CC-PVTZ AUX)
    Blend: AUG-CC-PVTZ-RI + DEF2-QZVPP-RI
	 Reference Energy          =    -152.1184348045736670 [Eh]
	 Singles Energy            =      -0.0000000000000000 [Eh]
	 Same-Spin Energy          =      -0.1370821437813646 [Eh]
	 Opposite-Spin Energy      =      -0.4320528882788460 [Eh]
	 Correlation Energy        =      -0.5691350320602107 [Eh]
	 Total Energy              =    -152.6875698366338838 [Eh]
	 SCS Total Energy          =    -152.6825923184354110 [Eh]
                               Psi4 1.9 release
    Molecular point group: c1
  Multiplicity = 1
  Basis Set: AUG-CC-PVTZ
    Blend: AUG-CC-PVTZ
  Basis Set: (AUG-CC-PVTZ AUX)
    Blend: AUG-CC-PVTZ-JKFIT + DEF2-UNIVERSAL-JKFIT
  @DF-RHF Final Energy:    -7.23638386587995
    Total Energy =                         -7.2363838658799509
  Basis Set: (AUG-CC-PVTZ AUX)
	 Singles Energy            =      -0.0000000000000000 [Eh]
	 Same-Spin Energy          =       0.0000000000000000 [Eh]
	 Opposite-Spin Energy      =      -0.0138117361598951 [Eh]
	 Correlation Energy        =      -0.0138117361598951 [Eh]
	 Total Energy              =      -7.2501956020398461 [Eh]
	 SCS Total Energy          =      -7.2529579492718250 [Eh]
                               Psi4 1.9 release
    Molecular point group: c1

    Geometry (in Bohr), charge = 1, multiplicity = 1:

       Center              X                  Y                   Z               Mass
    ------------   -----------------  -----------------  -----------------  -----------------
         LI           0.000000000000     0.000000000000     0.000000000000     7.016003436600
         O            3.857560300859     0.000000000000     0.000000000000    15.994914619570
         H            4.963057643157     1.443238644070     0.000000000000     1.007825032230
         H            4.963057643157    -1.443238644070     0.000000000000     1.007825032230
         O           -3.857560300859     0.000000000000     0.000000000000    15.994914619570
         H           -4.963055753430    -1.443238644070     0.000000000000     1.007825032230
         H           -4.963055753430     1.443238644070     0.000000000000     1.007825032230

  Charge       = 1
  Multiplicity = 1
  Basis Set: AUG-CC-PVTZ
    Blend: AUG-CC-PVTZ
  Basis Set: (AUG-CC-PVTZ AUX)
    Blend: AUG-CC-PVTZ-JKFIT + DEF2-UNIVERSAL-JKFIT

    Orbital Energies [Eh]
    ---------------------

    Doubly Occupied:

       1A    -20.778839     2A    -20.778839     3A     -2.647375
       4A     -1.564699     5A     -1.564295     6A     -0.927693
       7A     -0.927433     8A     -0.823318     9A     -0.819423
      10A     -0.726868    11A     -0.725596

  @DF-RHF Final Energy:  -159.45735530623722

   => Energetics <=

    Nuclear Repulsion Energy =             45.3302241592290684
    One-Electron Energy =                -305.0063990586224349
    Two-Electron Energy =                 100.2188195931560983
    Total Energy =                       -159.4573553062372469
 Dipole X            :         -0.0000026            0.0000038            0.0000011
 Dipole Y            :          0.0000000            0.0000000            0.0000000
 Dipole Z            :          0.0000000            0.0000000            0.0000000
 Magnitude           :                                                    0.0000011
  Basis Set: (AUG-CC-PVTZ AUX)
    Blend: AUG-CC-PVTZ-RI + DEF2-QZVPP-RI
	 Reference Energy          =    -159.4573553062372184 [Eh]
	 Singles Energy            =      -0.0000000000000000 [Eh]
	 Same-Spin Energy          =      -0.1360828684021342 [Eh]
	 Opposite-Spin Energy      =      -0.4419435238935855 [Eh]
	 Correlation Energy        =      -0.5780263922957197 [Eh]
	 Total Energy              =    -160.0353816985329445 [Eh]

	 ================> DF-SCS-MP2 Energies <==================
	-----------------------------------------------------------
	 SCS Same-Spin Scale       =       0.3333333333333333 [-]
	 SCS Opposite-Spin Scale   =       1.2000000000000000 [-]
	 SCS Same-Spin Energy      =      -0.0453609561340447 [Eh]
	 SCS Opposite-Spin Energy  =      -0.5303322286723026 [Eh]
	 SCS Correlation Energy    =      -0.5756931848063473 [Eh]
	 SCS Total Energy          =    -160.0330484910435587 [Eh]
	-----------------------------------------------------------

*** Psi4 exiting successfully. Buy a developer a beer!
