                               Psi4 1.8.2 release

  ==> Input File <==

--------------------------------------------------------------------------
MEMORY 60 GB

molecule dimer {
1 1
Li         0.000000     0.000000     0.000000
Gh(O)      1.670181     0.000000     0.000000
Gh(H)      2.255185     0.763729     0.000000
Gh(H)      2.255185    -0.763729     0.000000
Gh(O)     -1.670181     0.000000     0.000000
Gh(H)     -2.255184    -0.763729     0.000000
Gh(H)     -2.255184     0.763729     0.000000

units ang
no_reorient
no_com
symmetry c1
}

set {
basis        aug-cc-pVTZ
scf_type     df
}

energy("mp2")
--------------------------------------------------------------------------

    Molecular point group: c1

    Geometry (in Angstrom), charge = 1, multiplicity = 1:

       Center              X                  Y                   Z               Mass
    ------------   -----------------  -----------------  -----------------  -----------------
         LI           0.000000000000     0.000000000000     0.000000000000     7.016003436600
      Gh(O)           1.670181000000     0.000000000000     0.000000000000    15.994914619570
      Gh(H)           2.255185000000     0.763729000000     0.000000000000     1.007825032230
      Gh(H)           2.255185000000    -0.763729000000     0.000000000000     1.007825032230
      Gh(O)          -1.670181000000     0.000000000000     0.000000000000    15.994914619570
      Gh(H)          -2.255184000000    -0.763729000000     0.000000000000     1.007825032230
      Gh(H)          -2.255184000000     0.763729000000     0.000000000000     1.007825032230

  Charge       = 1
  Multiplicity = 1
  Basis Set: AUG-CC-PVTZ
    Blend: AUG-CC-PVTZ
  Basis Set: (AUG-CC-PVTZ AUX)
    Blend: AUG-CC-PVTZ-JKFIT + DEF2-UNIVERSAL-JKFIT

    Orbital Energies [Eh]
    ---------------------

    Doubly Occupied:

       1A     -2.792354

  @DF-RHF Final Energy:    -7.23638423970162

   => Energetics <=

    Nuclear Repulsion Energy =              0.0000000000000000
    One-Electron Energy =                  -8.8880600773926677
    Two-Electron Energy =                   1.6516758376910530
    Total Energy =                         -7.2363842397016143
 Dipole X            :          0.0000000            0.0000000            0.0000000
 Dipole Y            :         -0.0000000            0.0000000           -0.0000000
 Dipole Z            :          0.0000000            0.0000000            0.0000000
 Magnitude           :                                                    0.0000000
  Basis Set: (AUG-CC-PVTZ AUX)
    Blend: AUG-CC-PVTZ-RI + DEF2-QZVPP-RI
	 Reference Energy          =      -7.2363842397016152 [Eh]
	 Singles Energy            =      -0.0000000000000000 [Eh]
	 Same-Spin Energy          =       0.0000000000000000 [Eh]
	 Opposite-Spin Energy      =      -0.0165181867514663 [Eh]
	 Correlation Energy        =      -0.0165181867514663 [Eh]
	 Total Energy              =      -7.2529024264530815 [Eh]

	 ================> DF-SCS-MP2 Energies <==================
	-----------------------------------------------------------
	 SCS Same-Spin Scale       =       0.3333333333333333 [-]
	 SCS Opposite-Spin Scale   =       1.2000000000000000 [-]
	 SCS Same-Spin Energy      =       0.0000000000000000 [Eh]
	 SCS Opposite-Spin Energy  =      -0.0198218241017595 [Eh]
	 SCS Correlation Energy    =      -0.0198218241017595 [Eh]
	 SCS Total Energy          =      -7.2562060638033747 [Eh]
	-----------------------------------------------------------

*** Psi4 exiting successfully. Buy a developer a beer!
