                               Psi4 1.8.2 release

  ==> Input File <==

--------------------------------------------------------------------------
MEMORY 60 GB

molecule dimer {
1 1
Li         0.000000     0.000000     0.000000
O          1.948545     0.000000     0.000000
H          2.533549     0.763729     0.000000
H          2.533549    -0.763729     0.000000
O         -1.948545     0.000000     0.000000
H         -2.533548    -0.763729     0.000000
H         -2.533548     0.763729     0.000000

units ang
no_reorient
no_com
symmetry c1
}

set {
basis        aug-cc-pVTZ
scf_type     df
}

energy("mp2")
--------------------------------------------------------------------------

    Molecular point group: c1

    Geometry (in Angstrom), charge = 1, multiplicity = 1:

       Center              X                  Y                   Z               Mass
    ------------   -----------------  -----------------  -----------------  -----------------
         LI           0.000000000000     0.000000000000     0.000000000000     7.016003436600
         O            1.948545000000     0.000000000000     0.000000000000    15.994914619570
         H            2.533549000000     0.763729000000     0.000000000000     1.007825032230
         H            2.533549000000    -0.763729000000     0.000000000000     1.007825032230
         O           -1.948545000000     0.000000000000     0.000000000000    15.994914619570
         H           -2.533548000000    -0.763729000000     0.000000000000     1.007825032230
         H           -2.533548000000     0.763729000000     0.000000000000     1.007825032230

  Charge       = 1
  Multiplicity = 1
  Basis Set: AUG-CC-PVTZ
    Blend: AUG-CC-PVTZ
  Basis Set: (AUG-CC-PVTZ AUX)
    Blend: AUG-CC-PVTZ-JKFIT + DEF2-UNIVERSAL-JKFIT

    Orbital Energies [Eh]
    ---------------------

    Doubly Occupied:

       1A    -20.783866     2A    -20.783866     3A     -2.635430
       4A     -1.571340     5A     -1.570661     6A     -0.933794
       7A     -0.933397     8A     -0.833164     9A     -0.827446
      10A     -0.733509    11A     -0.731730

  @DF-RHF Final Energy:  -159.46077610137684

   => Energetics <=

    Nuclear Repulsion Energy =             46.5538533686937868
    One-Electron Energy =                -307.3528488053271985
    Two-Electron Energy =                 101.3382193352565395
    Total Energy =                       -159.4607761013768368
 Dipole X            :         -0.0000026            0.0000038            0.0000012
 Dipole Y            :          0.0000000            0.0000000            0.0000000
 Dipole Z            :          0.0000000            0.0000000            0.0000000
 Magnitude           :                                                    0.0000012
  Basis Set: (AUG-CC-PVTZ AUX)
    Blend: AUG-CC-PVTZ-RI + DEF2-QZVPP-RI
	 Reference Energy          =    -159.4607761013768368 [Eh]
	 Singles Energy            =      -0.0000000000000000 [Eh]
	 Same-Spin Energy          =      -0.1360066365514393 [Eh]
	 Opposite-Spin Energy      =      -0.4420655580718519 [Eh]
	 Correlation Energy        =      -0.5780721946232912 [Eh]
	 Total Energy              =    -160.0388482960001397 [Eh]

	 ================> DF-SCS-MP2 Energies <==================
	-----------------------------------------------------------
	 SCS Same-Spin Scale       =       0.3333333333333333 [-]
	 SCS Opposite-Spin Scale   =       1.2000000000000000 [-]
	 SCS Same-Spin Energy      =      -0.0453355455171464 [Eh]
	 SCS Opposite-Spin Energy  =      -0.5304786696862223 [Eh]
	 SCS Correlation Energy    =      -0.5758142152033687 [Eh]
	 SCS Total Energy          =    -160.0365903165802024 [Eh]
	-----------------------------------------------------------

*** Psi4 exiting successfully. Buy a developer a beer!
