                               Psi4 1.8.2 release

  ==> Input File <==

--------------------------------------------------------------------------
MEMORY 60 GB

molecule dimer {
1 1
Li     0.000000     0.000000     0.000000
--
0 1
O      2.412484     0.000000     0.000000
H      2.997488     0.763729     0.000000
H      2.997488    -0.763729     0.000000
--
0 1
O     -2.412484     0.000000     0.000000
H     -2.997487    -0.763729     0.000000
H     -2.997487     0.763729     0.000000

units ang
no_reorient
no_com
symmetry c1
}

set {
basis        aug-cc-pVTZ
scf_type     df
}

energy("mp2", bsse_type="cp")
--------------------------------------------------------------------------

                               Psi4 1.8.2 release
    Molecular point group: c1
  Charge       = 1
  Multiplicity = 1
  Basis Set: AUG-CC-PVTZ
    Blend: AUG-CC-PVTZ
  Basis Set: (AUG-CC-PVTZ AUX)
    Blend: AUG-CC-PVTZ-JKFIT + DEF2-UNIVERSAL-JKFIT
  @DF-RHF Final Energy:    -7.23638374538267
    Total Energy =                         -7.2363837453826694
 Dipole X            :         -0.0000000            0.0000000           -0.0000000
 Dipole Y            :          0.0000000            0.0000000            0.0000000
 Dipole Z            :         -0.0000000            0.0000000           -0.0000000
 Magnitude           :                                                    0.0000000
  Basis Set: (AUG-CC-PVTZ AUX)
    Blend: AUG-CC-PVTZ-RI + DEF2-QZVPP-RI
	 Reference Energy          =      -7.2363837453826694 [Eh]
	 Singles Energy            =      -0.0000000000000000 [Eh]
	 Same-Spin Energy          =       0.0000000000000000 [Eh]
	 Opposite-Spin Energy      =      -0.0124971639833653 [Eh]
	 Correlation Energy        =      -0.0124971639833653 [Eh]
	 Total Energy              =      -7.2488809093660347 [Eh]
	 SCS Total Energy          =      -7.2513803421627081 [Eh]
                               Psi4 1.8.2 release
    Molecular point group: c1
  Basis Set: AUG-CC-PVTZ
    Blend: AUG-CC-PVTZ
  Basis Set: (AUG-CC-PVTZ AUX)
    Blend: AUG-CC-PVTZ-JKFIT + DEF2-UNIVERSAL-JKFIT
  @DF-RHF Final Energy:   -76.06033171416732
    Total Energy =                        -76.0603317141673188
  Basis Set: (AUG-CC-PVTZ AUX)
                               Psi4 1.8.2 release
  @DF-RHF Final Energy:  -152.11924216232433
    Total Energy =                       -152.1192421623243263
                               Psi4 1.8.2 release
  @DF-RHF Final Energy:   -83.33823640729923
    Total Energy =                        -83.3382364072992345
                               Psi4 1.8.2 release
  @DF-RHF Final Energy:   -83.33823635993369
    Total Energy =                        -83.3382363599336884
                               Psi4 1.8.2 release
  Multiplicity = 1
  @DF-RHF Final Energy:   -76.06033176789910
    Total Energy =                        -76.0603317678991004
	 Singles Energy            =      -0.0000000000000000 [Eh]
	 Same-Spin Energy          =      -0.0684454950043287 [Eh]
	 Opposite-Spin Energy      =      -0.2157050930139949 [Eh]
	 Correlation Energy        =      -0.2841505880183237 [Eh]
	 Total Energy              =     -76.3444823559174210 [Eh]
	 SCS Total Energy          =     -76.3419930445173378 [Eh]
                               Psi4 1.8.2 release
    Molecular point group: c1

    Geometry (in Bohr), charge = 1, multiplicity = 1:

       Center              X                  Y                   Z               Mass
    ------------   -----------------  -----------------  -----------------  -----------------
         LI           0.000000000000     0.000000000000     0.000000000000     7.016003436600
         O            4.558934042049     0.000000000000     0.000000000000    15.994914619570
         H            5.664431384346     1.443238644070     0.000000000000     1.007825032230
         H            5.664431384346    -1.443238644070     0.000000000000     1.007825032230
         O           -4.558934042049     0.000000000000     0.000000000000    15.994914619570
         H           -5.664429494620    -1.443238644070     0.000000000000     1.007825032230
         H           -5.664429494620     1.443238644070     0.000000000000     1.007825032230

  Charge       = 1
  Multiplicity = 1
  Basis Set: AUG-CC-PVTZ
    Blend: AUG-CC-PVTZ
  Basis Set: (AUG-CC-PVTZ AUX)
    Blend: AUG-CC-PVTZ-JKFIT + DEF2-UNIVERSAL-JKFIT

    Orbital Energies [Eh]
    ---------------------

    Doubly Occupied:

       1A    -20.757366     2A    -20.757366     3A     -2.688560
       4A     -1.540348     5A     -1.540295     6A     -0.904677
       7A     -0.904625     8A     -0.789745     9A     -0.788952
      10A     -0.702302    11A     -0.701966

  @DF-RHF Final Energy:  -159.43666793287372

   => Energetics <=

    Nuclear Repulsion Energy =             41.3426428264935026
    One-Electron Energy =                -297.4062147267442242
    Two-Electron Energy =                  96.6269039673770180
    Total Energy =                       -159.4366679328737177
 Dipole X            :         -0.0000027            0.0000038            0.0000010
 Dipole Y            :         -0.0000000            0.0000000           -0.0000000
 Dipole Z            :         -0.0000000            0.0000000           -0.0000000
 Magnitude           :                                                    0.0000010
  Basis Set: (AUG-CC-PVTZ AUX)
    Blend: AUG-CC-PVTZ-RI + DEF2-QZVPP-RI
	 Reference Energy          =    -159.4366679328737177 [Eh]
	 Singles Energy            =      -0.0000000000000000 [Eh]
	 Same-Spin Energy          =      -0.1363691908596241 [Eh]
	 Opposite-Spin Energy      =      -0.4416538733954620 [Eh]
	 Correlation Energy        =      -0.5780230642550861 [Eh]
	 Total Energy              =    -160.0146909971288096 [Eh]

	 ================> DF-SCS-MP2 Energies <==================
	-----------------------------------------------------------
	 SCS Same-Spin Scale       =       0.3333333333333333 [-]
	 SCS Opposite-Spin Scale   =       1.2000000000000000 [-]
	 SCS Same-Spin Energy      =      -0.0454563969532080 [Eh]
	 SCS Opposite-Spin Energy  =      -0.5299846480745544 [Eh]
	 SCS Correlation Energy    =      -0.5754410450277624 [Eh]
	 SCS Total Energy          =    -160.0121089779014767 [Eh]
	-----------------------------------------------------------

*** Psi4 exiting successfully. Buy a developer a beer!
