                               Psi4 1.9 release

  ==> Input File <==

--------------------------------------------------------------------------
MEMORY 60 GB

molecule dimer {
1 1
Li     0.000000     0.000000     0.000000
--
0 1
O      1.762969     0.000000     0.000000
H      2.347973     0.763729     0.000000
H      2.347973    -0.763729     0.000000
O     -1.762969     0.000000     0.000000
H     -2.347972    -0.763729     0.000000
H     -2.347972     0.763729     0.000000

units ang
no_reorient
no_com
symmetry c1
}

set {
basis        aug-cc-pVTZ
scf_type     df
}

energy("mp2", bsse_type="cp")
--------------------------------------------------------------------------

                               Psi4 1.9 release
    Molecular point group: c1
  Charge       = 0
  Multiplicity = 1
  Basis Set: AUG-CC-PVTZ
    Blend: AUG-CC-PVTZ
  Basis Set: (AUG-CC-PVTZ AUX)
    Blend: AUG-CC-PVTZ-JKFIT + DEF2-UNIVERSAL-JKFIT
  @DF-RHF Final Energy:  -152.11722233737638
    Total Energy =                       -152.1172223373764041
 Dipole X            :         -0.0000029            0.0000038            0.0000008
 Dipole Y            :         -0.0000000            0.0000000           -0.0000000
 Dipole Z            :          0.0000000            0.0000000            0.0000000
 Magnitude           :                                                    0.0000008
  Basis Set: (AUG-CC-PVTZ AUX)
    Blend: AUG-CC-PVTZ-RI + DEF2-QZVPP-RI
	 Reference Energy          =    -152.1172223373763757 [Eh]
	 Singles Energy            =      -0.0000000000000000 [Eh]
	 Same-Spin Energy          =      -0.1372762178069237 [Eh]
	 Opposite-Spin Energy      =      -0.4325908232209584 [Eh]
	 Correlation Energy        =      -0.5698670410278821 [Eh]
	 Total Energy              =    -152.6870893784042664 [Eh]
	 SCS Total Energy          =    -152.6820900645105041 [Eh]
                               Psi4 1.9 release
    Molecular point group: c1
  Multiplicity = 1
  Basis Set: AUG-CC-PVTZ
    Blend: AUG-CC-PVTZ
  Basis Set: (AUG-CC-PVTZ AUX)
    Blend: AUG-CC-PVTZ-JKFIT + DEF2-UNIVERSAL-JKFIT
  @DF-RHF Final Energy:    -7.23638410471939
    Total Energy =                         -7.2363841047193915
  Basis Set: (AUG-CC-PVTZ AUX)
	 Singles Energy            =      -0.0000000000000000 [Eh]
	 Same-Spin Energy          =      -0.0000000000000000 [Eh]
	 Opposite-Spin Energy      =      -0.0157052407041224 [Eh]
	 Correlation Energy        =      -0.0157052407041224 [Eh]
	 Total Energy              =      -7.2520893454235136 [Eh]
	 SCS Total Energy          =      -7.2552303935643385 [Eh]
                               Psi4 1.9 release
    Molecular point group: c1

    Geometry (in Bohr), charge = 1, multiplicity = 1:

       Center              X                  Y                   Z               Mass
    ------------   -----------------  -----------------  -----------------  -----------------
         LI           0.000000000000     0.000000000000     0.000000000000     7.016003436600
         O            3.331528577672     0.000000000000     0.000000000000    15.994914619570
         H            4.437025919970     1.443238644070     0.000000000000     1.007825032230
         H            4.437025919970    -1.443238644070     0.000000000000     1.007825032230
         O           -3.331528577672     0.000000000000     0.000000000000    15.994914619570
         H           -4.437024030243    -1.443238644070     0.000000000000     1.007825032230
         H           -4.437024030243     1.443238644070     0.000000000000     1.007825032230

  Charge       = 1
  Multiplicity = 1
  Basis Set: AUG-CC-PVTZ
    Blend: AUG-CC-PVTZ
  Basis Set: (AUG-CC-PVTZ AUX)
    Blend: AUG-CC-PVTZ-JKFIT + DEF2-UNIVERSAL-JKFIT

    Orbital Energies [Eh]
    ---------------------

    Doubly Occupied:

       1A    -20.792741     2A    -20.792741     3A     -2.611021
       4A     -1.585408     5A     -1.583468     6A     -0.946410
       7A     -0.945486     8A     -0.854859     9A     -0.842618
      10A     -0.747559    11A     -0.744038

  @DF-RHF Final Energy:  -159.45991622183240

   => Energetics <=

    Nuclear Repulsion Energy =             49.3692726702873657
    One-Electron Energy =                -312.7656754623681081
    Two-Electron Energy =                 103.9364865702483200
    Total Energy =                       -159.4599162218324011
 Dipole X            :         -0.0000025            0.0000038            0.0000012
 Dipole Y            :         -0.0000000            0.0000000           -0.0000000
 Dipole Z            :          0.0000000            0.0000000            0.0000000
 Magnitude           :                                                    0.0000012
  Basis Set: (AUG-CC-PVTZ AUX)
    Blend: AUG-CC-PVTZ-RI + DEF2-QZVPP-RI
	 Reference Energy          =    -159.4599162218324011 [Eh]
	 Singles Energy            =      -0.0000000000000000 [Eh]
	 Same-Spin Energy          =      -0.1359276981328893 [Eh]
	 Opposite-Spin Energy      =      -0.4424545434371484 [Eh]
	 Correlation Energy        =      -0.5783822415700377 [Eh]
	 Total Energy              =    -160.0382984634024410 [Eh]

	 ================> DF-SCS-MP2 Energies <==================
	-----------------------------------------------------------
	 SCS Same-Spin Scale       =       0.3333333333333333 [-]
	 SCS Opposite-Spin Scale   =       1.2000000000000000 [-]
	 SCS Same-Spin Energy      =      -0.0453092327109631 [Eh]
	 SCS Opposite-Spin Energy  =      -0.5309454521245781 [Eh]
	 SCS Correlation Energy    =      -0.5762546848355412 [Eh]
	 SCS Total Energy          =    -160.0361709066679339 [Eh]
	-----------------------------------------------------------

*** Psi4 exiting successfully. Buy a developer a beer!
