                               Psi4 1.8.2 release

  ==> Input File <==

--------------------------------------------------------------------------
MEMORY 60 GB

molecule dimer {
1 1
Li         0.000000     0.000000     0.000000
Gh(O)      3.711514     0.000000     0.000000
Gh(H)      4.296518     0.763729     0.000000
Gh(H)      4.296518    -0.763729     0.000000
Gh(O)     -3.711514     0.000000     0.000000
Gh(H)     -4.296517    -0.763729     0.000000
Gh(H)     -4.296517     0.763729     0.000000

units ang
no_reorient
no_com
symmetry c1
}

set {
basis        aug-cc-pVTZ
scf_type     df
}

energy("mp2")
--------------------------------------------------------------------------

    Molecular point group: c1

    Geometry (in Angstrom), charge = 1, multiplicity = 1:

       Center              X                  Y                   Z               Mass
    ------------   -----------------  -----------------  -----------------  -----------------
         LI           0.000000000000     0.000000000000     0.000000000000     7.016003436600
      Gh(O)           3.711514000000     0.000000000000     0.000000000000    15.994914619570
      Gh(H)           4.296518000000     0.763729000000     0.000000000000     1.007825032230
      Gh(H)           4.296518000000    -0.763729000000     0.000000000000     1.007825032230
      Gh(O)          -3.711514000000     0.000000000000     0.000000000000    15.994914619570
      Gh(H)          -4.296517000000    -0.763729000000     0.000000000000     1.007825032230
      Gh(H)          -4.296517000000     0.763729000000     0.000000000000     1.007825032230

  Charge       = 1
  Multiplicity = 1
  Basis Set: AUG-CC-PVTZ
    Blend: AUG-CC-PVTZ
  Basis Set: (AUG-CC-PVTZ AUX)
    Blend: AUG-CC-PVTZ-JKFIT + DEF2-UNIVERSAL-JKFIT

    Orbital Energies [Eh]
    ---------------------

    Doubly Occupied:

       1A     -2.792366

  @DF-RHF Final Energy:    -7.23638284898571

   => Energetics <=

    Nuclear Repulsion Energy =              0.0000000000000000
    One-Electron Energy =                  -8.8880332838922858
    Two-Electron Energy =                   1.6516504349065755
    Total Energy =                         -7.2363828489857100
 Dipole X            :          0.0000000            0.0000000            0.0000000
 Dipole Y            :         -0.0000000            0.0000000           -0.0000000
 Dipole Z            :          0.0000000            0.0000000            0.0000000
 Magnitude           :                                                    0.0000000
  Basis Set: (AUG-CC-PVTZ AUX)
    Blend: AUG-CC-PVTZ-RI + DEF2-QZVPP-RI
	 Reference Energy          =      -7.2363828489857100 [Eh]
	 Singles Energy            =      -0.0000000000000000 [Eh]
	 Same-Spin Energy          =       0.0000000000000000 [Eh]
	 Opposite-Spin Energy      =      -0.0112669014552182 [Eh]
	 Correlation Energy        =      -0.0112669014552182 [Eh]
	 Total Energy              =      -7.2476497504409281 [Eh]

	 ================> DF-SCS-MP2 Energies <==================
	-----------------------------------------------------------
	 SCS Same-Spin Scale       =       0.3333333333333333 [-]
	 SCS Opposite-Spin Scale   =       1.2000000000000000 [-]
	 SCS Same-Spin Energy      =       0.0000000000000000 [Eh]
	 SCS Opposite-Spin Energy  =      -0.0135202817462619 [Eh]
	 SCS Correlation Energy    =      -0.0135202817462619 [Eh]
	 SCS Total Energy          =      -7.2499031307319717 [Eh]
	-----------------------------------------------------------

*** Psi4 exiting successfully. Buy a developer a beer!
