                               Psi4 1.8.2 release

  ==> Input File <==

--------------------------------------------------------------------------
MEMORY 60 GB

molecule dimer {
1 1
Li         0.000000     0.000000     0.000000
O          3.711514     0.000000     0.000000
H          4.296518     0.763729     0.000000
H          4.296518    -0.763729     0.000000
O         -3.711514     0.000000     0.000000
H         -4.296517    -0.763729     0.000000
H         -4.296517     0.763729     0.000000

units ang
no_reorient
no_com
symmetry c1
}

set {
basis        aug-cc-pVTZ
scf_type     df
}

energy("mp2")
--------------------------------------------------------------------------

    Molecular point group: c1

    Geometry (in Angstrom), charge = 1, multiplicity = 1:

       Center              X                  Y                   Z               Mass
    ------------   -----------------  -----------------  -----------------  -----------------
         LI           0.000000000000     0.000000000000     0.000000000000     7.016003436600
         O            3.711514000000     0.000000000000     0.000000000000    15.994914619570
         H            4.296518000000     0.763729000000     0.000000000000     1.007825032230
         H            4.296518000000    -0.763729000000     0.000000000000     1.007825032230
         O           -3.711514000000     0.000000000000     0.000000000000    15.994914619570
         H           -4.296517000000    -0.763729000000     0.000000000000     1.007825032230
         H           -4.296517000000     0.763729000000     0.000000000000     1.007825032230

  Charge       = 1
  Multiplicity = 1
  Basis Set: AUG-CC-PVTZ
    Blend: AUG-CC-PVTZ
  Basis Set: (AUG-CC-PVTZ AUX)
    Blend: AUG-CC-PVTZ-JKFIT + DEF2-UNIVERSAL-JKFIT

    Orbital Energies [Eh]
    ---------------------

    Doubly Occupied:

       1A    -20.698065     2A    -20.698065     3A     -2.755184
       4A     -1.481156     5A     -1.481155     6A     -0.846595
       7A     -0.846595     8A     -0.719743     9A     -0.719741
      10A     -0.641833    11A     -0.641824

  @DF-RHF Final Energy:  -159.38993748525004

   => Energetics <=

    Nuclear Repulsion Energy =             33.5056131889575610
    One-Electron Energy =                -282.7311843942887322
    Two-Electron Energy =                  89.8356337200811197
    Total Energy =                       -159.3899374852500443
 Dipole X            :         -0.0000029            0.0000038            0.0000009
 Dipole Y            :          0.0000000            0.0000000            0.0000000
 Dipole Z            :          0.0000000            0.0000000            0.0000000
 Magnitude           :                                                    0.0000009
  Basis Set: (AUG-CC-PVTZ AUX)
    Blend: AUG-CC-PVTZ-RI + DEF2-QZVPP-RI
	 Reference Energy          =    -159.3899374852500443 [Eh]
	 Singles Energy            =      -0.0000000000000000 [Eh]
	 Same-Spin Energy          =      -0.1365697030413065 [Eh]
	 Opposite-Spin Energy      =      -0.4410534119171379 [Eh]
	 Correlation Energy        =      -0.5776231149584444 [Eh]
	 Total Energy              =    -159.9675606002084862 [Eh]

	 ================> DF-SCS-MP2 Energies <==================
	-----------------------------------------------------------
	 SCS Same-Spin Scale       =       0.3333333333333333 [-]
	 SCS Opposite-Spin Scale   =       1.2000000000000000 [-]
	 SCS Same-Spin Energy      =      -0.0455232343471022 [Eh]
	 SCS Opposite-Spin Energy  =      -0.5292640943005655 [Eh]
	 SCS Correlation Energy    =      -0.5747873286476677 [Eh]
	 SCS Total Energy          =    -159.9647248138977034 [Eh]
	-----------------------------------------------------------

*** Psi4 exiting successfully. Buy a developer a beer!
