                               Psi4 1.8.2 release

  ==> Input File <==

--------------------------------------------------------------------------
MEMORY 60 GB

molecule dimer {
0 1
Gh(Li)     0.000000     0.000000     0.000000
O          2.598060     0.000000     0.000000
H          3.183064     0.763729     0.000000
H          3.183064    -0.763729     0.000000
Gh(O)     -2.598060     0.000000     0.000000
Gh(H)     -3.183063    -0.763729     0.000000
Gh(H)     -3.183063     0.763729     0.000000

units ang
no_reorient
no_com
symmetry c1
}

set {
basis        aug-cc-pVTZ
scf_type     df
}

energy("mp2")
--------------------------------------------------------------------------

    Molecular point group: c1

    Geometry (in Angstrom), charge = 0, multiplicity = 1:

       Center              X                  Y                   Z               Mass
    ------------   -----------------  -----------------  -----------------  -----------------
      Gh(LI)          0.000000000000     0.000000000000     0.000000000000     7.016003436600
         O            2.598060000000     0.000000000000     0.000000000000    15.994914619570
         H            3.183064000000     0.763729000000     0.000000000000     1.007825032230
         H            3.183064000000    -0.763729000000     0.000000000000     1.007825032230
      Gh(O)          -2.598060000000     0.000000000000     0.000000000000    15.994914619570
      Gh(H)          -3.183063000000    -0.763729000000     0.000000000000     1.007825032230
      Gh(H)          -3.183063000000     0.763729000000     0.000000000000     1.007825032230

  Charge       = 0
  Multiplicity = 1
  Basis Set: AUG-CC-PVTZ
    Blend: AUG-CC-PVTZ
  Basis Set: (AUG-CC-PVTZ AUX)
    Blend: AUG-CC-PVTZ-JKFIT + DEF2-UNIVERSAL-JKFIT

    Orbital Energies [Eh]
    ---------------------

    Doubly Occupied:

       1A    -20.567719     2A     -1.350675     3A     -0.716299
       4A     -0.582867     5A     -0.509752

  @DF-RHF Final Energy:   -76.06031879747611

   => Energetics <=

    Nuclear Repulsion Energy =              9.1474054777200244
    One-Electron Energy =                -122.9608229343733825
    Two-Electron Energy =                  37.7530986591772333
    Total Energy =                        -76.0603187974761283
 Dipole X            :        -50.5297859           51.3072133            0.7774273
 Dipole Y            :         -0.0000000            0.0000000           -0.0000000
 Dipole Z            :          0.0000000            0.0000000            0.0000000
 Magnitude           :                                                    0.7774273
  Basis Set: (AUG-CC-PVTZ AUX)
    Blend: AUG-CC-PVTZ-RI + DEF2-QZVPP-RI
	 Reference Energy          =     -76.0603187974761141 [Eh]
	 Singles Energy            =      -0.0000000000000000 [Eh]
	 Same-Spin Energy          =      -0.0684396418140748 [Eh]
	 Opposite-Spin Energy      =      -0.2156451859308791 [Eh]
	 Correlation Energy        =      -0.2840848277449539 [Eh]
	 Total Energy              =     -76.3444036252210623 [Eh]

	 ================> DF-SCS-MP2 Energies <==================
	-----------------------------------------------------------
	 SCS Same-Spin Scale       =       0.3333333333333333 [-]
	 SCS Opposite-Spin Scale   =       1.2000000000000000 [-]
	 SCS Same-Spin Energy      =      -0.0228132139380249 [Eh]
	 SCS Opposite-Spin Energy  =      -0.2587742231170548 [Eh]
	 SCS Correlation Energy    =      -0.2815874370550798 [Eh]
	 SCS Total Energy          =     -76.3419062345311943 [Eh]
	-----------------------------------------------------------

*** Psi4 exiting successfully. Buy a developer a beer!
