                               Psi4 1.8.2 release

  ==> Input File <==

--------------------------------------------------------------------------
MEMORY 60 GB

molecule dimer {
1 1
Li         0.000000     0.000000     0.000000
O          2.412484     0.000000     0.000000
H          2.997488     0.763729     0.000000
H          2.997488    -0.763729     0.000000
O         -2.412484     0.000000     0.000000
H         -2.997487    -0.763729     0.000000
H         -2.997487     0.763729     0.000000

units ang
no_reorient
no_com
symmetry c1
}

set {
basis        aug-cc-pVTZ
scf_type     df
}

energy("mp2")
--------------------------------------------------------------------------

    Molecular point group: c1

    Geometry (in Angstrom), charge = 1, multiplicity = 1:

       Center              X                  Y                   Z               Mass
    ------------   -----------------  -----------------  -----------------  -----------------
         LI           0.000000000000     0.000000000000     0.000000000000     7.016003436600
         O            2.412484000000     0.000000000000     0.000000000000    15.994914619570
         H            2.997488000000     0.763729000000     0.000000000000     1.007825032230
         H            2.997488000000    -0.763729000000     0.000000000000     1.007825032230
         O           -2.412484000000     0.000000000000     0.000000000000    15.994914619570
         H           -2.997487000000    -0.763729000000     0.000000000000     1.007825032230
         H           -2.997487000000     0.763729000000     0.000000000000     1.007825032230

  Charge       = 1
  Multiplicity = 1
  Basis Set: AUG-CC-PVTZ
    Blend: AUG-CC-PVTZ
  Basis Set: (AUG-CC-PVTZ AUX)
    Blend: AUG-CC-PVTZ-JKFIT + DEF2-UNIVERSAL-JKFIT

    Orbital Energies [Eh]
    ---------------------

    Doubly Occupied:

       1A    -20.757366     2A    -20.757366     3A     -2.688560
       4A     -1.540348     5A     -1.540295     6A     -0.904677
       7A     -0.904625     8A     -0.789745     9A     -0.788952
      10A     -0.702302    11A     -0.701966

  @DF-RHF Final Energy:  -159.43666793287341

   => Energetics <=

    Nuclear Repulsion Energy =             41.3426428264935026
    One-Electron Energy =                -297.4062147267430873
    Two-Electron Energy =                  96.6269039673761938
    Total Energy =                       -159.4366679328734051
 Dipole X            :         -0.0000027            0.0000038            0.0000010
 Dipole Y            :         -0.0000000            0.0000000           -0.0000000
 Dipole Z            :         -0.0000000            0.0000000           -0.0000000
 Magnitude           :                                                    0.0000010
  Basis Set: (AUG-CC-PVTZ AUX)
    Blend: AUG-CC-PVTZ-RI + DEF2-QZVPP-RI
	 Reference Energy          =    -159.4366679328734051 [Eh]
	 Singles Energy            =      -0.0000000000000000 [Eh]
	 Same-Spin Energy          =      -0.1363691908596253 [Eh]
	 Opposite-Spin Energy      =      -0.4416538733954572 [Eh]
	 Correlation Energy        =      -0.5780230642550825 [Eh]
	 Total Energy              =    -160.0146909971284970 [Eh]

	 ================> DF-SCS-MP2 Energies <==================
	-----------------------------------------------------------
	 SCS Same-Spin Scale       =       0.3333333333333333 [-]
	 SCS Opposite-Spin Scale   =       1.2000000000000000 [-]
	 SCS Same-Spin Energy      =      -0.0454563969532084 [Eh]
	 SCS Opposite-Spin Energy  =      -0.5299846480745486 [Eh]
	 SCS Correlation Energy    =      -0.5754410450277571 [Eh]
	 SCS Total Energy          =    -160.0121089779011641 [Eh]
	-----------------------------------------------------------

*** Psi4 exiting successfully. Buy a developer a beer!
