                               Psi4 1.8.2 release

  ==> Input File <==

--------------------------------------------------------------------------
MEMORY 60 GB

molecule dimer {
1 1
Li         0.000000     0.000000     0.000000
O          1.855757     0.000000     0.000000
H          2.440761     0.763729     0.000000
H          2.440761    -0.763729     0.000000
O         -1.855757     0.000000     0.000000
H         -2.440760    -0.763729     0.000000
H         -2.440760     0.763729     0.000000

units ang
no_reorient
no_com
symmetry c1
}

set {
basis        aug-cc-pVTZ
scf_type     df
}

energy("mp2")
--------------------------------------------------------------------------

    Molecular point group: c1

    Geometry (in Angstrom), charge = 1, multiplicity = 1:

       Center              X                  Y                   Z               Mass
    ------------   -----------------  -----------------  -----------------  -----------------
         LI           0.000000000000     0.000000000000     0.000000000000     7.016003436600
         O            1.855757000000     0.000000000000     0.000000000000    15.994914619570
         H            2.440761000000     0.763729000000     0.000000000000     1.007825032230
         H            2.440761000000    -0.763729000000     0.000000000000     1.007825032230
         O           -1.855757000000     0.000000000000     0.000000000000    15.994914619570
         H           -2.440760000000    -0.763729000000     0.000000000000     1.007825032230
         H           -2.440760000000     0.763729000000     0.000000000000     1.007825032230

  Charge       = 1
  Multiplicity = 1
  Basis Set: AUG-CC-PVTZ
    Blend: AUG-CC-PVTZ
  Basis Set: (AUG-CC-PVTZ AUX)
    Blend: AUG-CC-PVTZ-JKFIT + DEF2-UNIVERSAL-JKFIT

    Orbital Energies [Eh]
    ---------------------

    Doubly Occupied:

       1A    -20.788546     2A    -20.788546     3A     -2.623177
       4A     -1.578231     5A     -1.577084     6A     -0.940026
       7A     -0.939422     8A     -0.843668     9A     -0.835296
      10A     -0.740386    11A     -0.737888

  @DF-RHF Final Energy:  -159.46208587061338

   => Energetics <=

    Nuclear Repulsion Energy =             47.8942994651115015
    One-Electron Energy =                -309.9282296943302413
    Two-Electron Energy =                 102.5718443586053752
    Total Energy =                       -159.4620858706133788
 Dipole X            :         -0.0000026            0.0000038            0.0000012
 Dipole Y            :         -0.0000000            0.0000000           -0.0000000
 Dipole Z            :         -0.0000000            0.0000000           -0.0000000
 Magnitude           :                                                    0.0000012
  Basis Set: (AUG-CC-PVTZ AUX)
    Blend: AUG-CC-PVTZ-RI + DEF2-QZVPP-RI
	 Reference Energy          =    -159.4620858706133788 [Eh]
	 Singles Energy            =      -0.0000000000000000 [Eh]
	 Same-Spin Energy          =      -0.1359483330168821 [Eh]
	 Opposite-Spin Energy      =      -0.4422320826653605 [Eh]
	 Correlation Energy        =      -0.5781804156822425 [Eh]
	 Total Energy              =    -160.0402662862956333 [Eh]

	 ================> DF-SCS-MP2 Energies <==================
	-----------------------------------------------------------
	 SCS Same-Spin Scale       =       0.3333333333333333 [-]
	 SCS Opposite-Spin Scale   =       1.2000000000000000 [-]
	 SCS Same-Spin Energy      =      -0.0453161110056274 [Eh]
	 SCS Opposite-Spin Energy  =      -0.5306784991984326 [Eh]
	 SCS Correlation Energy    =      -0.5759946102040600 [Eh]
	 SCS Total Energy          =    -160.0380804808174275 [Eh]
	-----------------------------------------------------------

*** Psi4 exiting successfully. Buy a developer a beer!
