                               Psi4 1.9 release

  ==> Input File <==

--------------------------------------------------------------------------
MEMORY 60 GB

molecule dimer {
1 1
Li     0.000000     0.000000     0.000000
--
0 1
O      2.226908     0.000000     0.000000
H      2.811912     0.763729     0.000000
H      2.811912    -0.763729     0.000000
O     -2.226908     0.000000     0.000000
H     -2.811911    -0.763729     0.000000
H     -2.811911     0.763729     0.000000

units ang
no_reorient
no_com
symmetry c1
}

set {
basis        aug-cc-pVTZ
scf_type     df
}

energy("mp2", bsse_type="cp")
--------------------------------------------------------------------------

                               Psi4 1.9 release
    Molecular point group: c1
  Charge       = 0
  Multiplicity = 1
  Basis Set: AUG-CC-PVTZ
    Blend: AUG-CC-PVTZ
  Basis Set: (AUG-CC-PVTZ AUX)
    Blend: AUG-CC-PVTZ-JKFIT + DEF2-UNIVERSAL-JKFIT
  @DF-RHF Final Energy:  -152.11890957187344
    Total Energy =                       -152.1189095718734734
 Dipole X            :         -0.0000029            0.0000038            0.0000009
 Dipole Y            :          0.0000000            0.0000000            0.0000000
 Dipole Z            :          0.0000000            0.0000000            0.0000000
 Magnitude           :                                                    0.0000009
  Basis Set: (AUG-CC-PVTZ AUX)
    Blend: AUG-CC-PVTZ-RI + DEF2-QZVPP-RI
	 Reference Energy          =    -152.1189095718734450 [Eh]
	 Singles Energy            =      -0.0000000000000000 [Eh]
	 Same-Spin Energy          =      -0.1370115675115753 [Eh]
	 Opposite-Spin Energy      =      -0.4317912096399736 [Eh]
	 Correlation Energy        =      -0.5688027771515489 [Eh]
	 Total Energy              =    -152.6877123490249915 [Eh]
	 SCS Total Energy          =    -152.6827295459452785 [Eh]
                               Psi4 1.9 release
    Molecular point group: c1
  Multiplicity = 1
  Basis Set: AUG-CC-PVTZ
    Blend: AUG-CC-PVTZ
  Basis Set: (AUG-CC-PVTZ AUX)
    Blend: AUG-CC-PVTZ-JKFIT + DEF2-UNIVERSAL-JKFIT
  @DF-RHF Final Energy:    -7.23638377676865
    Total Energy =                         -7.2363837767686539
  Basis Set: (AUG-CC-PVTZ AUX)
	 Singles Energy            =      -0.0000000000000000 [Eh]
	 Same-Spin Energy          =      -0.0000000000000000 [Eh]
	 Opposite-Spin Energy      =      -0.0130286857097895 [Eh]
	 Correlation Energy        =      -0.0130286857097895 [Eh]
	 Total Energy              =      -7.2494124624784435 [Eh]
	 SCS Total Energy          =      -7.2520181996204016 [Eh]
                               Psi4 1.9 release
    Molecular point group: c1

    Geometry (in Bohr), charge = 1, multiplicity = 1:

       Center              X                  Y                   Z               Mass
    ------------   -----------------  -----------------  -----------------  -----------------
         LI           0.000000000000     0.000000000000     0.000000000000     7.016003436600
         O            4.208246226591     0.000000000000     0.000000000000    15.994914619570
         H            5.313743568888     1.443238644070     0.000000000000     1.007825032230
         H            5.313743568888    -1.443238644070     0.000000000000     1.007825032230
         O           -4.208246226591     0.000000000000     0.000000000000    15.994914619570
         H           -5.313741679162    -1.443238644070     0.000000000000     1.007825032230
         H           -5.313741679162     1.443238644070     0.000000000000     1.007825032230

  Charge       = 1
  Multiplicity = 1
  Basis Set: AUG-CC-PVTZ
    Blend: AUG-CC-PVTZ
  Basis Set: (AUG-CC-PVTZ AUX)
    Blend: AUG-CC-PVTZ-JKFIT + DEF2-UNIVERSAL-JKFIT

    Orbital Energies [Eh]
    ---------------------

    Doubly Occupied:

       1A    -20.768200     2A    -20.768200     3A     -2.669468
       4A     -1.552092     5A     -1.551948     6A     -0.915889
       7A     -0.915774     8A     -0.805447     9A     -0.803664
      10A     -0.714195    11A     -0.713540

  @DF-RHF Final Energy:  -159.44750588975521

   => Energetics <=

    Nuclear Repulsion Energy =             43.1769481456298081
    One-Electron Energy =                -300.8920704951643188
    Two-Electron Energy =                  98.2676164597792905
    Total Energy =                       -159.4475058897552344
 Dipole X            :         -0.0000027            0.0000038            0.0000011
 Dipole Y            :         -0.0000000            0.0000000           -0.0000000
 Dipole Z            :          0.0000000            0.0000000            0.0000000
 Magnitude           :                                                    0.0000011
  Basis Set: (AUG-CC-PVTZ AUX)
    Blend: AUG-CC-PVTZ-RI + DEF2-QZVPP-RI
	 Reference Energy          =    -159.4475058897552060 [Eh]
	 Singles Energy            =      -0.0000000000000000 [Eh]
	 Same-Spin Energy          =      -0.1362409230012797 [Eh]
	 Opposite-Spin Energy      =      -0.4417861394908394 [Eh]
	 Correlation Energy        =      -0.5780270624921191 [Eh]
	 Total Energy              =    -160.0255329522473176 [Eh]

	 ================> DF-SCS-MP2 Energies <==================
	-----------------------------------------------------------
	 SCS Same-Spin Scale       =       0.3333333333333333 [-]
	 SCS Opposite-Spin Scale   =       1.2000000000000000 [-]
	 SCS Same-Spin Energy      =      -0.0454136410004266 [Eh]
	 SCS Opposite-Spin Energy  =      -0.5301433673890074 [Eh]
	 SCS Correlation Energy    =      -0.5755570083894339 [Eh]
	 SCS Total Energy          =    -160.0230628981446444 [Eh]
	-----------------------------------------------------------

*** Psi4 exiting successfully. Buy a developer a beer!
