                               Psi4 1.8.2 release

  ==> Input File <==

--------------------------------------------------------------------------
MEMORY 60 GB

molecule dimer {
1 1
Li     0.000000     0.000000     0.000000
--
0 1
O      2.598060     0.000000     0.000000
H      3.183064     0.763729     0.000000
H      3.183064    -0.763729     0.000000
--
0 1
O     -2.598060     0.000000     0.000000
H     -3.183063    -0.763729     0.000000
H     -3.183063     0.763729     0.000000

units ang
no_reorient
no_com
symmetry c1
}

set {
basis        aug-cc-pVTZ
scf_type     df
}

energy("mp2", bsse_type="cp")
--------------------------------------------------------------------------

                               Psi4 1.8.2 release
    Molecular point group: c1
  Charge       = 1
  Multiplicity = 1
  Basis Set: AUG-CC-PVTZ
    Blend: AUG-CC-PVTZ
  Basis Set: (AUG-CC-PVTZ AUX)
    Blend: AUG-CC-PVTZ-JKFIT + DEF2-UNIVERSAL-JKFIT
  @DF-RHF Final Energy:    -7.23638368769325
    Total Energy =                         -7.2363836876932508
 Dipole X            :         -0.0000000            0.0000000           -0.0000000
 Dipole Y            :          0.0000000            0.0000000            0.0000000
 Dipole Z            :         -0.0000000            0.0000000           -0.0000000
 Magnitude           :                                                    0.0000000
  Basis Set: (AUG-CC-PVTZ AUX)
    Blend: AUG-CC-PVTZ-RI + DEF2-QZVPP-RI
	 Reference Energy          =      -7.2363836876932508 [Eh]
	 Singles Energy            =      -0.0000000000000000 [Eh]
	 Same-Spin Energy          =       0.0000000000000000 [Eh]
	 Opposite-Spin Energy      =      -0.0121122203280873 [Eh]
	 Correlation Energy        =      -0.0121122203280873 [Eh]
	 Total Energy              =      -7.2484959080213383 [Eh]
	 SCS Total Energy          =      -7.2509183520869556 [Eh]
                               Psi4 1.8.2 release
    Molecular point group: c1
  Basis Set: AUG-CC-PVTZ
    Blend: AUG-CC-PVTZ
  Basis Set: (AUG-CC-PVTZ AUX)
    Blend: AUG-CC-PVTZ-JKFIT + DEF2-UNIVERSAL-JKFIT
  @DF-RHF Final Energy:   -76.06031879747603
    Total Energy =                        -76.0603187974760289
  Basis Set: (AUG-CC-PVTZ AUX)
                               Psi4 1.8.2 release
  @DF-RHF Final Energy:  -152.11948348838570
    Total Energy =                       -152.1194834883856970
                               Psi4 1.8.2 release
  @DF-RHF Final Energy:   -83.33273571865263
    Total Energy =                        -83.3327357186526285
                               Psi4 1.8.2 release
  @DF-RHF Final Energy:   -83.33273567111037
    Total Energy =                        -83.3327356711103562
                               Psi4 1.8.2 release
  Multiplicity = 1
  @DF-RHF Final Energy:   -76.06031885124446
    Total Energy =                        -76.0603188512444603
	 Singles Energy            =      -0.0000000000000000 [Eh]
	 Same-Spin Energy          =      -0.0684396295332826 [Eh]
	 Opposite-Spin Energy      =      -0.2156451486074019 [Eh]
	 Correlation Energy        =      -0.2840847781406844 [Eh]
	 Total Energy              =     -76.3444036293851411 [Eh]
	 SCS Total Energy          =     -76.3419062394177672 [Eh]
                               Psi4 1.8.2 release
    Molecular point group: c1

    Geometry (in Bohr), charge = 1, multiplicity = 1:

       Center              X                  Y                   Z               Mass
    ------------   -----------------  -----------------  -----------------  -----------------
         LI           0.000000000000     0.000000000000     0.000000000000     7.016003436600
         O            4.909621857507     0.000000000000     0.000000000000    15.994914619570
         H            6.015119199804     1.443238644070     0.000000000000     1.007825032230
         H            6.015119199804    -1.443238644070     0.000000000000     1.007825032230
         O           -4.909621857507     0.000000000000     0.000000000000    15.994914619570
         H           -6.015117310078    -1.443238644070     0.000000000000     1.007825032230
         H           -6.015117310078     1.443238644070     0.000000000000     1.007825032230

  Charge       = 1
  Multiplicity = 1
  Basis Set: AUG-CC-PVTZ
    Blend: AUG-CC-PVTZ
  Basis Set: (AUG-CC-PVTZ AUX)
    Blend: AUG-CC-PVTZ-JKFIT + DEF2-UNIVERSAL-JKFIT

    Orbital Energies [Eh]
    ---------------------

    Doubly Occupied:

       1A    -20.746821     2A    -20.746821     3A     -2.704576
       4A     -1.529466     5A     -1.529446     6A     -0.894152
       7A     -0.894128     8A     -0.775914     9A     -0.775574
      10A     -0.691223    11A     -0.691053

  @DF-RHF Final Energy:  -159.42651455881361

   => Energetics <=

    Nuclear Repulsion Energy =             39.7610741142517128
    One-Electron Energy =                -294.4168231895534404
    Two-Electron Energy =                  95.2292345164881198
    Total Energy =                       -159.4265145588136079
 Dipole X            :         -0.0000028            0.0000038            0.0000010
 Dipole Y            :          0.0000000            0.0000000            0.0000000
 Dipole Z            :         -0.0000000            0.0000000           -0.0000000
 Magnitude           :                                                    0.0000010
  Basis Set: (AUG-CC-PVTZ AUX)
    Blend: AUG-CC-PVTZ-RI + DEF2-QZVPP-RI
	 Reference Energy          =    -159.4265145588136079 [Eh]
	 Singles Energy            =      -0.0000000000000000 [Eh]
	 Same-Spin Energy          =      -0.1364575257996472 [Eh]
	 Opposite-Spin Energy      =      -0.4415145847558341 [Eh]
	 Correlation Energy        =      -0.5779721105554814 [Eh]
	 Total Energy              =    -160.0044866693691006 [Eh]

	 ================> DF-SCS-MP2 Energies <==================
	-----------------------------------------------------------
	 SCS Same-Spin Scale       =       0.3333333333333333 [-]
	 SCS Opposite-Spin Scale   =       1.2000000000000000 [-]
	 SCS Same-Spin Energy      =      -0.0454858419332157 [Eh]
	 SCS Opposite-Spin Energy  =      -0.5298175017070009 [Eh]
	 SCS Correlation Energy    =      -0.5753033436402166 [Eh]
	 SCS Total Energy          =    -160.0018179024538370 [Eh]
	-----------------------------------------------------------

*** Psi4 exiting successfully. Buy a developer a beer!
