                               Psi4 1.9 release

  ==> Input File <==

--------------------------------------------------------------------------
MEMORY 60 GB

molecule dimer {
1 1
Li     0.000000     0.000000     0.000000
--
0 1
O      2.412484     0.000000     0.000000
H      2.997488     0.763729     0.000000
H      2.997488    -0.763729     0.000000
O     -2.412484     0.000000     0.000000
H     -2.997487    -0.763729     0.000000
H     -2.997487     0.763729     0.000000

units ang
no_reorient
no_com
symmetry c1
}

set {
basis        aug-cc-pVTZ
scf_type     df
}

energy("mp2", bsse_type="cp")
--------------------------------------------------------------------------

                               Psi4 1.9 release
    Molecular point group: c1
  Charge       = 0
  Multiplicity = 1
  Basis Set: AUG-CC-PVTZ
    Blend: AUG-CC-PVTZ
  Basis Set: (AUG-CC-PVTZ AUX)
    Blend: AUG-CC-PVTZ-JKFIT + DEF2-UNIVERSAL-JKFIT
  @DF-RHF Final Energy:  -152.11924216233231
    Total Energy =                       -152.1192421623323128
 Dipole X            :         -0.0000029            0.0000038            0.0000009
 Dipole Y            :          0.0000000            0.0000000            0.0000000
 Dipole Z            :         -0.0000000            0.0000000           -0.0000000
 Magnitude           :                                                    0.0000009
  Basis Set: (AUG-CC-PVTZ AUX)
    Blend: AUG-CC-PVTZ-RI + DEF2-QZVPP-RI
	 Reference Energy          =    -152.1192421623323128 [Eh]
	 Singles Energy            =      -0.0000000000000000 [Eh]
	 Same-Spin Energy          =      -0.1369643215496479 [Eh]
	 Opposite-Spin Energy      =      -0.4315807166458858 [Eh]
	 Correlation Energy        =      -0.5685450381955337 [Eh]
	 Total Energy              =    -152.6877872005278505 [Eh]
	 SCS Total Energy          =    -152.6827937961572559 [Eh]
                               Psi4 1.9 release
    Molecular point group: c1
  Multiplicity = 1
  Basis Set: AUG-CC-PVTZ
    Blend: AUG-CC-PVTZ
  Basis Set: (AUG-CC-PVTZ AUX)
    Blend: AUG-CC-PVTZ-JKFIT + DEF2-UNIVERSAL-JKFIT
  @DF-RHF Final Energy:    -7.23638374538270
    Total Energy =                         -7.2363837453827040
  Basis Set: (AUG-CC-PVTZ AUX)
	 Singles Energy            =      -0.0000000000000000 [Eh]
	 Same-Spin Energy          =      -0.0000000000000000 [Eh]
	 Opposite-Spin Energy      =      -0.0124971639833646 [Eh]
	 Correlation Energy        =      -0.0124971639833646 [Eh]
	 Total Energy              =      -7.2488809093660693 [Eh]
	 SCS Total Energy          =      -7.2513803421627427 [Eh]
                               Psi4 1.9 release
    Molecular point group: c1

    Geometry (in Bohr), charge = 1, multiplicity = 1:

       Center              X                  Y                   Z               Mass
    ------------   -----------------  -----------------  -----------------  -----------------
         LI           0.000000000000     0.000000000000     0.000000000000     7.016003436600
         O            4.558934042049     0.000000000000     0.000000000000    15.994914619570
         H            5.664431384346     1.443238644070     0.000000000000     1.007825032230
         H            5.664431384346    -1.443238644070     0.000000000000     1.007825032230
         O           -4.558934042049     0.000000000000     0.000000000000    15.994914619570
         H           -5.664429494620    -1.443238644070     0.000000000000     1.007825032230
         H           -5.664429494620     1.443238644070     0.000000000000     1.007825032230

  Charge       = 1
  Multiplicity = 1
  Basis Set: AUG-CC-PVTZ
    Blend: AUG-CC-PVTZ
  Basis Set: (AUG-CC-PVTZ AUX)
    Blend: AUG-CC-PVTZ-JKFIT + DEF2-UNIVERSAL-JKFIT

    Orbital Energies [Eh]
    ---------------------

    Doubly Occupied:

       1A    -20.757366     2A    -20.757366     3A     -2.688560
       4A     -1.540348     5A     -1.540295     6A     -0.904677
       7A     -0.904625     8A     -0.789745     9A     -0.788952
      10A     -0.702302    11A     -0.701966

  @DF-RHF Final Energy:  -159.43666793288398

   => Energetics <=

    Nuclear Repulsion Energy =             41.3426428264935026
    One-Electron Energy =                -297.4062147267472938
    Two-Electron Energy =                  96.6269039673698273
    Total Energy =                       -159.4366679328839780
 Dipole X            :         -0.0000027            0.0000038            0.0000010
 Dipole Y            :          0.0000000            0.0000000            0.0000000
 Dipole Z            :         -0.0000000            0.0000000           -0.0000000
 Magnitude           :                                                    0.0000010
  Basis Set: (AUG-CC-PVTZ AUX)
    Blend: AUG-CC-PVTZ-RI + DEF2-QZVPP-RI
	 Reference Energy          =    -159.4366679328839780 [Eh]
	 Singles Energy            =      -0.0000000000000000 [Eh]
	 Same-Spin Energy          =      -0.1363691908596311 [Eh]
	 Opposite-Spin Energy      =      -0.4416538733953075 [Eh]
	 Correlation Energy        =      -0.5780230642549385 [Eh]
	 Total Energy              =    -160.0146909971389277 [Eh]

	 ================> DF-SCS-MP2 Energies <==================
	-----------------------------------------------------------
	 SCS Same-Spin Scale       =       0.3333333333333333 [-]
	 SCS Opposite-Spin Scale   =       1.2000000000000000 [-]
	 SCS Same-Spin Energy      =      -0.0454563969532104 [Eh]
	 SCS Opposite-Spin Energy  =      -0.5299846480743690 [Eh]
	 SCS Correlation Energy    =      -0.5754410450275793 [Eh]
	 SCS Total Energy          =    -160.0121089779115664 [Eh]
	-----------------------------------------------------------

*** Psi4 exiting successfully. Buy a developer a beer!
