                               Psi4 1.8.2 release

  ==> Input File <==

--------------------------------------------------------------------------
MEMORY 60 GB

molecule dimer {
0 1
Gh(Li)     0.000000     0.000000     0.000000
Gh(O)      3.711514     0.000000     0.000000
Gh(H)      4.296518     0.763729     0.000000
Gh(H)      4.296518    -0.763729     0.000000
O         -3.711514     0.000000     0.000000
H         -4.296517    -0.763729     0.000000
H         -4.296517     0.763729     0.000000

units ang
no_reorient
no_com
symmetry c1
}

set {
basis        aug-cc-pVTZ
scf_type     df
}

energy("mp2")
--------------------------------------------------------------------------

    Molecular point group: c1

    Geometry (in Angstrom), charge = 0, multiplicity = 1:

       Center              X                  Y                   Z               Mass
    ------------   -----------------  -----------------  -----------------  -----------------
      Gh(LI)          0.000000000000     0.000000000000     0.000000000000     7.016003436600
      Gh(O)           3.711514000000     0.000000000000     0.000000000000    15.994914619570
      Gh(H)           4.296518000000     0.763729000000     0.000000000000     1.007825032230
      Gh(H)           4.296518000000    -0.763729000000     0.000000000000     1.007825032230
         O           -3.711514000000     0.000000000000     0.000000000000    15.994914619570
         H           -4.296517000000    -0.763729000000     0.000000000000     1.007825032230
         H           -4.296517000000     0.763729000000     0.000000000000     1.007825032230

  Charge       = 0
  Multiplicity = 1
  Basis Set: AUG-CC-PVTZ
    Blend: AUG-CC-PVTZ
  Basis Set: (AUG-CC-PVTZ AUX)
    Blend: AUG-CC-PVTZ-JKFIT + DEF2-UNIVERSAL-JKFIT

    Orbital Energies [Eh]
    ---------------------

    Doubly Occupied:

       1A    -20.567798     2A     -1.350728     3A     -0.716349
       4A     -0.582891     5A     -0.509796

  @DF-RHF Final Energy:   -76.06027929814651

   => Energetics <=

    Nuclear Repulsion Energy =              9.1474110406955109
    One-Electron Energy =                -122.9602526238477225
    Two-Electron Energy =                  37.7525622850056806
    Total Energy =                        -76.0602792981465257
 Dipole X            :         71.5703524          -72.3484406           -0.7780882
 Dipole Y            :          0.0000000            0.0000000            0.0000000
 Dipole Z            :         -0.0000000            0.0000000           -0.0000000
 Magnitude           :                                                    0.7780882
  Basis Set: (AUG-CC-PVTZ AUX)
    Blend: AUG-CC-PVTZ-RI + DEF2-QZVPP-RI
	 Reference Energy          =     -76.0602792981465115 [Eh]
	 Singles Energy            =      -0.0000000000000000 [Eh]
	 Same-Spin Energy          =      -0.0684204020999973 [Eh]
	 Opposite-Spin Energy      =      -0.2154586716625989 [Eh]
	 Correlation Energy        =      -0.2838790737625961 [Eh]
	 Total Energy              =     -76.3441583719091028 [Eh]

	 ================> DF-SCS-MP2 Energies <==================
	-----------------------------------------------------------
	 SCS Same-Spin Scale       =       0.3333333333333333 [-]
	 SCS Opposite-Spin Scale   =       1.2000000000000000 [-]
	 SCS Same-Spin Energy      =      -0.0228068006999991 [Eh]
	 SCS Opposite-Spin Energy  =      -0.2585504059951186 [Eh]
	 SCS Correlation Energy    =      -0.2813572066951177 [Eh]
	 SCS Total Energy          =     -76.3416365048416310 [Eh]
	-----------------------------------------------------------

*** Psi4 exiting successfully. Buy a developer a beer!
