                               Psi4 1.8.2 release

  ==> Input File <==

--------------------------------------------------------------------------
MEMORY 60 GB

molecule dimer {
0 1
Gh(Li)     0.000000     0.000000     0.000000
Gh(O)      2.598060     0.000000     0.000000
Gh(H)      3.183064     0.763729     0.000000
Gh(H)      3.183064    -0.763729     0.000000
O         -2.598060     0.000000     0.000000
H         -3.183063    -0.763729     0.000000
H         -3.183063     0.763729     0.000000

units ang
no_reorient
no_com
symmetry c1
}

set {
basis        aug-cc-pVTZ
scf_type     df
}

energy("mp2")
--------------------------------------------------------------------------

    Molecular point group: c1

    Geometry (in Angstrom), charge = 0, multiplicity = 1:

       Center              X                  Y                   Z               Mass
    ------------   -----------------  -----------------  -----------------  -----------------
      Gh(LI)          0.000000000000     0.000000000000     0.000000000000     7.016003436600
      Gh(O)           2.598060000000     0.000000000000     0.000000000000    15.994914619570
      Gh(H)           3.183064000000     0.763729000000     0.000000000000     1.007825032230
      Gh(H)           3.183064000000    -0.763729000000     0.000000000000     1.007825032230
         O           -2.598060000000     0.000000000000     0.000000000000    15.994914619570
         H           -3.183063000000    -0.763729000000     0.000000000000     1.007825032230
         H           -3.183063000000     0.763729000000     0.000000000000     1.007825032230

  Charge       = 0
  Multiplicity = 1
  Basis Set: AUG-CC-PVTZ
    Blend: AUG-CC-PVTZ
  Basis Set: (AUG-CC-PVTZ AUX)
    Blend: AUG-CC-PVTZ-JKFIT + DEF2-UNIVERSAL-JKFIT

    Orbital Energies [Eh]
    ---------------------

    Doubly Occupied:

       1A    -20.567718     2A     -1.350675     3A     -0.716300
       4A     -0.582867     5A     -0.509752

  @DF-RHF Final Energy:   -76.06031885124433

   => Energetics <=

    Nuclear Repulsion Energy =              9.1474110406955056
    One-Electron Energy =                -122.9608330424427720
    Two-Electron Energy =                  37.7531031505029446
    Total Energy =                        -76.0603188512443182
 Dipole X            :         50.5297830          -51.3072095           -0.7774265
 Dipole Y            :          0.0000000            0.0000000            0.0000000
 Dipole Z            :         -0.0000000            0.0000000           -0.0000000
 Magnitude           :                                                    0.7774265
  Basis Set: (AUG-CC-PVTZ AUX)
    Blend: AUG-CC-PVTZ-RI + DEF2-QZVPP-RI
	 Reference Energy          =     -76.0603188512443324 [Eh]
	 Singles Energy            =      -0.0000000000000000 [Eh]
	 Same-Spin Energy          =      -0.0684396295332824 [Eh]
	 Opposite-Spin Energy      =      -0.2156451486074010 [Eh]
	 Correlation Energy        =      -0.2840847781406833 [Eh]
	 Total Energy              =     -76.3444036293850132 [Eh]

	 ================> DF-SCS-MP2 Energies <==================
	-----------------------------------------------------------
	 SCS Same-Spin Scale       =       0.3333333333333333 [-]
	 SCS Opposite-Spin Scale   =       1.2000000000000000 [-]
	 SCS Same-Spin Energy      =      -0.0228132098444275 [Eh]
	 SCS Opposite-Spin Energy  =      -0.2587741783288812 [Eh]
	 SCS Correlation Energy    =      -0.2815873881733086 [Eh]
	 SCS Total Energy          =     -76.3419062394176393 [Eh]
	-----------------------------------------------------------

*** Psi4 exiting successfully. Buy a developer a beer!
