                               Psi4 1.9 release

  ==> Input File <==

--------------------------------------------------------------------------
MEMORY 60 GB

molecule dimer {
1 1
Li     0.000000     0.000000     0.000000
--
0 1
O      3.711514     0.000000     0.000000
H      4.296518     0.763729     0.000000
H      4.296518    -0.763729     0.000000
O     -3.711514     0.000000     0.000000
H     -4.296517    -0.763729     0.000000
H     -4.296517     0.763729     0.000000

units ang
no_reorient
no_com
symmetry c1
}

set {
basis        aug-cc-pVTZ
scf_type     df
}

energy("mp2", bsse_type="cp")
--------------------------------------------------------------------------

                               Psi4 1.9 release
    Molecular point group: c1
  Charge       = 0
  Multiplicity = 1
  Basis Set: AUG-CC-PVTZ
    Blend: AUG-CC-PVTZ
  Basis Set: (AUG-CC-PVTZ AUX)
    Blend: AUG-CC-PVTZ-JKFIT + DEF2-UNIVERSAL-JKFIT
  @DF-RHF Final Energy:  -152.12014278076185
    Total Energy =                       -152.1201427807618529
 Dipole X            :         -0.0000029            0.0000038            0.0000009
 Dipole Y            :          0.0000000            0.0000000            0.0000000
 Dipole Z            :         -0.0000000            0.0000000           -0.0000000
 Magnitude           :                                                    0.0000009
  Basis Set: (AUG-CC-PVTZ AUX)
    Blend: AUG-CC-PVTZ-RI + DEF2-QZVPP-RI
	 Reference Energy          =    -152.1201427807618529 [Eh]
	 Singles Energy            =      -0.0000000000000000 [Eh]
	 Same-Spin Energy          =      -0.1368548824677263 [Eh]
	 Opposite-Spin Energy      =      -0.4309604623015842 [Eh]
	 Correlation Energy        =      -0.5678153447693104 [Eh]
	 Total Energy              =    -152.6879581255311678 [Eh]
	 SCS Total Energy          =    -152.6829136296796605 [Eh]
                               Psi4 1.9 release
    Molecular point group: c1
  Multiplicity = 1
  Basis Set: AUG-CC-PVTZ
    Blend: AUG-CC-PVTZ
  Basis Set: (AUG-CC-PVTZ AUX)
    Blend: AUG-CC-PVTZ-JKFIT + DEF2-UNIVERSAL-JKFIT
  @DF-RHF Final Energy:    -7.23638284898565
    Total Energy =                         -7.2363828489856514
  Basis Set: (AUG-CC-PVTZ AUX)
	 Singles Energy            =      -0.0000000000000000 [Eh]
	 Same-Spin Energy          =       0.0000000000000000 [Eh]
	 Opposite-Spin Energy      =      -0.0112669014552101 [Eh]
	 Correlation Energy        =      -0.0112669014552101 [Eh]
	 Total Energy              =      -7.2476497504408623 [Eh]
	 SCS Total Energy          =      -7.2499031307319042 [Eh]
                               Psi4 1.9 release
    Molecular point group: c1

    Geometry (in Bohr), charge = 1, multiplicity = 1:

       Center              X                  Y                   Z               Mass
    ------------   -----------------  -----------------  -----------------  -----------------
         LI           0.000000000000     0.000000000000     0.000000000000     7.016003436600
         O            7.013744970802     0.000000000000     0.000000000000    15.994914619570
         H            8.119242313100     1.443238644070     0.000000000000     1.007825032230
         H            8.119242313100    -1.443238644070     0.000000000000     1.007825032230
         O           -7.013744970802     0.000000000000     0.000000000000    15.994914619570
         H           -8.119240423374    -1.443238644070     0.000000000000     1.007825032230
         H           -8.119240423374     1.443238644070     0.000000000000     1.007825032230

  Charge       = 1
  Multiplicity = 1
  Basis Set: AUG-CC-PVTZ
    Blend: AUG-CC-PVTZ
  Basis Set: (AUG-CC-PVTZ AUX)
    Blend: AUG-CC-PVTZ-JKFIT + DEF2-UNIVERSAL-JKFIT

    Orbital Energies [Eh]
    ---------------------

    Doubly Occupied:

       1A    -20.698065     2A    -20.698065     3A     -2.755184
       4A     -1.481156     5A     -1.481155     6A     -0.846595
       7A     -0.846595     8A     -0.719743     9A     -0.719741
      10A     -0.641833    11A     -0.641824

  @DF-RHF Final Energy:  -159.38993748523370

   => Energetics <=

    Nuclear Repulsion Energy =             33.5056131889575610
    One-Electron Energy =                -282.7311843942798646
    Two-Electron Energy =                  89.8356337200885946
    Total Energy =                       -159.3899374852337019
 Dipole X            :         -0.0000029            0.0000038            0.0000009
 Dipole Y            :          0.0000000            0.0000000            0.0000000
 Dipole Z            :         -0.0000000            0.0000000           -0.0000000
 Magnitude           :                                                    0.0000009
  Basis Set: (AUG-CC-PVTZ AUX)
    Blend: AUG-CC-PVTZ-RI + DEF2-QZVPP-RI
	 Reference Energy          =    -159.3899374852337019 [Eh]
	 Singles Energy            =      -0.0000000000000000 [Eh]
	 Same-Spin Energy          =      -0.1365697030413429 [Eh]
	 Opposite-Spin Energy      =      -0.4410534119169771 [Eh]
	 Correlation Energy        =      -0.5776231149583200 [Eh]
	 Total Energy              =    -159.9675606001920301 [Eh]

	 ================> DF-SCS-MP2 Energies <==================
	-----------------------------------------------------------
	 SCS Same-Spin Scale       =       0.3333333333333333 [-]
	 SCS Opposite-Spin Scale   =       1.2000000000000000 [-]
	 SCS Same-Spin Energy      =      -0.0455232343471143 [Eh]
	 SCS Opposite-Spin Energy  =      -0.5292640943003725 [Eh]
	 SCS Correlation Energy    =      -0.5747873286474867 [Eh]
	 SCS Total Energy          =    -159.9647248138811904 [Eh]
	-----------------------------------------------------------

*** Psi4 exiting successfully. Buy a developer a beer!
