                               Psi4 1.8.2 release

  ==> Input File <==

--------------------------------------------------------------------------
MEMORY 60 GB

molecule dimer {
1 1
Li         0.000000     0.000000     0.000000
O          2.598060     0.000000     0.000000
H          3.183064     0.763729     0.000000
H          3.183064    -0.763729     0.000000
O         -2.598060     0.000000     0.000000
H         -3.183063    -0.763729     0.000000
H         -3.183063     0.763729     0.000000

units ang
no_reorient
no_com
symmetry c1
}

set {
basis        aug-cc-pVTZ
scf_type     df
}

energy("mp2")
--------------------------------------------------------------------------

    Molecular point group: c1

    Geometry (in Angstrom), charge = 1, multiplicity = 1:

       Center              X                  Y                   Z               Mass
    ------------   -----------------  -----------------  -----------------  -----------------
         LI           0.000000000000     0.000000000000     0.000000000000     7.016003436600
         O            2.598060000000     0.000000000000     0.000000000000    15.994914619570
         H            3.183064000000     0.763729000000     0.000000000000     1.007825032230
         H            3.183064000000    -0.763729000000     0.000000000000     1.007825032230
         O           -2.598060000000     0.000000000000     0.000000000000    15.994914619570
         H           -3.183063000000    -0.763729000000     0.000000000000     1.007825032230
         H           -3.183063000000     0.763729000000     0.000000000000     1.007825032230

  Charge       = 1
  Multiplicity = 1
  Basis Set: AUG-CC-PVTZ
    Blend: AUG-CC-PVTZ
  Basis Set: (AUG-CC-PVTZ AUX)
    Blend: AUG-CC-PVTZ-JKFIT + DEF2-UNIVERSAL-JKFIT

    Orbital Energies [Eh]
    ---------------------

    Doubly Occupied:

       1A    -20.746821     2A    -20.746821     3A     -2.704576
       4A     -1.529466     5A     -1.529446     6A     -0.894152
       7A     -0.894128     8A     -0.775914     9A     -0.775574
      10A     -0.691223    11A     -0.691053

  @DF-RHF Final Energy:  -159.42651455881341

   => Energetics <=

    Nuclear Repulsion Energy =             39.7610741142517128
    One-Electron Energy =                -294.4168231895514509
    Two-Electron Energy =                  95.2292345164863434
    Total Energy =                       -159.4265145588134089
 Dipole X            :         -0.0000028            0.0000038            0.0000010
 Dipole Y            :          0.0000000            0.0000000            0.0000000
 Dipole Z            :         -0.0000000            0.0000000           -0.0000000
 Magnitude           :                                                    0.0000010
  Basis Set: (AUG-CC-PVTZ AUX)
    Blend: AUG-CC-PVTZ-RI + DEF2-QZVPP-RI
	 Reference Energy          =    -159.4265145588134089 [Eh]
	 Singles Energy            =      -0.0000000000000000 [Eh]
	 Same-Spin Energy          =      -0.1364575257996463 [Eh]
	 Opposite-Spin Energy      =      -0.4415145847558364 [Eh]
	 Correlation Energy        =      -0.5779721105554827 [Eh]
	 Total Energy              =    -160.0044866693689016 [Eh]

	 ================> DF-SCS-MP2 Energies <==================
	-----------------------------------------------------------
	 SCS Same-Spin Scale       =       0.3333333333333333 [-]
	 SCS Opposite-Spin Scale   =       1.2000000000000000 [-]
	 SCS Same-Spin Energy      =      -0.0454858419332154 [Eh]
	 SCS Opposite-Spin Energy  =      -0.5298175017070036 [Eh]
	 SCS Correlation Energy    =      -0.5753033436402191 [Eh]
	 SCS Total Energy          =    -160.0018179024536380 [Eh]
	-----------------------------------------------------------

*** Psi4 exiting successfully. Buy a developer a beer!
