                               Psi4 1.8.2 release

  ==> Input File <==

--------------------------------------------------------------------------
MEMORY 60 GB

molecule dimer {
0 1
Gh(Li)     0.000000     0.000000     0.000000
Gh(O)      2.041333     0.000000     0.000000
Gh(H)      2.626337     0.763729     0.000000
Gh(H)      2.626337    -0.763729     0.000000
O         -2.041333     0.000000     0.000000
H         -2.626336    -0.763729     0.000000
H         -2.626336     0.763729     0.000000

units ang
no_reorient
no_com
symmetry c1
}

set {
basis        aug-cc-pVTZ
scf_type     df
}

energy("mp2")
--------------------------------------------------------------------------

    Molecular point group: c1

    Geometry (in Angstrom), charge = 0, multiplicity = 1:

       Center              X                  Y                   Z               Mass
    ------------   -----------------  -----------------  -----------------  -----------------
      Gh(LI)          0.000000000000     0.000000000000     0.000000000000     7.016003436600
      Gh(O)           2.041333000000     0.000000000000     0.000000000000    15.994914619570
      Gh(H)           2.626337000000     0.763729000000     0.000000000000     1.007825032230
      Gh(H)           2.626337000000    -0.763729000000     0.000000000000     1.007825032230
         O           -2.041333000000     0.000000000000     0.000000000000    15.994914619570
         H           -2.626336000000    -0.763729000000     0.000000000000     1.007825032230
         H           -2.626336000000     0.763729000000     0.000000000000     1.007825032230

  Charge       = 0
  Multiplicity = 1
  Basis Set: AUG-CC-PVTZ
    Blend: AUG-CC-PVTZ
  Basis Set: (AUG-CC-PVTZ AUX)
    Blend: AUG-CC-PVTZ-JKFIT + DEF2-UNIVERSAL-JKFIT

    Orbital Energies [Eh]
    ---------------------

    Doubly Occupied:

       1A    -20.567641     2A     -1.350632     3A     -0.716259
       4A     -0.582832     5A     -0.509736

  @DF-RHF Final Energy:   -76.06035326987609

   => Energetics <=

    Nuclear Repulsion Energy =              9.1474110406955091
    One-Electron Energy =                -122.9613235822429829
    Two-Electron Energy =                  37.7535592716713708
    Total Energy =                        -76.0603532698760887
 Dipole X            :         40.0095402          -40.7865939           -0.7770537
 Dipole Y            :          0.0000000            0.0000000            0.0000000
 Dipole Z            :          0.0000000            0.0000000            0.0000000
 Magnitude           :                                                    0.7770537
  Basis Set: (AUG-CC-PVTZ AUX)
    Blend: AUG-CC-PVTZ-RI + DEF2-QZVPP-RI
	 Reference Energy          =     -76.0603532698760887 [Eh]
	 Singles Energy            =      -0.0000000000000000 [Eh]
	 Same-Spin Energy          =      -0.0684624131180447 [Eh]
	 Opposite-Spin Energy      =      -0.2158713316450727 [Eh]
	 Correlation Energy        =      -0.2843337447631175 [Eh]
	 Total Energy              =     -76.3446870146392058 [Eh]

	 ================> DF-SCS-MP2 Energies <==================
	-----------------------------------------------------------
	 SCS Same-Spin Scale       =       0.3333333333333333 [-]
	 SCS Opposite-Spin Scale   =       1.2000000000000000 [-]
	 SCS Same-Spin Energy      =      -0.0228208043726816 [Eh]
	 SCS Opposite-Spin Energy  =      -0.2590455979740873 [Eh]
	 SCS Correlation Energy    =      -0.2818664023467689 [Eh]
	 SCS Total Energy          =     -76.3422196722228534 [Eh]
	-----------------------------------------------------------

*** Psi4 exiting successfully. Buy a developer a beer!
