                               Psi4 1.8.2 release

  ==> Input File <==

--------------------------------------------------------------------------
MEMORY 60 GB

molecule dimer {
1 1
Li     0.000000     0.000000     0.000000
--
0 1
O      2.041333     0.000000     0.000000
H      2.626337     0.763729     0.000000
H      2.626337    -0.763729     0.000000
--
0 1
O     -2.041333     0.000000     0.000000
H     -2.626336    -0.763729     0.000000
H     -2.626336     0.763729     0.000000

units ang
no_reorient
no_com
symmetry c1
}

set {
basis        aug-cc-pVTZ
scf_type     df
}

energy("mp2", bsse_type="cp")
--------------------------------------------------------------------------

                               Psi4 1.8.2 release
    Molecular point group: c1
  Charge       = 1
  Multiplicity = 1
  Basis Set: AUG-CC-PVTZ
    Blend: AUG-CC-PVTZ
  Basis Set: (AUG-CC-PVTZ AUX)
    Blend: AUG-CC-PVTZ-JKFIT + DEF2-UNIVERSAL-JKFIT
  @DF-RHF Final Energy:    -7.23638386588018
    Total Energy =                         -7.2363838658801773
 Dipole X            :          0.0000000            0.0000000            0.0000000
 Dipole Y            :         -0.0000000            0.0000000           -0.0000000
 Dipole Z            :          0.0000000            0.0000000            0.0000000
 Magnitude           :                                                    0.0000000
  Basis Set: (AUG-CC-PVTZ AUX)
    Blend: AUG-CC-PVTZ-RI + DEF2-QZVPP-RI
	 Reference Energy          =      -7.2363838658801773 [Eh]
	 Singles Energy            =      -0.0000000000000000 [Eh]
	 Same-Spin Energy          =       0.0000000000000000 [Eh]
	 Opposite-Spin Energy      =      -0.0138117361599079 [Eh]
	 Correlation Energy        =      -0.0138117361599079 [Eh]
	 Total Energy              =      -7.2501956020400851 [Eh]
	 SCS Total Energy          =      -7.2529579492720666 [Eh]
                               Psi4 1.8.2 release
    Molecular point group: c1
  Basis Set: AUG-CC-PVTZ
    Blend: AUG-CC-PVTZ
  Basis Set: (AUG-CC-PVTZ AUX)
    Blend: AUG-CC-PVTZ-JKFIT + DEF2-UNIVERSAL-JKFIT
  @DF-RHF Final Energy:   -76.06035321614443
    Total Energy =                        -76.0603532161444491
  Basis Set: (AUG-CC-PVTZ AUX)
                               Psi4 1.8.2 release
  @DF-RHF Final Energy:  -152.11843480461195
    Total Energy =                       -152.1184348046119226
                               Psi4 1.8.2 release
  @DF-RHF Final Energy:   -83.34996872911032
    Total Energy =                        -83.3499687291103157
                               Psi4 1.8.2 release
  @DF-RHF Final Energy:   -83.34996868363847
    Total Energy =                        -83.3499686836384797
                               Psi4 1.8.2 release
  Multiplicity = 1
  @DF-RHF Final Energy:   -76.06035326987623
    Total Energy =                        -76.0603532698762308
	 Singles Energy            =      -0.0000000000000000 [Eh]
	 Same-Spin Energy          =      -0.0684624131180438 [Eh]
	 Opposite-Spin Energy      =      -0.2158713316450716 [Eh]
	 Correlation Energy        =      -0.2843337447631154 [Eh]
	 Total Energy              =     -76.3446870146393479 [Eh]
	 SCS Total Energy          =     -76.3422196722229955 [Eh]
                               Psi4 1.8.2 release
    Molecular point group: c1

    Geometry (in Bohr), charge = 1, multiplicity = 1:

       Center              X                  Y                   Z               Mass
    ------------   -----------------  -----------------  -----------------  -----------------
         LI           0.000000000000     0.000000000000     0.000000000000     7.016003436600
         O            3.857560300859     0.000000000000     0.000000000000    15.994914619570
         H            4.963057643157     1.443238644070     0.000000000000     1.007825032230
         H            4.963057643157    -1.443238644070     0.000000000000     1.007825032230
         O           -3.857560300859     0.000000000000     0.000000000000    15.994914619570
         H           -4.963055753430    -1.443238644070     0.000000000000     1.007825032230
         H           -4.963055753430     1.443238644070     0.000000000000     1.007825032230

  Charge       = 1
  Multiplicity = 1
  Basis Set: AUG-CC-PVTZ
    Blend: AUG-CC-PVTZ
  Basis Set: (AUG-CC-PVTZ AUX)
    Blend: AUG-CC-PVTZ-JKFIT + DEF2-UNIVERSAL-JKFIT

    Orbital Energies [Eh]
    ---------------------

    Doubly Occupied:

       1A    -20.778839     2A    -20.778839     3A     -2.647375
       4A     -1.564699     5A     -1.564295     6A     -0.927693
       7A     -0.927433     8A     -0.823318     9A     -0.819423
      10A     -0.726868    11A     -0.725596

  @DF-RHF Final Energy:  -159.45735530628255

   => Energetics <=

    Nuclear Repulsion Energy =             45.3302241592290684
    One-Electron Energy =                -305.0063990586320415
    Two-Electron Energy =                 100.2188195931203865
    Total Energy =                       -159.4573553062825795
 Dipole X            :         -0.0000026            0.0000038            0.0000011
 Dipole Y            :          0.0000000            0.0000000            0.0000000
 Dipole Z            :         -0.0000000            0.0000000           -0.0000000
 Magnitude           :                                                    0.0000011
  Basis Set: (AUG-CC-PVTZ AUX)
    Blend: AUG-CC-PVTZ-RI + DEF2-QZVPP-RI
	 Reference Energy          =    -159.4573553062825511 [Eh]
	 Singles Energy            =      -0.0000000000000000 [Eh]
	 Same-Spin Energy          =      -0.1360828684022420 [Eh]
	 Opposite-Spin Energy      =      -0.4419435238950503 [Eh]
	 Correlation Energy        =      -0.5780263922972924 [Eh]
	 Total Energy              =    -160.0353816985798403 [Eh]

	 ================> DF-SCS-MP2 Energies <==================
	-----------------------------------------------------------
	 SCS Same-Spin Scale       =       0.3333333333333333 [-]
	 SCS Opposite-Spin Scale   =       1.2000000000000000 [-]
	 SCS Same-Spin Energy      =      -0.0453609561340807 [Eh]
	 SCS Opposite-Spin Energy  =      -0.5303322286740604 [Eh]
	 SCS Correlation Energy    =      -0.5756931848081410 [Eh]
	 SCS Total Energy          =    -160.0330484910906819 [Eh]
	-----------------------------------------------------------

*** Psi4 exiting successfully. Buy a developer a beer!
