                               Psi4 1.8.2 release

  ==> Input File <==

--------------------------------------------------------------------------
MEMORY 60 GB

molecule dimer {
1 1
Li     0.000000     0.000000     0.000000
--
0 1
O      1.948545     0.000000     0.000000
H      2.533549     0.763729     0.000000
H      2.533549    -0.763729     0.000000
--
0 1
O     -1.948545     0.000000     0.000000
H     -2.533548    -0.763729     0.000000
H     -2.533548     0.763729     0.000000

units ang
no_reorient
no_com
symmetry c1
}

set {
basis        aug-cc-pVTZ
scf_type     df
}

energy("mp2", bsse_type="cp")
--------------------------------------------------------------------------

                               Psi4 1.8.2 release
    Molecular point group: c1
  Charge       = 1
  Multiplicity = 1
  Basis Set: AUG-CC-PVTZ
    Blend: AUG-CC-PVTZ
  Basis Set: (AUG-CC-PVTZ AUX)
    Blend: AUG-CC-PVTZ-JKFIT + DEF2-UNIVERSAL-JKFIT
  @DF-RHF Final Energy:    -7.23638393694174
    Total Energy =                         -7.2363839369417366
 Dipole X            :          0.0000000            0.0000000            0.0000000
 Dipole Y            :          0.0000000            0.0000000            0.0000000
 Dipole Z            :         -0.0000000            0.0000000           -0.0000000
 Magnitude           :                                                    0.0000000
  Basis Set: (AUG-CC-PVTZ AUX)
    Blend: AUG-CC-PVTZ-RI + DEF2-QZVPP-RI
	 Reference Energy          =      -7.2363839369417366 [Eh]
	 Singles Energy            =      -0.0000000000000000 [Eh]
	 Same-Spin Energy          =       0.0000000000000000 [Eh]
	 Opposite-Spin Energy      =      -0.0143452444087282 [Eh]
	 Correlation Energy        =      -0.0143452444087282 [Eh]
	 Total Energy              =      -7.2507291813504651 [Eh]
	 SCS Total Energy          =      -7.2535982302322104 [Eh]
                               Psi4 1.8.2 release
    Molecular point group: c1
  Basis Set: AUG-CC-PVTZ
    Blend: AUG-CC-PVTZ
  Basis Set: (AUG-CC-PVTZ AUX)
    Blend: AUG-CC-PVTZ-JKFIT + DEF2-UNIVERSAL-JKFIT
  @DF-RHF Final Energy:   -76.06035647617416
    Total Energy =                        -76.0603564761741637
  Basis Set: (AUG-CC-PVTZ AUX)
                               Psi4 1.8.2 release
  @DF-RHF Final Energy:  -152.11811801359363
    Total Energy =                       -152.1181180135936302
                               Psi4 1.8.2 release
  @DF-RHF Final Energy:   -83.35218566845536
    Total Energy =                        -83.3521856684553768
                               Psi4 1.8.2 release
  @DF-RHF Final Energy:   -83.35218562416506
    Total Energy =                        -83.3521856241650596
                               Psi4 1.8.2 release
  Multiplicity = 1
  @DF-RHF Final Energy:   -76.06035652989607
    Total Energy =                        -76.0603565298960831
	 Singles Energy            =      -0.0000000000000000 [Eh]
	 Same-Spin Energy          =      -0.0684671920211778 [Eh]
	 Opposite-Spin Energy      =      -0.2159177233287920 [Eh]
	 Correlation Energy        =      -0.2843849153499698 [Eh]
	 Total Energy              =     -76.3447414452460436 [Eh]
	 SCS Total Energy          =     -76.3422801952310124 [Eh]
                               Psi4 1.8.2 release
    Molecular point group: c1

    Geometry (in Bohr), charge = 1, multiplicity = 1:

       Center              X                  Y                   Z               Mass
    ------------   -----------------  -----------------  -----------------  -----------------
         LI           0.000000000000     0.000000000000     0.000000000000     7.016003436600
         O            3.682216393130     0.000000000000     0.000000000000    15.994914619570
         H            4.787713735428     1.443238644070     0.000000000000     1.007825032230
         H            4.787713735428    -1.443238644070     0.000000000000     1.007825032230
         O           -3.682216393130     0.000000000000     0.000000000000    15.994914619570
         H           -4.787711845701    -1.443238644070     0.000000000000     1.007825032230
         H           -4.787711845701     1.443238644070     0.000000000000     1.007825032230

  Charge       = 1
  Multiplicity = 1
  Basis Set: AUG-CC-PVTZ
    Blend: AUG-CC-PVTZ
  Basis Set: (AUG-CC-PVTZ AUX)
    Blend: AUG-CC-PVTZ-JKFIT + DEF2-UNIVERSAL-JKFIT

    Orbital Energies [Eh]
    ---------------------

    Doubly Occupied:

       1A    -20.783866     2A    -20.783866     3A     -2.635430
       4A     -1.571340     5A     -1.570661     6A     -0.933794
       7A     -0.933397     8A     -0.833164     9A     -0.827446
      10A     -0.733509    11A     -0.731730

  @DF-RHF Final Energy:  -159.46077610137635

   => Energetics <=

    Nuclear Repulsion Energy =             46.5538533686937868
    One-Electron Energy =                -307.3528488053289607
    Two-Electron Energy =                 101.3382193352588132
    Total Energy =                       -159.4607761013763252
 Dipole X            :         -0.0000026            0.0000038            0.0000012
 Dipole Y            :          0.0000000            0.0000000            0.0000000
 Dipole Z            :          0.0000000            0.0000000            0.0000000
 Magnitude           :                                                    0.0000012
  Basis Set: (AUG-CC-PVTZ AUX)
    Blend: AUG-CC-PVTZ-RI + DEF2-QZVPP-RI
	 Reference Energy          =    -159.4607761013763536 [Eh]
	 Singles Energy            =      -0.0000000000000000 [Eh]
	 Same-Spin Energy          =      -0.1360066365514415 [Eh]
	 Opposite-Spin Energy      =      -0.4420655580718644 [Eh]
	 Correlation Energy        =      -0.5780721946233059 [Eh]
	 Total Energy              =    -160.0388482959996566 [Eh]

	 ================> DF-SCS-MP2 Energies <==================
	-----------------------------------------------------------
	 SCS Same-Spin Scale       =       0.3333333333333333 [-]
	 SCS Opposite-Spin Scale   =       1.2000000000000000 [-]
	 SCS Same-Spin Energy      =      -0.0453355455171472 [Eh]
	 SCS Opposite-Spin Energy  =      -0.5304786696862372 [Eh]
	 SCS Correlation Energy    =      -0.5758142152033844 [Eh]
	 SCS Total Energy          =    -160.0365903165797477 [Eh]
	-----------------------------------------------------------

*** Psi4 exiting successfully. Buy a developer a beer!
