                               Psi4 1.8.2 release

  ==> Input File <==

--------------------------------------------------------------------------
MEMORY 60 GB

molecule dimer {
1 1
Li     0.000000     0.000000     0.000000
--
0 1
O      2.226908     0.000000     0.000000
H      2.811912     0.763729     0.000000
H      2.811912    -0.763729     0.000000
--
0 1
O     -2.226908     0.000000     0.000000
H     -2.811911    -0.763729     0.000000
H     -2.811911     0.763729     0.000000

units ang
no_reorient
no_com
symmetry c1
}

set {
basis        aug-cc-pVTZ
scf_type     df
}

energy("mp2", bsse_type="cp")
--------------------------------------------------------------------------

                               Psi4 1.8.2 release
    Molecular point group: c1
  Charge       = 1
  Multiplicity = 1
  Basis Set: AUG-CC-PVTZ
    Blend: AUG-CC-PVTZ
  Basis Set: (AUG-CC-PVTZ AUX)
    Blend: AUG-CC-PVTZ-JKFIT + DEF2-UNIVERSAL-JKFIT
  @DF-RHF Final Energy:    -7.23638377676861
    Total Energy =                         -7.2363837767686094
 Dipole X            :          0.0000000            0.0000000            0.0000000
 Dipole Y            :         -0.0000000            0.0000000           -0.0000000
 Dipole Z            :         -0.0000000            0.0000000           -0.0000000
 Magnitude           :                                                    0.0000000
  Basis Set: (AUG-CC-PVTZ AUX)
    Blend: AUG-CC-PVTZ-RI + DEF2-QZVPP-RI
	 Reference Energy          =      -7.2363837767686094 [Eh]
	 Singles Energy            =      -0.0000000000000000 [Eh]
	 Same-Spin Energy          =       0.0000000000000000 [Eh]
	 Opposite-Spin Energy      =      -0.0130286857098396 [Eh]
	 Correlation Energy        =      -0.0130286857098396 [Eh]
	 Total Energy              =      -7.2494124624784488 [Eh]
	 SCS Total Energy          =      -7.2520181996204167 [Eh]
                               Psi4 1.8.2 release
    Molecular point group: c1
  Basis Set: AUG-CC-PVTZ
    Blend: AUG-CC-PVTZ
  Basis Set: (AUG-CC-PVTZ AUX)
    Blend: AUG-CC-PVTZ-JKFIT + DEF2-UNIVERSAL-JKFIT
  @DF-RHF Final Energy:   -76.06034394762121
    Total Energy =                        -76.0603439476212060
  Basis Set: (AUG-CC-PVTZ AUX)
                               Psi4 1.8.2 release
  @DF-RHF Final Energy:  -152.11890957188612
    Total Energy =                       -152.1189095718861211
                               Psi4 1.8.2 release
  @DF-RHF Final Energy:   -83.34424055390400
    Total Energy =                        -83.3442405539040010
                               Psi4 1.8.2 release
  @DF-RHF Final Energy:   -83.34424050704912
    Total Energy =                        -83.3442405070491219
                               Psi4 1.8.2 release
  Multiplicity = 1
  @DF-RHF Final Energy:   -76.06034400137918
    Total Energy =                        -76.0603440013791925
	 Singles Energy            =      -0.0000000000000000 [Eh]
	 Same-Spin Energy          =      -0.0684533574666260 [Eh]
	 Opposite-Spin Energy      =      -0.2157826688875414 [Eh]
	 Correlation Energy        =      -0.2842360263541674 [Eh]
	 Total Energy              =     -76.3445800277333433 [Eh]
	 SCS Total Energy          =     -76.3421009898664380 [Eh]
                               Psi4 1.8.2 release
    Molecular point group: c1

    Geometry (in Bohr), charge = 1, multiplicity = 1:

       Center              X                  Y                   Z               Mass
    ------------   -----------------  -----------------  -----------------  -----------------
         LI           0.000000000000     0.000000000000     0.000000000000     7.016003436600
         O            4.208246226591     0.000000000000     0.000000000000    15.994914619570
         H            5.313743568888     1.443238644070     0.000000000000     1.007825032230
         H            5.313743568888    -1.443238644070     0.000000000000     1.007825032230
         O           -4.208246226591     0.000000000000     0.000000000000    15.994914619570
         H           -5.313741679162    -1.443238644070     0.000000000000     1.007825032230
         H           -5.313741679162     1.443238644070     0.000000000000     1.007825032230

  Charge       = 1
  Multiplicity = 1
  Basis Set: AUG-CC-PVTZ
    Blend: AUG-CC-PVTZ
  Basis Set: (AUG-CC-PVTZ AUX)
    Blend: AUG-CC-PVTZ-JKFIT + DEF2-UNIVERSAL-JKFIT

    Orbital Energies [Eh]
    ---------------------

    Doubly Occupied:

       1A    -20.768200     2A    -20.768200     3A     -2.669468
       4A     -1.552092     5A     -1.551948     6A     -0.915889
       7A     -0.915774     8A     -0.805447     9A     -0.803664
      10A     -0.714195    11A     -0.713540

  @DF-RHF Final Energy:  -159.44750588976811

   => Energetics <=

    Nuclear Repulsion Energy =             43.1769481456298081
    One-Electron Energy =                -300.8920704951716516
    Two-Electron Energy =                  98.2676164597737341
    Total Energy =                       -159.4475058897681095
 Dipole X            :         -0.0000027            0.0000038            0.0000011
 Dipole Y            :          0.0000000            0.0000000            0.0000000
 Dipole Z            :          0.0000000            0.0000000            0.0000000
 Magnitude           :                                                    0.0000011
  Basis Set: (AUG-CC-PVTZ AUX)
    Blend: AUG-CC-PVTZ-RI + DEF2-QZVPP-RI
	 Reference Energy          =    -159.4475058897681095 [Eh]
	 Singles Energy            =      -0.0000000000000000 [Eh]
	 Same-Spin Energy          =      -0.1362409230012436 [Eh]
	 Opposite-Spin Energy      =      -0.4417861394894683 [Eh]
	 Correlation Energy        =      -0.5780270624907119 [Eh]
	 Total Energy              =    -160.0255329522588283 [Eh]

	 ================> DF-SCS-MP2 Energies <==================
	-----------------------------------------------------------
	 SCS Same-Spin Scale       =       0.3333333333333333 [-]
	 SCS Opposite-Spin Scale   =       1.2000000000000000 [-]
	 SCS Same-Spin Energy      =      -0.0454136410004145 [Eh]
	 SCS Opposite-Spin Energy  =      -0.5301433673873619 [Eh]
	 SCS Correlation Energy    =      -0.5755570083877765 [Eh]
	 SCS Total Energy          =    -160.0230628981558993 [Eh]
	-----------------------------------------------------------

*** Psi4 exiting successfully. Buy a developer a beer!
