                               Psi4 1.8.2 release

  ==> Input File <==

--------------------------------------------------------------------------
MEMORY 60 GB

molecule dimer {
0 1
Gh(Li)     0.000000     0.000000     0.000000
Gh(O)      1.948545     0.000000     0.000000
Gh(H)      2.533549     0.763729     0.000000
Gh(H)      2.533549    -0.763729     0.000000
O         -1.948545     0.000000     0.000000
H         -2.533548    -0.763729     0.000000
H         -2.533548     0.763729     0.000000

units ang
no_reorient
no_com
symmetry c1
}

set {
basis        aug-cc-pVTZ
scf_type     df
}

energy("mp2")
--------------------------------------------------------------------------

    Molecular point group: c1

    Geometry (in Angstrom), charge = 0, multiplicity = 1:

       Center              X                  Y                   Z               Mass
    ------------   -----------------  -----------------  -----------------  -----------------
      Gh(LI)          0.000000000000     0.000000000000     0.000000000000     7.016003436600
      Gh(O)           1.948545000000     0.000000000000     0.000000000000    15.994914619570
      Gh(H)           2.533549000000     0.763729000000     0.000000000000     1.007825032230
      Gh(H)           2.533549000000    -0.763729000000     0.000000000000     1.007825032230
         O           -1.948545000000     0.000000000000     0.000000000000    15.994914619570
         H           -2.533548000000    -0.763729000000     0.000000000000     1.007825032230
         H           -2.533548000000     0.763729000000     0.000000000000     1.007825032230

  Charge       = 0
  Multiplicity = 1
  Basis Set: AUG-CC-PVTZ
    Blend: AUG-CC-PVTZ
  Basis Set: (AUG-CC-PVTZ AUX)
    Blend: AUG-CC-PVTZ-JKFIT + DEF2-UNIVERSAL-JKFIT

    Orbital Energies [Eh]
    ---------------------

    Doubly Occupied:

       1A    -20.567634     2A     -1.350629     3A     -0.716256
       4A     -0.582828     5A     -0.509737

  @DF-RHF Final Energy:   -76.06035652989600

   => Energetics <=

    Nuclear Repulsion Energy =              9.1474110406955091
    One-Electron Energy =                -122.9613664154797448
    Two-Electron Energy =                  37.7535988448882378
    Total Energy =                        -76.0603565298959836
 Dipole X            :         38.2560930          -39.0331548           -0.7770618
 Dipole Y            :          0.0000000            0.0000000            0.0000000
 Dipole Z            :          0.0000000            0.0000000            0.0000000
 Magnitude           :                                                    0.7770618
  Basis Set: (AUG-CC-PVTZ AUX)
    Blend: AUG-CC-PVTZ-RI + DEF2-QZVPP-RI
	 Reference Energy          =     -76.0603565298959978 [Eh]
	 Singles Energy            =      -0.0000000000000000 [Eh]
	 Same-Spin Energy          =      -0.0684671920211791 [Eh]
	 Opposite-Spin Energy      =      -0.2159177233287940 [Eh]
	 Correlation Energy        =      -0.2843849153499731 [Eh]
	 Total Energy              =     -76.3447414452459725 [Eh]

	 ================> DF-SCS-MP2 Energies <==================
	-----------------------------------------------------------
	 SCS Same-Spin Scale       =       0.3333333333333333 [-]
	 SCS Opposite-Spin Scale   =       1.2000000000000000 [-]
	 SCS Same-Spin Energy      =      -0.0228223973403930 [Eh]
	 SCS Opposite-Spin Energy  =      -0.2591012679945528 [Eh]
	 SCS Correlation Energy    =      -0.2819236653349458 [Eh]
	 SCS Total Energy          =     -76.3422801952309413 [Eh]
	-----------------------------------------------------------

*** Psi4 exiting successfully. Buy a developer a beer!
