                               Psi4 1.8.2 release

  ==> Input File <==

--------------------------------------------------------------------------
MEMORY 60 GB

molecule dimer {
0 1
Gh(Li)     0.000000     0.000000     0.000000
O          1.855757     0.000000     0.000000
H          2.440761     0.763729     0.000000
H          2.440761    -0.763729     0.000000
Gh(O)     -1.855757     0.000000     0.000000
Gh(H)     -2.440760    -0.763729     0.000000
Gh(H)     -2.440760     0.763729     0.000000

units ang
no_reorient
no_com
symmetry c1
}

set {
basis        aug-cc-pVTZ
scf_type     df
}

energy("mp2")
--------------------------------------------------------------------------

    Molecular point group: c1

    Geometry (in Angstrom), charge = 0, multiplicity = 1:

       Center              X                  Y                   Z               Mass
    ------------   -----------------  -----------------  -----------------  -----------------
      Gh(LI)          0.000000000000     0.000000000000     0.000000000000     7.016003436600
         O            1.855757000000     0.000000000000     0.000000000000    15.994914619570
         H            2.440761000000     0.763729000000     0.000000000000     1.007825032230
         H            2.440761000000    -0.763729000000     0.000000000000     1.007825032230
      Gh(O)          -1.855757000000     0.000000000000     0.000000000000    15.994914619570
      Gh(H)          -2.440760000000    -0.763729000000     0.000000000000     1.007825032230
      Gh(H)          -2.440760000000     0.763729000000     0.000000000000     1.007825032230

  Charge       = 0
  Multiplicity = 1
  Basis Set: AUG-CC-PVTZ
    Blend: AUG-CC-PVTZ
  Basis Set: (AUG-CC-PVTZ AUX)
    Blend: AUG-CC-PVTZ-JKFIT + DEF2-UNIVERSAL-JKFIT

    Orbital Energies [Eh]
    ---------------------

    Doubly Occupied:

       1A    -20.567628     2A     -1.350625     3A     -0.716253
       4A     -0.582825     5A     -0.509738

  @DF-RHF Final Energy:   -76.06035918586906

   => Energetics <=

    Nuclear Repulsion Energy =              9.1474054777200244
    One-Electron Energy =                -122.9613875488958143
    Two-Electron Energy =                  37.7536228853067186
    Total Energy =                        -76.0603591858690606
 Dipole X            :        -36.5026310           37.2797195            0.7770885
 Dipole Y            :         -0.0000000            0.0000000           -0.0000000
 Dipole Z            :          0.0000000            0.0000000            0.0000000
 Magnitude           :                                                    0.7770885
  Basis Set: (AUG-CC-PVTZ AUX)
    Blend: AUG-CC-PVTZ-RI + DEF2-QZVPP-RI
	 Reference Energy          =     -76.0603591858690606 [Eh]
	 Singles Energy            =      -0.0000000000000000 [Eh]
	 Same-Spin Energy          =      -0.0684723837497056 [Eh]
	 Opposite-Spin Energy      =      -0.2159677534838380 [Eh]
	 Correlation Energy        =      -0.2844401372335437 [Eh]
	 Total Energy              =     -76.3447993231026061 [Eh]

	 ================> DF-SCS-MP2 Energies <==================
	-----------------------------------------------------------
	 SCS Same-Spin Scale       =       0.3333333333333333 [-]
	 SCS Opposite-Spin Scale   =       1.2000000000000000 [-]
	 SCS Same-Spin Energy      =      -0.0228241279165685 [Eh]
	 SCS Opposite-Spin Energy  =      -0.2591613041806056 [Eh]
	 SCS Correlation Energy    =      -0.2819854320971742 [Eh]
	 SCS Total Energy          =     -76.3423446179662335 [Eh]
	-----------------------------------------------------------

*** Psi4 exiting successfully. Buy a developer a beer!
