                               Psi4 1.8.2 release

  ==> Input File <==

--------------------------------------------------------------------------
MEMORY 60 GB

molecule dimer {
1 1
Li         0.000000     0.000000     0.000000
O          1.670181     0.000000     0.000000
H          2.255185     0.763729     0.000000
H          2.255185    -0.763729     0.000000
O         -1.670181     0.000000     0.000000
H         -2.255184    -0.763729     0.000000
H         -2.255184     0.763729     0.000000

units ang
no_reorient
no_com
symmetry c1
}

set {
basis        aug-cc-pVTZ
scf_type     df
}

energy("mp2")
--------------------------------------------------------------------------

    Molecular point group: c1

    Geometry (in Angstrom), charge = 1, multiplicity = 1:

       Center              X                  Y                   Z               Mass
    ------------   -----------------  -----------------  -----------------  -----------------
         LI           0.000000000000     0.000000000000     0.000000000000     7.016003436600
         O            1.670181000000     0.000000000000     0.000000000000    15.994914619570
         H            2.255185000000     0.763729000000     0.000000000000     1.007825032230
         H            2.255185000000    -0.763729000000     0.000000000000     1.007825032230
         O           -1.670181000000     0.000000000000     0.000000000000    15.994914619570
         H           -2.255184000000    -0.763729000000     0.000000000000     1.007825032230
         H           -2.255184000000     0.763729000000     0.000000000000     1.007825032230

  Charge       = 1
  Multiplicity = 1
  Basis Set: AUG-CC-PVTZ
    Blend: AUG-CC-PVTZ
  Basis Set: (AUG-CC-PVTZ AUX)
    Blend: AUG-CC-PVTZ-JKFIT + DEF2-UNIVERSAL-JKFIT

    Orbital Energies [Eh]
    ---------------------

    Doubly Occupied:

       1A    -20.796300     2A    -20.796300     3A     -2.599609
       4A     -1.592932     5A     -1.589648     6A     -0.953000
       7A     -0.951580     8A     -0.866742     9A     -0.848865
      10A     -0.755140    11A     -0.750154

  @DF-RHF Final Energy:  -159.45220575428746

   => Energetics <=

    Nuclear Repulsion Energy =             51.0002864254242212
    One-Electron Energy =                -315.9044415019488952
    Two-Electron Energy =                 105.4519493222372120
    Total Energy =                       -159.4522057542874336
 Dipole X            :         -0.0000025            0.0000038            0.0000013
 Dipole Y            :          0.0000000            0.0000000            0.0000000
 Dipole Z            :          0.0000000            0.0000000            0.0000000
 Magnitude           :                                                    0.0000013
  Basis Set: (AUG-CC-PVTZ AUX)
    Blend: AUG-CC-PVTZ-RI + DEF2-QZVPP-RI
	 Reference Energy          =    -159.4522057542874620 [Eh]
	 Singles Energy            =      -0.0000000000000000 [Eh]
	 Same-Spin Energy          =      -0.1359738665668547 [Eh]
	 Opposite-Spin Energy      =      -0.4427630441580953 [Eh]
	 Correlation Energy        =      -0.5787369107249499 [Eh]
	 Total Energy              =    -160.0309426650124180 [Eh]

	 ================> DF-SCS-MP2 Energies <==================
	-----------------------------------------------------------
	 SCS Same-Spin Scale       =       0.3333333333333333 [-]
	 SCS Opposite-Spin Scale   =       1.2000000000000000 [-]
	 SCS Same-Spin Energy      =      -0.0453246221889516 [Eh]
	 SCS Opposite-Spin Energy  =      -0.5313156529897143 [Eh]
	 SCS Correlation Energy    =      -0.5766402751786659 [Eh]
	 SCS Total Energy          =    -160.0288460294661377 [Eh]
	-----------------------------------------------------------

*** Psi4 exiting successfully. Buy a developer a beer!
