                               Psi4 1.8.2 release

  ==> Input File <==

--------------------------------------------------------------------------
MEMORY 60 GB

molecule dimer {
1 1
Li         0.000000     0.000000     0.000000
O          1.762969     0.000000     0.000000
H          2.347973     0.763729     0.000000
H          2.347973    -0.763729     0.000000
O         -1.762969     0.000000     0.000000
H         -2.347972    -0.763729     0.000000
H         -2.347972     0.763729     0.000000

units ang
no_reorient
no_com
symmetry c1
}

set {
basis        aug-cc-pVTZ
scf_type     df
}

energy("mp2")
--------------------------------------------------------------------------

    Molecular point group: c1

    Geometry (in Angstrom), charge = 1, multiplicity = 1:

       Center              X                  Y                   Z               Mass
    ------------   -----------------  -----------------  -----------------  -----------------
         LI           0.000000000000     0.000000000000     0.000000000000     7.016003436600
         O            1.762969000000     0.000000000000     0.000000000000    15.994914619570
         H            2.347973000000     0.763729000000     0.000000000000     1.007825032230
         H            2.347973000000    -0.763729000000     0.000000000000     1.007825032230
         O           -1.762969000000     0.000000000000     0.000000000000    15.994914619570
         H           -2.347972000000    -0.763729000000     0.000000000000     1.007825032230
         H           -2.347972000000     0.763729000000     0.000000000000     1.007825032230

  Charge       = 1
  Multiplicity = 1
  Basis Set: AUG-CC-PVTZ
    Blend: AUG-CC-PVTZ
  Basis Set: (AUG-CC-PVTZ AUX)
    Blend: AUG-CC-PVTZ-JKFIT + DEF2-UNIVERSAL-JKFIT

    Orbital Energies [Eh]
    ---------------------

    Doubly Occupied:

       1A    -20.792741     2A    -20.792741     3A     -2.611021
       4A     -1.585408     5A     -1.583468     6A     -0.946410
       7A     -0.945486     8A     -0.854859     9A     -0.842618
      10A     -0.747559    11A     -0.744038

  @DF-RHF Final Energy:  -159.45991622186241

   => Energetics <=

    Nuclear Repulsion Energy =             49.3692726702873657
    One-Electron Energy =                -312.7656754623772599
    Two-Electron Energy =                 103.9364865702274443
    Total Energy =                       -159.4599162218624429
 Dipole X            :         -0.0000025            0.0000038            0.0000012
 Dipole Y            :         -0.0000000            0.0000000           -0.0000000
 Dipole Z            :          0.0000000            0.0000000            0.0000000
 Magnitude           :                                                    0.0000012
  Basis Set: (AUG-CC-PVTZ AUX)
    Blend: AUG-CC-PVTZ-RI + DEF2-QZVPP-RI
	 Reference Energy          =    -159.4599162218624144 [Eh]
	 Singles Energy            =      -0.0000000000000000 [Eh]
	 Same-Spin Energy          =      -0.1359276981331657 [Eh]
	 Opposite-Spin Energy      =      -0.4424545434387337 [Eh]
	 Correlation Energy        =      -0.5783822415718995 [Eh]
	 Total Energy              =    -160.0382984634343018 [Eh]

	 ================> DF-SCS-MP2 Energies <==================
	-----------------------------------------------------------
	 SCS Same-Spin Scale       =       0.3333333333333333 [-]
	 SCS Opposite-Spin Scale   =       1.2000000000000000 [-]
	 SCS Same-Spin Energy      =      -0.0453092327110552 [Eh]
	 SCS Opposite-Spin Energy  =      -0.5309454521264805 [Eh]
	 SCS Correlation Energy    =      -0.5762546848375357 [Eh]
	 SCS Total Energy          =    -160.0361709066999367 [Eh]
	-----------------------------------------------------------

*** Psi4 exiting successfully. Buy a developer a beer!
