                               Psi4 1.8.2 release

  ==> Input File <==

--------------------------------------------------------------------------
MEMORY 60 GB

molecule dimer {
0 1
Gh(Li)     0.000000     0.000000     0.000000
O          2.226908     0.000000     0.000000
H          2.811912     0.763729     0.000000
H          2.811912    -0.763729     0.000000
Gh(O)     -2.226908     0.000000     0.000000
Gh(H)     -2.811911    -0.763729     0.000000
Gh(H)     -2.811911     0.763729     0.000000

units ang
no_reorient
no_com
symmetry c1
}

set {
basis        aug-cc-pVTZ
scf_type     df
}

energy("mp2")
--------------------------------------------------------------------------

    Molecular point group: c1

    Geometry (in Angstrom), charge = 0, multiplicity = 1:

       Center              X                  Y                   Z               Mass
    ------------   -----------------  -----------------  -----------------  -----------------
      Gh(LI)          0.000000000000     0.000000000000     0.000000000000     7.016003436600
         O            2.226908000000     0.000000000000     0.000000000000    15.994914619570
         H            2.811912000000     0.763729000000     0.000000000000     1.007825032230
         H            2.811912000000    -0.763729000000     0.000000000000     1.007825032230
      Gh(O)          -2.226908000000     0.000000000000     0.000000000000    15.994914619570
      Gh(H)          -2.811911000000    -0.763729000000     0.000000000000     1.007825032230
      Gh(H)          -2.811911000000     0.763729000000     0.000000000000     1.007825032230

  Charge       = 0
  Multiplicity = 1
  Basis Set: AUG-CC-PVTZ
    Blend: AUG-CC-PVTZ
  Basis Set: (AUG-CC-PVTZ AUX)
    Blend: AUG-CC-PVTZ-JKFIT + DEF2-UNIVERSAL-JKFIT

    Orbital Energies [Eh]
    ---------------------

    Doubly Occupied:

       1A    -20.567663     2A     -1.350643     3A     -0.716269
       4A     -0.582843     5A     -0.509738

  @DF-RHF Final Energy:   -76.06034394762123

   => Energetics <=

    Nuclear Repulsion Energy =              9.1474054777200244
    One-Electron Energy =                -122.9611817833413880
    Two-Electron Energy =                  37.7534323580001185
    Total Energy =                        -76.0603439476212486
 Dipole X            :        -43.5163383           44.2934570            0.7771187
 Dipole Y            :          0.0000000            0.0000000            0.0000000
 Dipole Z            :         -0.0000000            0.0000000           -0.0000000
 Magnitude           :                                                    0.7771187
  Basis Set: (AUG-CC-PVTZ AUX)
    Blend: AUG-CC-PVTZ-RI + DEF2-QZVPP-RI
	 Reference Energy          =     -76.0603439476212344 [Eh]
	 Singles Energy            =      -0.0000000000000000 [Eh]
	 Same-Spin Energy          =      -0.0684533697507237 [Eh]
	 Opposite-Spin Energy      =      -0.2157827063745870 [Eh]
	 Correlation Energy        =      -0.2842360761253107 [Eh]
	 Total Energy              =     -76.3445800237465448 [Eh]

	 ================> DF-SCS-MP2 Energies <==================
	-----------------------------------------------------------
	 SCS Same-Spin Scale       =       0.3333333333333333 [-]
	 SCS Opposite-Spin Scale   =       1.2000000000000000 [-]
	 SCS Same-Spin Energy      =      -0.0228177899169079 [Eh]
	 SCS Opposite-Spin Energy  =      -0.2589392476495044 [Eh]
	 SCS Correlation Energy    =      -0.2817570375664123 [Eh]
	 SCS Total Energy          =     -76.3421009851876420 [Eh]
	-----------------------------------------------------------

*** Psi4 exiting successfully. Buy a developer a beer!
