                               Psi4 1.8.2 release

  ==> Input File <==

--------------------------------------------------------------------------
MEMORY 60 GB

molecule dimer {
0 1
Gh(Li)     0.000000     0.000000     0.000000
O          2.783635     0.000000     0.000000
H          3.368640     0.763729     0.000000
H          3.368640    -0.763729     0.000000
Gh(O)     -2.783635     0.000000     0.000000
Gh(H)     -3.368638    -0.763729     0.000000
Gh(H)     -3.368638     0.763729     0.000000

units ang
no_reorient
no_com
symmetry c1
}

set {
basis        aug-cc-pVTZ
scf_type     df
}

energy("mp2")
--------------------------------------------------------------------------

    Molecular point group: c1

    Geometry (in Angstrom), charge = 0, multiplicity = 1:

       Center              X                  Y                   Z               Mass
    ------------   -----------------  -----------------  -----------------  -----------------
      Gh(LI)          0.000000000000     0.000000000000     0.000000000000     7.016003436600
         O            2.783635000000     0.000000000000     0.000000000000    15.994914619570
         H            3.368640000000     0.763729000000     0.000000000000     1.007825032230
         H            3.368640000000    -0.763729000000     0.000000000000     1.007825032230
      Gh(O)          -2.783635000000     0.000000000000     0.000000000000    15.994914619570
      Gh(H)          -3.368638000000    -0.763729000000     0.000000000000     1.007825032230
      Gh(H)          -3.368638000000     0.763729000000     0.000000000000     1.007825032230

  Charge       = 0
  Multiplicity = 1
  Basis Set: AUG-CC-PVTZ
    Blend: AUG-CC-PVTZ
  Basis Set: (AUG-CC-PVTZ AUX)
    Blend: AUG-CC-PVTZ-JKFIT + DEF2-UNIVERSAL-JKFIT

    Orbital Energies [Eh]
    ---------------------

    Doubly Occupied:

       1A    -20.567742     2A     -1.350689     3A     -0.716312
       4A     -0.582877     5A     -0.509760

  @DF-RHF Final Energy:   -76.06030685626757

   => Energetics <=

    Nuclear Repulsion Energy =              9.1473999147455807
    One-Electron Energy =                -122.9606509526969518
    Two-Electron Energy =                  37.7529441816838087
    Total Energy =                        -76.0603068562675730
 Dipole X            :        -54.0364901           54.8140763            0.7775862
 Dipole Y            :          0.0000000            0.0000000            0.0000000
 Dipole Z            :          0.0000000            0.0000000            0.0000000
 Magnitude           :                                                    0.7775862
  Basis Set: (AUG-CC-PVTZ AUX)
    Blend: AUG-CC-PVTZ-RI + DEF2-QZVPP-RI
	 Reference Energy          =     -76.0603068562675730 [Eh]
	 Singles Energy            =      -0.0000000000000000 [Eh]
	 Same-Spin Energy          =      -0.0684352388325160 [Eh]
	 Opposite-Spin Energy      =      -0.2155986030418821 [Eh]
	 Correlation Energy        =      -0.2840338418743981 [Eh]
	 Total Energy              =     -76.3443406981419770 [Eh]

	 ================> DF-SCS-MP2 Energies <==================
	-----------------------------------------------------------
	 SCS Same-Spin Scale       =       0.3333333333333333 [-]
	 SCS Opposite-Spin Scale   =       1.2000000000000000 [-]
	 SCS Same-Spin Energy      =      -0.0228117462775053 [Eh]
	 SCS Opposite-Spin Energy  =      -0.2587183236502585 [Eh]
	 SCS Correlation Energy    =      -0.2815300699277639 [Eh]
	 SCS Total Energy          =     -76.3418369261953416 [Eh]
	-----------------------------------------------------------

*** Psi4 exiting successfully. Buy a developer a beer!
