                               Psi4 1.8.2 release

  ==> Input File <==

--------------------------------------------------------------------------
MEMORY 60 GB

molecule dimer {
0 1
Gh(Li)     0.000000     0.000000     0.000000
O          1.670181     0.000000     0.000000
H          2.255185     0.763729     0.000000
H          2.255185    -0.763729     0.000000
Gh(O)     -1.670181     0.000000     0.000000
Gh(H)     -2.255184    -0.763729     0.000000
Gh(H)     -2.255184     0.763729     0.000000

units ang
no_reorient
no_com
symmetry c1
}

set {
basis        aug-cc-pVTZ
scf_type     df
}

energy("mp2")
--------------------------------------------------------------------------

    Molecular point group: c1

    Geometry (in Angstrom), charge = 0, multiplicity = 1:

       Center              X                  Y                   Z               Mass
    ------------   -----------------  -----------------  -----------------  -----------------
      Gh(LI)          0.000000000000     0.000000000000     0.000000000000     7.016003436600
         O            1.670181000000     0.000000000000     0.000000000000    15.994914619570
         H            2.255185000000     0.763729000000     0.000000000000     1.007825032230
         H            2.255185000000    -0.763729000000     0.000000000000     1.007825032230
      Gh(O)          -1.670181000000     0.000000000000     0.000000000000    15.994914619570
      Gh(H)          -2.255184000000    -0.763729000000     0.000000000000     1.007825032230
      Gh(H)          -2.255184000000     0.763729000000     0.000000000000     1.007825032230

  Charge       = 0
  Multiplicity = 1
  Basis Set: AUG-CC-PVTZ
    Blend: AUG-CC-PVTZ
  Basis Set: (AUG-CC-PVTZ AUX)
    Blend: AUG-CC-PVTZ-JKFIT + DEF2-UNIVERSAL-JKFIT

    Orbital Energies [Eh]
    ---------------------

    Doubly Occupied:

       1A    -20.567621     2A     -1.350621     3A     -0.716248
       4A     -0.582825     5A     -0.509738

  @DF-RHF Final Energy:   -76.06036620778320

   => Energetics <=

    Nuclear Repulsion Energy =              9.1474054777200244
    One-Electron Energy =                -122.9614341348479201
    Two-Electron Energy =                  37.7536624493446809
    Total Energy =                        -76.0603662077832041
 Dipole X            :        -32.9956819           33.7728414            0.7771594
 Dipole Y            :         -0.0000000            0.0000000           -0.0000000
 Dipole Z            :          0.0000000            0.0000000            0.0000000
 Magnitude           :                                                    0.7771594
  Basis Set: (AUG-CC-PVTZ AUX)
    Blend: AUG-CC-PVTZ-RI + DEF2-QZVPP-RI
	 Reference Energy          =     -76.0603662077832041 [Eh]
	 Singles Energy            =      -0.0000000000000000 [Eh]
	 Same-Spin Energy          =      -0.0684843624153319 [Eh]
	 Opposite-Spin Energy      =      -0.2160893880697490 [Eh]
	 Correlation Energy        =      -0.2845737504850809 [Eh]
	 Total Energy              =     -76.3449399582682844 [Eh]

	 ================> DF-SCS-MP2 Energies <==================
	-----------------------------------------------------------
	 SCS Same-Spin Scale       =       0.3333333333333333 [-]
	 SCS Opposite-Spin Scale   =       1.2000000000000000 [-]
	 SCS Same-Spin Energy      =      -0.0228281208051106 [Eh]
	 SCS Opposite-Spin Energy  =      -0.2593072656836988 [Eh]
	 SCS Correlation Energy    =      -0.2821353864888095 [Eh]
	 SCS Total Energy          =     -76.3425015942720080 [Eh]
	-----------------------------------------------------------

*** Psi4 exiting successfully. Buy a developer a beer!
