                               Psi4 1.9 release

  ==> Input File <==

--------------------------------------------------------------------------
MEMORY 60 GB

molecule dimer {
1 1
Li     0.000000     0.000000     0.000000
--
0 1
O      2.598060     0.000000     0.000000
H      3.183064     0.763729     0.000000
H      3.183064    -0.763729     0.000000
O     -2.598060     0.000000     0.000000
H     -3.183063    -0.763729     0.000000
H     -3.183063     0.763729     0.000000

units ang
no_reorient
no_com
symmetry c1
}

set {
basis        aug-cc-pVTZ
scf_type     df
}

energy("mp2", bsse_type="cp")
--------------------------------------------------------------------------

                               Psi4 1.9 release
    Molecular point group: c1
  Charge       = 0
  Multiplicity = 1
  Basis Set: AUG-CC-PVTZ
    Blend: AUG-CC-PVTZ
  Basis Set: (AUG-CC-PVTZ AUX)
    Blend: AUG-CC-PVTZ-JKFIT + DEF2-UNIVERSAL-JKFIT
  @DF-RHF Final Energy:  -152.11948348838004
    Total Energy =                       -152.1194834883800127
 Dipole X            :         -0.0000029            0.0000038            0.0000009
 Dipole Y            :          0.0000000            0.0000000            0.0000000
 Dipole Z            :         -0.0000000            0.0000000           -0.0000000
 Magnitude           :                                                    0.0000009
  Basis Set: (AUG-CC-PVTZ AUX)
    Blend: AUG-CC-PVTZ-RI + DEF2-QZVPP-RI
	 Reference Energy          =    -152.1194834883800411 [Eh]
	 Singles Energy            =      -0.0000000000000000 [Eh]
	 Same-Spin Energy          =      -0.1369327376891678 [Eh]
	 Opposite-Spin Energy      =      -0.4314230183467266 [Eh]
	 Correlation Energy        =      -0.5683557560358944 [Eh]
	 Total Energy              =    -152.6878392444159260 [Eh]
	 SCS Total Energy          =    -152.6828353562925145 [Eh]
                               Psi4 1.9 release
    Molecular point group: c1
  Multiplicity = 1
  Basis Set: AUG-CC-PVTZ
    Blend: AUG-CC-PVTZ
  Basis Set: (AUG-CC-PVTZ AUX)
    Blend: AUG-CC-PVTZ-JKFIT + DEF2-UNIVERSAL-JKFIT
  @DF-RHF Final Energy:    -7.23638368769318
    Total Energy =                         -7.2363836876931771
  Basis Set: (AUG-CC-PVTZ AUX)
	 Singles Energy            =      -0.0000000000000000 [Eh]
	 Same-Spin Energy          =       0.0000000000000000 [Eh]
	 Opposite-Spin Energy      =      -0.0121122203280644 [Eh]
	 Correlation Energy        =      -0.0121122203280644 [Eh]
	 Total Energy              =      -7.2484959080212414 [Eh]
	 SCS Total Energy          =      -7.2509183520868543 [Eh]
                               Psi4 1.9 release
    Molecular point group: c1

    Geometry (in Bohr), charge = 1, multiplicity = 1:

       Center              X                  Y                   Z               Mass
    ------------   -----------------  -----------------  -----------------  -----------------
         LI           0.000000000000     0.000000000000     0.000000000000     7.016003436600
         O            4.909621857507     0.000000000000     0.000000000000    15.994914619570
         H            6.015119199804     1.443238644070     0.000000000000     1.007825032230
         H            6.015119199804    -1.443238644070     0.000000000000     1.007825032230
         O           -4.909621857507     0.000000000000     0.000000000000    15.994914619570
         H           -6.015117310078    -1.443238644070     0.000000000000     1.007825032230
         H           -6.015117310078     1.443238644070     0.000000000000     1.007825032230

  Charge       = 1
  Multiplicity = 1
  Basis Set: AUG-CC-PVTZ
    Blend: AUG-CC-PVTZ
  Basis Set: (AUG-CC-PVTZ AUX)
    Blend: AUG-CC-PVTZ-JKFIT + DEF2-UNIVERSAL-JKFIT

    Orbital Energies [Eh]
    ---------------------

    Doubly Occupied:

       1A    -20.746821     2A    -20.746821     3A     -2.704576
       4A     -1.529466     5A     -1.529446     6A     -0.894152
       7A     -0.894128     8A     -0.775914     9A     -0.775574
      10A     -0.691223    11A     -0.691053

  @DF-RHF Final Energy:  -159.42651455880707

   => Energetics <=

    Nuclear Repulsion Energy =             39.7610741142517128
    One-Electron Energy =                -294.4168231895613417
    Two-Electron Energy =                  95.2292345165025722
    Total Energy =                       -159.4265145588070709
 Dipole X            :         -0.0000028            0.0000038            0.0000010
 Dipole Y            :          0.0000000            0.0000000            0.0000000
 Dipole Z            :          0.0000000            0.0000000            0.0000000
 Magnitude           :                                                    0.0000010
  Basis Set: (AUG-CC-PVTZ AUX)
    Blend: AUG-CC-PVTZ-RI + DEF2-QZVPP-RI
	 Reference Energy          =    -159.4265145588070709 [Eh]
	 Singles Energy            =      -0.0000000000000000 [Eh]
	 Same-Spin Energy          =      -0.1364575257996945 [Eh]
	 Opposite-Spin Energy      =      -0.4415145847555221 [Eh]
	 Correlation Energy        =      -0.5779721105552167 [Eh]
	 Total Energy              =    -160.0044866693622794 [Eh]

	 ================> DF-SCS-MP2 Energies <==================
	-----------------------------------------------------------
	 SCS Same-Spin Scale       =       0.3333333333333333 [-]
	 SCS Opposite-Spin Scale   =       1.2000000000000000 [-]
	 SCS Same-Spin Energy      =      -0.0454858419332315 [Eh]
	 SCS Opposite-Spin Energy  =      -0.5298175017066266 [Eh]
	 SCS Correlation Energy    =      -0.5753033436398580 [Eh]
	 SCS Total Energy          =    -160.0018179024469305 [Eh]
	-----------------------------------------------------------

*** Psi4 exiting successfully. Buy a developer a beer!
