                               Psi4 1.8.2 release

  ==> Input File <==

--------------------------------------------------------------------------
MEMORY 60 GB

molecule dimer {
1 1
Li     0.000000     0.000000     0.000000
--
0 1
O      3.711514     0.000000     0.000000
H      4.296518     0.763729     0.000000
H      4.296518    -0.763729     0.000000
--
0 1
O     -3.711514     0.000000     0.000000
H     -4.296517    -0.763729     0.000000
H     -4.296517     0.763729     0.000000

units ang
no_reorient
no_com
symmetry c1
}

set {
basis        aug-cc-pVTZ
scf_type     df
}

energy("mp2", bsse_type="cp")
--------------------------------------------------------------------------

                               Psi4 1.8.2 release
    Molecular point group: c1
  Charge       = 1
  Multiplicity = 1
  Basis Set: AUG-CC-PVTZ
    Blend: AUG-CC-PVTZ
  Basis Set: (AUG-CC-PVTZ AUX)
    Blend: AUG-CC-PVTZ-JKFIT + DEF2-UNIVERSAL-JKFIT
  @DF-RHF Final Energy:    -7.23638284898570
    Total Energy =                         -7.2363828489857047
 Dipole X            :          0.0000000            0.0000000            0.0000000
 Dipole Y            :         -0.0000000            0.0000000           -0.0000000
 Dipole Z            :          0.0000000            0.0000000            0.0000000
 Magnitude           :                                                    0.0000000
  Basis Set: (AUG-CC-PVTZ AUX)
    Blend: AUG-CC-PVTZ-RI + DEF2-QZVPP-RI
	 Reference Energy          =      -7.2363828489857047 [Eh]
	 Singles Energy            =      -0.0000000000000000 [Eh]
	 Same-Spin Energy          =       0.0000000000000000 [Eh]
	 Opposite-Spin Energy      =      -0.0112669014552185 [Eh]
	 Correlation Energy        =      -0.0112669014552185 [Eh]
	 Total Energy              =      -7.2476497504409236 [Eh]
	 SCS Total Energy          =      -7.2499031307319672 [Eh]
                               Psi4 1.8.2 release
    Molecular point group: c1
  Basis Set: AUG-CC-PVTZ
    Blend: AUG-CC-PVTZ
  Basis Set: (AUG-CC-PVTZ AUX)
    Blend: AUG-CC-PVTZ-JKFIT + DEF2-UNIVERSAL-JKFIT
  @DF-RHF Final Energy:   -76.06027924436779
    Total Energy =                        -76.0602792443677913
  Basis Set: (AUG-CC-PVTZ AUX)
                               Psi4 1.8.2 release
  @DF-RHF Final Energy:  -152.12014278077800
    Total Energy =                       -152.1201427807779680
                               Psi4 1.8.2 release
  @DF-RHF Final Energy:   -83.31347693208957
    Total Energy =                        -83.3134769320895714
                               Psi4 1.8.2 release
  @DF-RHF Final Energy:   -83.31347688434364
    Total Energy =                        -83.3134768843436575
                               Psi4 1.8.2 release
  Multiplicity = 1
  @DF-RHF Final Energy:   -76.06027929814651
    Total Energy =                        -76.0602792981465257
	 Singles Energy            =      -0.0000000000000000 [Eh]
	 Same-Spin Energy          =      -0.0684204020999955 [Eh]
	 Opposite-Spin Energy      =      -0.2154586716625948 [Eh]
	 Correlation Energy        =      -0.2838790737625903 [Eh]
	 Total Energy              =     -76.3441583719091028 [Eh]
	 SCS Total Energy          =     -76.3416365048416168 [Eh]
                               Psi4 1.8.2 release
    Molecular point group: c1

    Geometry (in Bohr), charge = 1, multiplicity = 1:

       Center              X                  Y                   Z               Mass
    ------------   -----------------  -----------------  -----------------  -----------------
         LI           0.000000000000     0.000000000000     0.000000000000     7.016003436600
         O            7.013744970802     0.000000000000     0.000000000000    15.994914619570
         H            8.119242313100     1.443238644070     0.000000000000     1.007825032230
         H            8.119242313100    -1.443238644070     0.000000000000     1.007825032230
         O           -7.013744970802     0.000000000000     0.000000000000    15.994914619570
         H           -8.119240423374    -1.443238644070     0.000000000000     1.007825032230
         H           -8.119240423374     1.443238644070     0.000000000000     1.007825032230

  Charge       = 1
  Multiplicity = 1
  Basis Set: AUG-CC-PVTZ
    Blend: AUG-CC-PVTZ
  Basis Set: (AUG-CC-PVTZ AUX)
    Blend: AUG-CC-PVTZ-JKFIT + DEF2-UNIVERSAL-JKFIT

    Orbital Energies [Eh]
    ---------------------

    Doubly Occupied:

       1A    -20.698065     2A    -20.698065     3A     -2.755184
       4A     -1.481156     5A     -1.481155     6A     -0.846595
       7A     -0.846595     8A     -0.719743     9A     -0.719741
      10A     -0.641833    11A     -0.641824

  @DF-RHF Final Energy:  -159.38993748524993

   => Energetics <=

    Nuclear Repulsion Energy =             33.5056131889575610
    One-Electron Energy =                -282.7311843942881069
    Two-Electron Energy =                  89.8356337200806081
    Total Energy =                       -159.3899374852499307
 Dipole X            :         -0.0000029            0.0000038            0.0000009
 Dipole Y            :          0.0000000            0.0000000            0.0000000
 Dipole Z            :          0.0000000            0.0000000            0.0000000
 Magnitude           :                                                    0.0000009
  Basis Set: (AUG-CC-PVTZ AUX)
    Blend: AUG-CC-PVTZ-RI + DEF2-QZVPP-RI
	 Reference Energy          =    -159.3899374852499307 [Eh]
	 Singles Energy            =      -0.0000000000000000 [Eh]
	 Same-Spin Energy          =      -0.1365697030413069 [Eh]
	 Opposite-Spin Energy      =      -0.4410534119171350 [Eh]
	 Correlation Energy        =      -0.5776231149584419 [Eh]
	 Total Energy              =    -159.9675606002083725 [Eh]

	 ================> DF-SCS-MP2 Energies <==================
	-----------------------------------------------------------
	 SCS Same-Spin Scale       =       0.3333333333333333 [-]
	 SCS Opposite-Spin Scale   =       1.2000000000000000 [-]
	 SCS Same-Spin Energy      =      -0.0455232343471023 [Eh]
	 SCS Opposite-Spin Energy  =      -0.5292640943005620 [Eh]
	 SCS Correlation Energy    =      -0.5747873286476642 [Eh]
	 SCS Total Energy          =    -159.9647248138975897 [Eh]
	-----------------------------------------------------------

*** Psi4 exiting successfully. Buy a developer a beer!
