                               Psi4 1.8.2 release

  ==> Input File <==

--------------------------------------------------------------------------
MEMORY 60 GB

molecule dimer {
1 1
Na     0.000000     0.000000     0.000000
--
0 1
O      2.682046     0.000000     0.000000
H      3.271004     0.759416     0.000000
H      3.271004    -0.759416     0.000000
--
0 1
O     -2.682046     0.000000     0.000000
H     -3.271004    -0.759416     0.000000
H     -3.271004     0.759416     0.000000

units ang
no_reorient
no_com
symmetry c1
}

set {
basis        aug-cc-pVTZ
scf_type     df
}

energy("mp2", bsse_type="cp")
--------------------------------------------------------------------------

                               Psi4 1.8.2 release
    Molecular point group: c1
  Charge       = 1
  Multiplicity = 1
  Basis Set: AUG-CC-PVTZ
    Blend: AUG-CC-PVTZ
  Basis Set: (AUG-CC-PVTZ AUX)
    Blend: AUG-CC-PVTZ-JKFIT + DEF2-UNIVERSAL-JKFIT
  @DF-RHF Final Energy:  -161.67604780307357
    Total Energy =                       -161.6760478030735442
 Dipole X            :         -0.0000000            0.0000000           -0.0000000
 Dipole Y            :         -0.0000000            0.0000000           -0.0000000
 Dipole Z            :          0.0000000            0.0000000            0.0000000
 Magnitude           :                                                    0.0000000
  Basis Set: (AUG-CC-PVTZ AUX)
    Blend: AUG-CC-PVTZ-RI + DEF2-QZVPP-RI
	 Reference Energy          =    -161.6760478030735726 [Eh]
	 Singles Energy            =      -0.0000000000000000 [Eh]
	 Same-Spin Energy          =      -0.0032262903558915 [Eh]
	 Opposite-Spin Energy      =      -0.0115088075379191 [Eh]
	 Correlation Energy        =      -0.0147350978938107 [Eh]
	 Total Energy              =    -161.6907829009673776 [Eh]
	 SCS Total Energy          =    -161.6909338022377085 [Eh]
                               Psi4 1.8.2 release
    Molecular point group: c1
  Basis Set: AUG-CC-PVTZ
    Blend: AUG-CC-PVTZ
  Basis Set: (AUG-CC-PVTZ AUX)
    Blend: AUG-CC-PVTZ-JKFIT + DEF2-UNIVERSAL-JKFIT
  @DF-RHF Final Energy:   -76.06036689183327
    Total Energy =                        -76.0603668918332545
  Basis Set: (AUG-CC-PVTZ AUX)
                               Psi4 1.8.2 release
  @DF-RHF Final Energy:  -152.11967807753200
    Total Energy =                       -152.1196780775320008
                               Psi4 1.8.2 release
  @DF-RHF Final Energy:  -237.76843530060412
    Total Energy =                       -237.7684353006041249
                               Psi4 1.8.2 release
  @DF-RHF Final Energy:  -237.76843530060785
    Total Energy =                       -237.7684353006078481
                               Psi4 1.8.2 release
  Multiplicity = 1
  @DF-RHF Final Energy:   -76.06036689183199
    Total Energy =                        -76.0603668918319897
	 Singles Energy            =      -0.0000000000000000 [Eh]
	 Same-Spin Energy          =      -0.0684323871837024 [Eh]
	 Opposite-Spin Energy      =      -0.2156139238775627 [Eh]
	 Correlation Energy        =      -0.2840463110612651 [Eh]
	 Total Energy              =     -76.3444132028932501 [Eh]
	 SCS Total Energy          =     -76.3419143962129709 [Eh]
                               Psi4 1.8.2 release
    Molecular point group: c1

    Geometry (in Bohr), charge = 1, multiplicity = 1:

       Center              X                  Y                   Z               Mass
    ------------   -----------------  -----------------  -----------------  -----------------
         NA           0.000000000000     0.000000000000     0.000000000000    22.989769282000
         O            5.068332395880     0.000000000000     0.000000000000    15.994914619570
         H            6.181301715277     1.435088255291     0.000000000000     1.007825032230
         H            6.181301715277    -1.435088255291     0.000000000000     1.007825032230
         O           -5.068332395880     0.000000000000     0.000000000000    15.994914619570
         H           -6.181301715277    -1.435088255291     0.000000000000     1.007825032230
         H           -6.181301715277     1.435088255291     0.000000000000     1.007825032230

  Charge       = 1
  Multiplicity = 1
  Basis Set: AUG-CC-PVTZ
    Blend: AUG-CC-PVTZ
  Basis Set: (AUG-CC-PVTZ AUX)
    Blend: AUG-CC-PVTZ-JKFIT + DEF2-UNIVERSAL-JKFIT

    Orbital Energies [Eh]
    ---------------------

    Doubly Occupied:

       1A    -40.682338     2A    -20.739893     3A    -20.739893
       4A     -2.996333     5A     -1.720574     6A     -1.720241
       7A     -1.718173     8A     -1.524403     9A     -1.524274
      10A     -0.887363    11A     -0.887361    12A     -0.771195
      13A     -0.769974    14A     -0.685164    15A     -0.685135

  @DF-RHF Final Energy:  -313.85864351952551

   => Energetics <=

    Nuclear Repulsion Energy =             69.4311027286096731
    One-Electron Energy =                -570.4748599632938522
    Two-Electron Energy =                 187.1851137151586499
    Total Energy =                       -313.8586435195255149
 Dipole X            :         -0.0000000            0.0000000           -0.0000000
 Dipole Y            :          0.0000000            0.0000000            0.0000000
 Dipole Z            :          0.0000000            0.0000000            0.0000000
 Magnitude           :                                                    0.0000000
  Basis Set: (AUG-CC-PVTZ AUX)
    Blend: AUG-CC-PVTZ-RI + DEF2-QZVPP-RI
	 Reference Energy          =    -313.8586435195255149 [Eh]
	 Singles Energy            =      -0.0000000000000000 [Eh]
	 Same-Spin Energy          =      -0.1396478844965031 [Eh]
	 Opposite-Spin Energy      =      -0.4406842655263413 [Eh]
	 Correlation Energy        =      -0.5803321500228443 [Eh]
	 Total Energy              =    -314.4389756695483698 [Eh]

	 ================> DF-SCS-MP2 Energies <==================
	-----------------------------------------------------------
	 SCS Same-Spin Scale       =       0.3333333333333333 [-]
	 SCS Opposite-Spin Scale   =       1.2000000000000000 [-]
	 SCS Same-Spin Energy      =      -0.0465492948321677 [Eh]
	 SCS Opposite-Spin Energy  =      -0.5288211186316095 [Eh]
	 SCS Correlation Energy    =      -0.5753704134637773 [Eh]
	 SCS Total Energy          =    -314.4340139329892736 [Eh]
	-----------------------------------------------------------

*** Psi4 exiting successfully. Buy a developer a beer!
