                               Psi4 1.8.2 release

  ==> Input File <==

--------------------------------------------------------------------------
MEMORY 60 GB

molecule dimer {
0 1
Gh(Na)     0.000000     0.000000     0.000000
Gh(O)      2.905549     0.000000     0.000000
Gh(H)      3.494507     0.759416     0.000000
Gh(H)      3.494507    -0.759416     0.000000
O         -2.905549     0.000000     0.000000
H         -3.494507    -0.759416     0.000000
H         -3.494507     0.759416     0.000000

units ang
no_reorient
no_com
symmetry c1
}

set {
basis        aug-cc-pVTZ
scf_type     df
}

energy("mp2")
--------------------------------------------------------------------------

    Molecular point group: c1

    Geometry (in Angstrom), charge = 0, multiplicity = 1:

       Center              X                  Y                   Z               Mass
    ------------   -----------------  -----------------  -----------------  -----------------
      Gh(NA)          0.000000000000     0.000000000000     0.000000000000    22.989769282000
      Gh(O)           2.905549000000     0.000000000000     0.000000000000    15.994914619570
      Gh(H)           3.494507000000     0.759416000000     0.000000000000     1.007825032230
      Gh(H)           3.494507000000    -0.759416000000     0.000000000000     1.007825032230
         O           -2.905549000000     0.000000000000     0.000000000000    15.994914619570
         H           -3.494507000000    -0.759416000000     0.000000000000     1.007825032230
         H           -3.494507000000     0.759416000000     0.000000000000     1.007825032230

  Charge       = 0
  Multiplicity = 1
  Basis Set: AUG-CC-PVTZ
    Blend: AUG-CC-PVTZ
  Basis Set: (AUG-CC-PVTZ AUX)
    Blend: AUG-CC-PVTZ-JKFIT + DEF2-UNIVERSAL-JKFIT

    Orbital Energies [Eh]
    ---------------------

    Doubly Occupied:

       1A    -20.567895     2A     -1.351709     3A     -0.715556
       4A     -0.584420     5A     -0.510057

  @DF-RHF Final Energy:   -76.06034961993070

   => Energetics <=

    Nuclear Repulsion Energy =              9.1585518737866174
    One-Electron Energy =                -122.9785268042110005
    Two-Electron Energy =                  37.7596253104936750
    Total Energy =                        -76.0603496199307045
 Dipole X            :         56.3508026          -57.1328572           -0.7820546
 Dipole Y            :          0.0000000            0.0000000            0.0000000
 Dipole Z            :         -0.0000000            0.0000000           -0.0000000
 Magnitude           :                                                    0.7820546
  Basis Set: (AUG-CC-PVTZ AUX)
    Blend: AUG-CC-PVTZ-RI + DEF2-QZVPP-RI
	 Reference Energy          =     -76.0603496199307045 [Eh]
	 Singles Energy            =      -0.0000000000000000 [Eh]
	 Same-Spin Energy          =      -0.0684274962415896 [Eh]
	 Opposite-Spin Energy      =      -0.2155483482993149 [Eh]
	 Correlation Energy        =      -0.2839758445409045 [Eh]
	 Total Energy              =     -76.3443254644716092 [Eh]

	 ================> DF-SCS-MP2 Energies <==================
	-----------------------------------------------------------
	 SCS Same-Spin Scale       =       0.3333333333333333 [-]
	 SCS Opposite-Spin Scale   =       1.2000000000000000 [-]
	 SCS Same-Spin Energy      =      -0.0228091654138632 [Eh]
	 SCS Opposite-Spin Energy  =      -0.2586580179591779 [Eh]
	 SCS Correlation Energy    =      -0.2814671833730411 [Eh]
	 SCS Total Energy          =     -76.3418168033037432 [Eh]
	-----------------------------------------------------------

*** Psi4 exiting successfully. Buy a developer a beer!
