                               Psi4 1.8.2 release

  ==> Input File <==

--------------------------------------------------------------------------
MEMORY 60 GB

molecule dimer {
1 1
Na         0.000000     0.000000     0.000000
O          2.458542     0.000000     0.000000
H          3.047500     0.759416     0.000000
H          3.047500    -0.759416     0.000000
O         -2.458542     0.000000     0.000000
H         -3.047500    -0.759416     0.000000
H         -3.047500     0.759416     0.000000

units ang
no_reorient
no_com
symmetry c1
}

set {
basis        aug-cc-pVTZ
scf_type     df
}

energy("mp2")
--------------------------------------------------------------------------

    Molecular point group: c1

    Geometry (in Angstrom), charge = 1, multiplicity = 1:

       Center              X                  Y                   Z               Mass
    ------------   -----------------  -----------------  -----------------  -----------------
         NA           0.000000000000     0.000000000000     0.000000000000    22.989769282000
         O            2.458542000000     0.000000000000     0.000000000000    15.994914619570
         H            3.047500000000     0.759416000000     0.000000000000     1.007825032230
         H            3.047500000000    -0.759416000000     0.000000000000     1.007825032230
         O           -2.458542000000     0.000000000000     0.000000000000    15.994914619570
         H           -3.047500000000    -0.759416000000     0.000000000000     1.007825032230
         H           -3.047500000000     0.759416000000     0.000000000000     1.007825032230

  Charge       = 1
  Multiplicity = 1
  Basis Set: AUG-CC-PVTZ
    Blend: AUG-CC-PVTZ
  Basis Set: (AUG-CC-PVTZ AUX)
    Blend: AUG-CC-PVTZ-JKFIT + DEF2-UNIVERSAL-JKFIT

    Orbital Energies [Eh]
    ---------------------

    Doubly Occupied:

       1A    -40.664821     2A    -20.750521     3A    -20.750521
       4A     -2.980746     5A     -1.705186     6A     -1.704721
       7A     -1.702896     8A     -1.536238     9A     -1.535740
      10A     -0.898737    11A     -0.898732    12A     -0.786575
      13A     -0.783987    14A     -0.697068    15A     -0.697020

  @DF-RHF Final Energy:  -313.86616249894757

   => Energetics <=

    Nuclear Repulsion Energy =             73.8894194088554315
    One-Electron Energy =                -579.3241405325169353
    Two-Electron Energy =                 191.5685586247139724
    Total Energy =                       -313.8661624989475740
 Dipole X            :          0.0000000            0.0000000            0.0000000
 Dipole Y            :          0.0000000            0.0000000            0.0000000
 Dipole Z            :          0.0000000            0.0000000            0.0000000
 Magnitude           :                                                    0.0000000
  Basis Set: (AUG-CC-PVTZ AUX)
    Blend: AUG-CC-PVTZ-RI + DEF2-QZVPP-RI
	 Reference Energy          =    -313.8661624989475740 [Eh]
	 Singles Energy            =      -0.0000000000000000 [Eh]
	 Same-Spin Energy          =      -0.1397415808236670 [Eh]
	 Opposite-Spin Energy      =      -0.4409019720482312 [Eh]
	 Correlation Energy        =      -0.5806435528718982 [Eh]
	 Total Energy              =    -314.4468060518194648 [Eh]

	 ================> DF-SCS-MP2 Energies <==================
	-----------------------------------------------------------
	 SCS Same-Spin Scale       =       0.3333333333333333 [-]
	 SCS Opposite-Spin Scale   =       1.2000000000000000 [-]
	 SCS Same-Spin Energy      =      -0.0465805269412223 [Eh]
	 SCS Opposite-Spin Energy  =      -0.5290823664578774 [Eh]
	 SCS Correlation Energy    =      -0.5756628933990998 [Eh]
	 SCS Total Energy          =    -314.4418253923466864 [Eh]
	-----------------------------------------------------------

*** Psi4 exiting successfully. Buy a developer a beer!
