                               Psi4 1.8.2 release

  ==> Input File <==

--------------------------------------------------------------------------
MEMORY 60 GB

molecule dimer {
0 1
Gh(Na)     0.000000     0.000000     0.000000
O          2.682046     0.000000     0.000000
H          3.271004     0.759416     0.000000
H          3.271004    -0.759416     0.000000
Gh(O)     -2.682046     0.000000     0.000000
Gh(H)     -3.271004    -0.759416     0.000000
Gh(H)     -3.271004     0.759416     0.000000

units ang
no_reorient
no_com
symmetry c1
}

set {
basis        aug-cc-pVTZ
scf_type     df
}

energy("mp2")
--------------------------------------------------------------------------

    Molecular point group: c1

    Geometry (in Angstrom), charge = 0, multiplicity = 1:

       Center              X                  Y                   Z               Mass
    ------------   -----------------  -----------------  -----------------  -----------------
      Gh(NA)          0.000000000000     0.000000000000     0.000000000000    22.989769282000
         O            2.682046000000     0.000000000000     0.000000000000    15.994914619570
         H            3.271004000000     0.759416000000     0.000000000000     1.007825032230
         H            3.271004000000    -0.759416000000     0.000000000000     1.007825032230
      Gh(O)          -2.682046000000     0.000000000000     0.000000000000    15.994914619570
      Gh(H)          -3.271004000000    -0.759416000000     0.000000000000     1.007825032230
      Gh(H)          -3.271004000000     0.759416000000     0.000000000000     1.007825032230

  Charge       = 0
  Multiplicity = 1
  Basis Set: AUG-CC-PVTZ
    Blend: AUG-CC-PVTZ
  Basis Set: (AUG-CC-PVTZ AUX)
    Blend: AUG-CC-PVTZ-JKFIT + DEF2-UNIVERSAL-JKFIT

    Orbital Energies [Eh]
    ---------------------

    Doubly Occupied:

       1A    -20.567861     2A     -1.351687     3A     -0.715535
       4A     -0.584410     5A     -0.510039

  @DF-RHF Final Energy:   -76.06036689183316

   => Energetics <=

    Nuclear Repulsion Energy =              9.1585518737866209
    One-Electron Energy =                -122.9787704870914382
    Two-Electron Energy =                  37.7598517214716765
    Total Energy =                        -76.0603668918331408
 Dipole X            :        -52.1274671           52.9092626            0.7817955
 Dipole Y            :         -0.0000000            0.0000000           -0.0000000
 Dipole Z            :          0.0000000            0.0000000            0.0000000
 Magnitude           :                                                    0.7817955
  Basis Set: (AUG-CC-PVTZ AUX)
    Blend: AUG-CC-PVTZ-RI + DEF2-QZVPP-RI
	 Reference Energy          =     -76.0603668918331550 [Eh]
	 Singles Energy            =      -0.0000000000000000 [Eh]
	 Same-Spin Energy          =      -0.0684323871836999 [Eh]
	 Opposite-Spin Energy      =      -0.2156139238775291 [Eh]
	 Correlation Energy        =      -0.2840463110612290 [Eh]
	 Total Energy              =     -76.3444132028943869 [Eh]

	 ================> DF-SCS-MP2 Energies <==================
	-----------------------------------------------------------
	 SCS Same-Spin Scale       =       0.3333333333333333 [-]
	 SCS Opposite-Spin Scale   =       1.2000000000000000 [-]
	 SCS Same-Spin Energy      =      -0.0228107957279000 [Eh]
	 SCS Opposite-Spin Energy  =      -0.2587367086530349 [Eh]
	 SCS Correlation Energy    =      -0.2815475043809348 [Eh]
	 SCS Total Energy          =     -76.3419143962140936 [Eh]
	-----------------------------------------------------------

*** Psi4 exiting successfully. Buy a developer a beer!
