                               Psi4 1.9 release

  ==> Input File <==

--------------------------------------------------------------------------
MEMORY 60 GB

molecule dimer {
1 1
Na     0.000000     0.000000     0.000000
--
0 1
O      2.458542     0.000000     0.000000
H      3.047500     0.759416     0.000000
H      3.047500    -0.759416     0.000000
O     -2.458542     0.000000     0.000000
H     -3.047500    -0.759416     0.000000
H     -3.047500     0.759416     0.000000

units ang
no_reorient
no_com
symmetry c1
}

set {
basis        aug-cc-pVTZ
scf_type     df
}

energy("mp2", bsse_type="cp")
--------------------------------------------------------------------------

                               Psi4 1.9 release
    Molecular point group: c1
  Charge       = 0
  Multiplicity = 1
  Basis Set: AUG-CC-PVTZ
    Blend: AUG-CC-PVTZ
  Basis Set: (AUG-CC-PVTZ AUX)
    Blend: AUG-CC-PVTZ-JKFIT + DEF2-UNIVERSAL-JKFIT
  @DF-RHF Final Energy:  -152.11943123973103
    Total Energy =                       -152.1194312397310568
 Dipole X            :          0.0000000            0.0000000            0.0000000
 Dipole Y            :         -0.0000000            0.0000000           -0.0000000
 Dipole Z            :          0.0000000            0.0000000            0.0000000
 Magnitude           :                                                    0.0000000
  Basis Set: (AUG-CC-PVTZ AUX)
    Blend: AUG-CC-PVTZ-RI + DEF2-QZVPP-RI
	 Reference Energy          =    -152.1194312397310284 [Eh]
	 Singles Energy            =      -0.0000000000000000 [Eh]
	 Same-Spin Energy          =      -0.1369461887897599 [Eh]
	 Opposite-Spin Energy      =      -0.4315698226320140 [Eh]
	 Correlation Energy        =      -0.5685160114217740 [Eh]
	 Total Energy              =    -152.6879472511527922 [Eh]
	 SCS Total Energy          =    -152.6829637564860320 [Eh]
                               Psi4 1.9 release
    Molecular point group: c1
  Multiplicity = 1
  Basis Set: AUG-CC-PVTZ
    Blend: AUG-CC-PVTZ
  Basis Set: (AUG-CC-PVTZ AUX)
    Blend: AUG-CC-PVTZ-JKFIT + DEF2-UNIVERSAL-JKFIT
  @DF-RHF Final Energy:  -161.67605249253828
    Total Energy =                       -161.6760524925382470
  Basis Set: (AUG-CC-PVTZ AUX)
	 Singles Energy            =      -0.0000000000000000 [Eh]
	 Same-Spin Energy          =      -0.0034499934872999 [Eh]
	 Opposite-Spin Energy      =      -0.0121396641879322 [Eh]
	 Correlation Energy        =      -0.0155896576752321 [Eh]
	 Total Energy              =    -161.6916421502135108 [Eh]
	 SCS Total Energy          =    -161.6917700873928823 [Eh]
                               Psi4 1.9 release
    Molecular point group: c1

    Geometry (in Bohr), charge = 1, multiplicity = 1:

       Center              X                  Y                   Z               Mass
    ------------   -----------------  -----------------  -----------------  -----------------
         NA           0.000000000000     0.000000000000     0.000000000000    22.989769282000
         O            4.645971047935     0.000000000000     0.000000000000    15.994914619570
         H            5.758940367333     1.435088255291     0.000000000000     1.007825032230
         H            5.758940367333    -1.435088255291     0.000000000000     1.007825032230
         O           -4.645971047935     0.000000000000     0.000000000000    15.994914619570
         H           -5.758940367333    -1.435088255291     0.000000000000     1.007825032230
         H           -5.758940367333     1.435088255291     0.000000000000     1.007825032230

  Charge       = 1
  Multiplicity = 1
  Basis Set: AUG-CC-PVTZ
    Blend: AUG-CC-PVTZ
  Basis Set: (AUG-CC-PVTZ AUX)
    Blend: AUG-CC-PVTZ-JKFIT + DEF2-UNIVERSAL-JKFIT

    Orbital Energies [Eh]
    ---------------------

    Doubly Occupied:

       1A    -40.664821     2A    -20.750521     3A    -20.750521
       4A     -2.980746     5A     -1.705186     6A     -1.704721
       7A     -1.702896     8A     -1.536238     9A     -1.535740
      10A     -0.898737    11A     -0.898732    12A     -0.786575
      13A     -0.783987    14A     -0.697068    15A     -0.697020

  @DF-RHF Final Energy:  -313.86616249894263

   => Energetics <=

    Nuclear Repulsion Energy =             73.8894194088554315
    One-Electron Energy =                -579.3241405324876041
    Two-Electron Energy =                 191.5685586246895866
    Total Energy =                       -313.8661624989425718
 Dipole X            :          0.0000000            0.0000000            0.0000000
 Dipole Y            :         -0.0000000            0.0000000           -0.0000000
 Dipole Z            :          0.0000000            0.0000000            0.0000000
 Magnitude           :                                                    0.0000000
  Basis Set: (AUG-CC-PVTZ AUX)
    Blend: AUG-CC-PVTZ-RI + DEF2-QZVPP-RI
	 Reference Energy          =    -313.8661624989426286 [Eh]
	 Singles Energy            =      -0.0000000000000000 [Eh]
	 Same-Spin Energy          =      -0.1397415808237449 [Eh]
	 Opposite-Spin Energy      =      -0.4409019720483049 [Eh]
	 Correlation Energy        =      -0.5806435528720498 [Eh]
	 Total Energy              =    -314.4468060518146899 [Eh]

	 ================> DF-SCS-MP2 Energies <==================
	-----------------------------------------------------------
	 SCS Same-Spin Scale       =       0.3333333333333333 [-]
	 SCS Opposite-Spin Scale   =       1.2000000000000000 [-]
	 SCS Same-Spin Energy      =      -0.0465805269412483 [Eh]
	 SCS Opposite-Spin Energy  =      -0.5290823664579659 [Eh]
	 SCS Correlation Energy    =      -0.5756628933992142 [Eh]
	 SCS Total Energy          =    -314.4418253923418547 [Eh]
	-----------------------------------------------------------

*** Psi4 exiting successfully. Buy a developer a beer!
