                               Psi4 1.8.2 release

  ==> Input File <==

--------------------------------------------------------------------------
MEMORY 60 GB

molecule dimer {
0 1
Gh(Na)     0.000000     0.000000     0.000000
Gh(O)      3.129053     0.000000     0.000000
Gh(H)      3.718011     0.759416     0.000000
Gh(H)      3.718011    -0.759416     0.000000
O         -3.129053     0.000000     0.000000
H         -3.718011    -0.759416     0.000000
H         -3.718011     0.759416     0.000000

units ang
no_reorient
no_com
symmetry c1
}

set {
basis        aug-cc-pVTZ
scf_type     df
}

energy("mp2")
--------------------------------------------------------------------------

    Molecular point group: c1

    Geometry (in Angstrom), charge = 0, multiplicity = 1:

       Center              X                  Y                   Z               Mass
    ------------   -----------------  -----------------  -----------------  -----------------
      Gh(NA)          0.000000000000     0.000000000000     0.000000000000    22.989769282000
      Gh(O)           3.129053000000     0.000000000000     0.000000000000    15.994914619570
      Gh(H)           3.718011000000     0.759416000000     0.000000000000     1.007825032230
      Gh(H)           3.718011000000    -0.759416000000     0.000000000000     1.007825032230
         O           -3.129053000000     0.000000000000     0.000000000000    15.994914619570
         H           -3.718011000000    -0.759416000000     0.000000000000     1.007825032230
         H           -3.718011000000     0.759416000000     0.000000000000     1.007825032230

  Charge       = 0
  Multiplicity = 1
  Basis Set: AUG-CC-PVTZ
    Blend: AUG-CC-PVTZ
  Basis Set: (AUG-CC-PVTZ AUX)
    Blend: AUG-CC-PVTZ-JKFIT + DEF2-UNIVERSAL-JKFIT

    Orbital Energies [Eh]
    ---------------------

    Doubly Occupied:

       1A    -20.567916     2A     -1.351724     3A     -0.715569
       4A     -0.584425     5A     -0.510071

  @DF-RHF Final Energy:   -76.06033951620104

   => Energetics <=

    Nuclear Repulsion Energy =              9.1585518737866174
    One-Electron Energy =                -122.9783682023241909
    Two-Electron Energy =                  37.7594768123365370
    Total Energy =                        -76.0603395162010258
 Dipole X            :         60.5742293          -61.3564707           -0.7822414
 Dipole Y            :         -0.0000000            0.0000000           -0.0000000
 Dipole Z            :          0.0000000            0.0000000            0.0000000
 Magnitude           :                                                    0.7822414
  Basis Set: (AUG-CC-PVTZ AUX)
    Blend: AUG-CC-PVTZ-RI + DEF2-QZVPP-RI
	 Reference Energy          =     -76.0603395162010401 [Eh]
	 Singles Energy            =      -0.0000000000000000 [Eh]
	 Same-Spin Energy          =      -0.0684235297875264 [Eh]
	 Opposite-Spin Energy      =      -0.2155023302248517 [Eh]
	 Correlation Energy        =      -0.2839258600123781 [Eh]
	 Total Energy              =     -76.3442653762134142 [Eh]

	 ================> DF-SCS-MP2 Energies <==================
	-----------------------------------------------------------
	 SCS Same-Spin Scale       =       0.3333333333333333 [-]
	 SCS Opposite-Spin Scale   =       1.2000000000000000 [-]
	 SCS Same-Spin Energy      =      -0.0228078432625088 [Eh]
	 SCS Opposite-Spin Energy  =      -0.2586027962698220 [Eh]
	 SCS Correlation Energy    =      -0.2814106395323308 [Eh]
	 SCS Total Energy          =     -76.3417501557333651 [Eh]
	-----------------------------------------------------------

*** Psi4 exiting successfully. Buy a developer a beer!
