                               Psi4 1.8.2 release

  ==> Input File <==

--------------------------------------------------------------------------
MEMORY 60 GB

molecule dimer {
1 1
Na     0.000000     0.000000     0.000000
--
0 1
O      2.011534     0.000000     0.000000
H      2.600492     0.759416     0.000000
H      2.600492    -0.759416     0.000000
--
0 1
O     -2.011534     0.000000     0.000000
H     -2.600492    -0.759416     0.000000
H     -2.600492     0.759416     0.000000

units ang
no_reorient
no_com
symmetry c1
}

set {
basis        aug-cc-pVTZ
scf_type     df
}

energy("mp2", bsse_type="cp")
--------------------------------------------------------------------------

                               Psi4 1.8.2 release
    Molecular point group: c1
  Charge       = 1
  Multiplicity = 1
  Basis Set: AUG-CC-PVTZ
    Blend: AUG-CC-PVTZ
  Basis Set: (AUG-CC-PVTZ AUX)
    Blend: AUG-CC-PVTZ-JKFIT + DEF2-UNIVERSAL-JKFIT
  @DF-RHF Final Energy:  -161.67606758923282
    Total Energy =                       -161.6760675892328152
 Dipole X            :         -0.0000000            0.0000000           -0.0000000
 Dipole Y            :         -0.0000000            0.0000000           -0.0000000
 Dipole Z            :         -0.0000000            0.0000000           -0.0000000
 Magnitude           :                                                    0.0000000
  Basis Set: (AUG-CC-PVTZ AUX)
    Blend: AUG-CC-PVTZ-RI + DEF2-QZVPP-RI
	 Reference Energy          =    -161.6760675892328152 [Eh]
	 Singles Energy            =      -0.0000000000000000 [Eh]
	 Same-Spin Energy          =      -0.0048689549480340 [Eh]
	 Opposite-Spin Energy      =      -0.0163576519960913 [Eh]
	 Correlation Energy        =      -0.0212266069441253 [Eh]
	 Total Energy              =    -161.6972941961769266 [Eh]
	 SCS Total Energy          =    -161.6973197566107956 [Eh]
                               Psi4 1.8.2 release
    Molecular point group: c1
  Basis Set: AUG-CC-PVTZ
    Blend: AUG-CC-PVTZ
  Basis Set: (AUG-CC-PVTZ AUX)
    Blend: AUG-CC-PVTZ-JKFIT + DEF2-UNIVERSAL-JKFIT
  @DF-RHF Final Energy:   -76.06042913868112
    Total Energy =                        -76.0604291386811155
  Basis Set: (AUG-CC-PVTZ AUX)
                               Psi4 1.8.2 release
  @DF-RHF Final Energy:  -152.11849247034235
    Total Energy =                       -152.1184924703423462
                               Psi4 1.8.2 release
  @DF-RHF Final Energy:  -237.77034066367150
    Total Energy =                       -237.7703406636715044
                               Psi4 1.8.2 release
  @DF-RHF Final Energy:  -237.77034066367369
    Total Energy =                       -237.7703406636737213
                               Psi4 1.8.2 release
  Multiplicity = 1
  @DF-RHF Final Energy:   -76.06042913868237
    Total Energy =                        -76.0604291386823661
	 Singles Energy            =      -0.0000000000000000 [Eh]
	 Same-Spin Energy          =      -0.0684599566073494 [Eh]
	 Opposite-Spin Energy      =      -0.2159166101380318 [Eh]
	 Correlation Energy        =      -0.2843765667453811 [Eh]
	 Total Energy              =     -76.3448057054277456 [Eh]
	 SCS Total Energy          =     -76.3423490563837817 [Eh]
                               Psi4 1.8.2 release
    Molecular point group: c1

    Geometry (in Bohr), charge = 1, multiplicity = 1:

       Center              X                  Y                   Z               Mass
    ------------   -----------------  -----------------  -----------------  -----------------
         NA           0.000000000000     0.000000000000     0.000000000000    22.989769282000
         O            3.801248352047     0.000000000000     0.000000000000    15.994914619570
         H            4.914217671444     1.435088255291     0.000000000000     1.007825032230
         H            4.914217671444    -1.435088255291     0.000000000000     1.007825032230
         O           -3.801248352047     0.000000000000     0.000000000000    15.994914619570
         H           -4.914217671444    -1.435088255291     0.000000000000     1.007825032230
         H           -4.914217671444     1.435088255291     0.000000000000     1.007825032230

  Charge       = 1
  Multiplicity = 1
  Basis Set: AUG-CC-PVTZ
    Blend: AUG-CC-PVTZ
  Basis Set: (AUG-CC-PVTZ AUX)
    Blend: AUG-CC-PVTZ-JKFIT + DEF2-UNIVERSAL-JKFIT

    Orbital Energies [Eh]
    ---------------------

    Doubly Occupied:

       1A    -40.610974     2A    -20.768384     3A    -20.768384
       4A     -2.941101     5A     -1.674367     6A     -1.664879
       7A     -1.664038     8A     -1.562245     9A     -1.554082
      10A     -0.922951    11A     -0.922771    12A     -0.822400
      13A     -0.810445    14A     -0.722715    15A     -0.722628

  @DF-RHF Final Energy:  -313.85888188078258

   => Energetics <=

    Nuclear Repulsion Energy =             85.6522760713749136
    One-Electron Energy =                -602.7575817734983730
    Two-Electron Energy =                 203.2464238213408976
    Total Energy =                       -313.8588818807825760
 Dipole X            :         -0.0000000           -0.0000000           -0.0000000
 Dipole Y            :         -0.0000000            0.0000000           -0.0000000
 Dipole Z            :         -0.0000000            0.0000000           -0.0000000
 Magnitude           :                                                    0.0000000
  Basis Set: (AUG-CC-PVTZ AUX)
    Blend: AUG-CC-PVTZ-RI + DEF2-QZVPP-RI
	 Reference Energy          =    -313.8588818807825760 [Eh]
	 Singles Energy            =      -0.0000000000000000 [Eh]
	 Same-Spin Energy          =      -0.1408951198853883 [Eh]
	 Opposite-Spin Energy      =      -0.4434083369977518 [Eh]
	 Correlation Energy        =      -0.5843034568831401 [Eh]
	 Total Energy              =    -314.4431853376657386 [Eh]

	 ================> DF-SCS-MP2 Energies <==================
	-----------------------------------------------------------
	 SCS Same-Spin Scale       =       0.3333333333333333 [-]
	 SCS Opposite-Spin Scale   =       1.2000000000000000 [-]
	 SCS Same-Spin Energy      =      -0.0469650399617961 [Eh]
	 SCS Opposite-Spin Energy  =      -0.5320900043973021 [Eh]
	 SCS Correlation Energy    =      -0.5790550443590983 [Eh]
	 SCS Total Energy          =    -314.4379369251416847 [Eh]
	-----------------------------------------------------------

*** Psi4 exiting successfully. Buy a developer a beer!
