                               Psi4 1.8.2 release

  ==> Input File <==

--------------------------------------------------------------------------
MEMORY 60 GB

molecule dimer {
1 1
Na         0.000000     0.000000     0.000000
Gh(O)      2.682046     0.000000     0.000000
Gh(H)      3.271004     0.759416     0.000000
Gh(H)      3.271004    -0.759416     0.000000
Gh(O)     -2.682046     0.000000     0.000000
Gh(H)     -3.271004    -0.759416     0.000000
Gh(H)     -3.271004     0.759416     0.000000

units ang
no_reorient
no_com
symmetry c1
}

set {
basis        aug-cc-pVTZ
scf_type     df
}

energy("mp2")
--------------------------------------------------------------------------

    Molecular point group: c1

    Geometry (in Angstrom), charge = 1, multiplicity = 1:

       Center              X                  Y                   Z               Mass
    ------------   -----------------  -----------------  -----------------  -----------------
         NA           0.000000000000     0.000000000000     0.000000000000    22.989769282000
      Gh(O)           2.682046000000     0.000000000000     0.000000000000    15.994914619570
      Gh(H)           3.271004000000     0.759416000000     0.000000000000     1.007825032230
      Gh(H)           3.271004000000    -0.759416000000     0.000000000000     1.007825032230
      Gh(O)          -2.682046000000     0.000000000000     0.000000000000    15.994914619570
      Gh(H)          -3.271004000000    -0.759416000000     0.000000000000     1.007825032230
      Gh(H)          -3.271004000000     0.759416000000     0.000000000000     1.007825032230

  Charge       = 1
  Multiplicity = 1
  Basis Set: AUG-CC-PVTZ
    Blend: AUG-CC-PVTZ
  Basis Set: (AUG-CC-PVTZ AUX)
    Blend: AUG-CC-PVTZ-JKFIT + DEF2-UNIVERSAL-JKFIT

    Orbital Energies [Eh]
    ---------------------

    Doubly Occupied:

       1A    -40.762344     2A     -3.074689     3A     -1.798064
       4A     -1.797856     5A     -1.797828

  @DF-RHF Final Energy:  -161.67604780307377

   => Energetics <=

    Nuclear Repulsion Energy =              0.0000000000000000
    One-Electron Energy =                -224.8905337885560130
    Two-Electron Energy =                  63.2144859854822130
    Total Energy =                       -161.6760478030738000
 Dipole X            :         -0.0000000            0.0000000           -0.0000000
 Dipole Y            :         -0.0000000            0.0000000           -0.0000000
 Dipole Z            :          0.0000000            0.0000000            0.0000000
 Magnitude           :                                                    0.0000000
  Basis Set: (AUG-CC-PVTZ AUX)
    Blend: AUG-CC-PVTZ-RI + DEF2-QZVPP-RI
	 Reference Energy          =    -161.6760478030737715 [Eh]
	 Singles Energy            =      -0.0000000000000000 [Eh]
	 Same-Spin Energy          =      -0.0032262903558917 [Eh]
	 Opposite-Spin Energy      =      -0.0115088075379197 [Eh]
	 Correlation Energy        =      -0.0147350978938114 [Eh]
	 Total Energy              =    -161.6907829009675766 [Eh]

	 ================> DF-SCS-MP2 Energies <==================
	-----------------------------------------------------------
	 SCS Same-Spin Scale       =       0.3333333333333333 [-]
	 SCS Opposite-Spin Scale   =       1.2000000000000000 [-]
	 SCS Same-Spin Energy      =      -0.0010754301186306 [Eh]
	 SCS Opposite-Spin Energy  =      -0.0138105690455037 [Eh]
	 SCS Correlation Energy    =      -0.0148859991641342 [Eh]
	 SCS Total Energy          =    -161.6909338022379075 [Eh]
	-----------------------------------------------------------

*** Psi4 exiting successfully. Buy a developer a beer!
