                               Psi4 1.8.2 release

  ==> Input File <==

--------------------------------------------------------------------------
MEMORY 60 GB

molecule dimer {
0 1
Gh(Na)     0.000000     0.000000     0.000000
Gh(O)      2.123286     0.000000     0.000000
Gh(H)      2.712244     0.759416     0.000000
Gh(H)      2.712244    -0.759416     0.000000
O         -2.123286     0.000000     0.000000
H         -2.712244    -0.759416     0.000000
H         -2.712244     0.759416     0.000000

units ang
no_reorient
no_com
symmetry c1
}

set {
basis        aug-cc-pVTZ
scf_type     df
}

energy("mp2")
--------------------------------------------------------------------------

    Molecular point group: c1

    Geometry (in Angstrom), charge = 0, multiplicity = 1:

       Center              X                  Y                   Z               Mass
    ------------   -----------------  -----------------  -----------------  -----------------
      Gh(NA)          0.000000000000     0.000000000000     0.000000000000    22.989769282000
      Gh(O)           2.123286000000     0.000000000000     0.000000000000    15.994914619570
      Gh(H)           2.712244000000     0.759416000000     0.000000000000     1.007825032230
      Gh(H)           2.712244000000    -0.759416000000     0.000000000000     1.007825032230
         O           -2.123286000000     0.000000000000     0.000000000000    15.994914619570
         H           -2.712244000000    -0.759416000000     0.000000000000     1.007825032230
         H           -2.712244000000     0.759416000000     0.000000000000     1.007825032230

  Charge       = 0
  Multiplicity = 1
  Basis Set: AUG-CC-PVTZ
    Blend: AUG-CC-PVTZ
  Basis Set: (AUG-CC-PVTZ AUX)
    Blend: AUG-CC-PVTZ-JKFIT + DEF2-UNIVERSAL-JKFIT

    Orbital Energies [Eh]
    ---------------------

    Doubly Occupied:

       1A    -20.567747     2A     -1.351620     3A     -0.715476
       4A     -0.584349     5A     -0.510020

  @DF-RHF Final Energy:   -76.06041972992472

   => Energetics <=

    Nuclear Repulsion Energy =              9.1585518737866138
    One-Electron Energy =                -122.9795174007472838
    Two-Electron Energy =                  37.7605457970359524
    Total Energy =                        -76.0604197299247176
 Dipole X            :         41.5688799          -42.3502289           -0.7813490
 Dipole Y            :         -0.0000000            0.0000000           -0.0000000
 Dipole Z            :         -0.0000000            0.0000000           -0.0000000
 Magnitude           :                                                    0.7813490
  Basis Set: (AUG-CC-PVTZ AUX)
    Blend: AUG-CC-PVTZ-RI + DEF2-QZVPP-RI
	 Reference Energy          =     -76.0604197299247176 [Eh]
	 Singles Energy            =      -0.0000000000000000 [Eh]
	 Same-Spin Energy          =      -0.0684548549879367 [Eh]
	 Opposite-Spin Energy      =      -0.2158705387490801 [Eh]
	 Correlation Energy        =      -0.2843253937370168 [Eh]
	 Total Energy              =     -76.3447451236617383 [Eh]

	 ================> DF-SCS-MP2 Energies <==================
	-----------------------------------------------------------
	 SCS Same-Spin Scale       =       0.3333333333333333 [-]
	 SCS Opposite-Spin Scale   =       1.2000000000000000 [-]
	 SCS Same-Spin Energy      =      -0.0228182849959789 [Eh]
	 SCS Opposite-Spin Energy  =      -0.2590446464988961 [Eh]
	 SCS Correlation Energy    =      -0.2818629314948750 [Eh]
	 SCS Total Energy          =     -76.3422826614195884 [Eh]
	-----------------------------------------------------------

*** Psi4 exiting successfully. Buy a developer a beer!
