                               Psi4 1.9 release

  ==> Input File <==

--------------------------------------------------------------------------
MEMORY 60 GB

molecule dimer {
1 1
Na     0.000000     0.000000     0.000000
--
0 1
O      2.346790     0.000000     0.000000
H      2.935748     0.759416     0.000000
H      2.935748    -0.759416     0.000000
O     -2.346790     0.000000     0.000000
H     -2.935748    -0.759416     0.000000
H     -2.935748     0.759416     0.000000

units ang
no_reorient
no_com
symmetry c1
}

set {
basis        aug-cc-pVTZ
scf_type     df
}

energy("mp2", bsse_type="cp")
--------------------------------------------------------------------------

                               Psi4 1.9 release
    Molecular point group: c1
  Charge       = 0
  Multiplicity = 1
  Basis Set: AUG-CC-PVTZ
    Blend: AUG-CC-PVTZ
  Basis Set: (AUG-CC-PVTZ AUX)
    Blend: AUG-CC-PVTZ-JKFIT + DEF2-UNIVERSAL-JKFIT
  @DF-RHF Final Energy:  -152.11926603166944
    Total Energy =                       -152.1192660316694401
 Dipole X            :         -0.0000000            0.0000000           -0.0000000
 Dipole Y            :         -0.0000000            0.0000000           -0.0000000
 Dipole Z            :          0.0000000            0.0000000            0.0000000
 Magnitude           :                                                    0.0000000
  Basis Set: (AUG-CC-PVTZ AUX)
    Blend: AUG-CC-PVTZ-RI + DEF2-QZVPP-RI
	 Reference Energy          =    -152.1192660316694401 [Eh]
	 Singles Energy            =      -0.0000000000000000 [Eh]
	 Same-Spin Energy          =      -0.1369705817119078 [Eh]
	 Opposite-Spin Energy      =      -0.4317063258025570 [Eh]
	 Correlation Energy        =      -0.5686769075144648 [Eh]
	 Total Energy              =    -152.6879429391838983 [Eh]
	 SCS Total Energy          =    -152.6829704832031496 [Eh]
                               Psi4 1.9 release
    Molecular point group: c1
  Multiplicity = 1
  Basis Set: AUG-CC-PVTZ
    Blend: AUG-CC-PVTZ
  Basis Set: (AUG-CC-PVTZ AUX)
    Blend: AUG-CC-PVTZ-JKFIT + DEF2-UNIVERSAL-JKFIT
  @DF-RHF Final Energy:  -161.67605496175199
    Total Energy =                       -161.6760549617519871
  Basis Set: (AUG-CC-PVTZ AUX)
	 Singles Energy            =      -0.0000000000000000 [Eh]
	 Same-Spin Energy          =      -0.0035604020773165 [Eh]
	 Opposite-Spin Energy      =      -0.0124564042292329 [Eh]
	 Correlation Energy        =      -0.0160168063065494 [Eh]
	 Total Energy              =    -161.6920717680585255 [Eh]
	 SCS Total Energy          =    -161.6921894475194961 [Eh]
                               Psi4 1.9 release
    Molecular point group: c1

    Geometry (in Bohr), charge = 1, multiplicity = 1:

       Center              X                  Y                   Z               Mass
    ------------   -----------------  -----------------  -----------------  -----------------
         NA           0.000000000000     0.000000000000     0.000000000000    22.989769282000
         O            4.434790373963     0.000000000000     0.000000000000    15.994914619570
         H            5.547759693361     1.435088255291     0.000000000000     1.007825032230
         H            5.547759693361    -1.435088255291     0.000000000000     1.007825032230
         O           -4.434790373963     0.000000000000     0.000000000000    15.994914619570
         H           -5.547759693361    -1.435088255291     0.000000000000     1.007825032230
         H           -5.547759693361     1.435088255291     0.000000000000     1.007825032230

  Charge       = 1
  Multiplicity = 1
  Basis Set: AUG-CC-PVTZ
    Blend: AUG-CC-PVTZ
  Basis Set: (AUG-CC-PVTZ AUX)
    Blend: AUG-CC-PVTZ-JKFIT + DEF2-UNIVERSAL-JKFIT

    Orbital Energies [Eh]
    ---------------------

    Doubly Occupied:

       1A    -40.654037     2A    -20.755661     3A    -20.755661
       4A     -2.971773     5A     -1.696262     6A     -1.695700
       7A     -1.694632     8A     -1.542475     9A     -1.541483
      10A     -0.904650    11A     -0.904635    12A     -0.794983
      13A     -0.791211    14A     -0.703282    15A     -0.703229

  @DF-RHF Final Energy:  -313.86878081329303

   => Energetics <=

    Nuclear Repulsion Energy =             76.4251080631546955
    One-Electron Energy =                -584.3684252159987409
    Two-Electron Energy =                 194.0745363395510026
    Total Energy =                       -313.8687808132930286
 Dipole X            :         -0.0000000            0.0000000           -0.0000000
 Dipole Y            :         -0.0000000            0.0000000           -0.0000000
 Dipole Z            :          0.0000000            0.0000000            0.0000000
 Magnitude           :                                                    0.0000000
  Basis Set: (AUG-CC-PVTZ AUX)
    Blend: AUG-CC-PVTZ-RI + DEF2-QZVPP-RI
	 Reference Energy          =    -313.8687808132930286 [Eh]
	 Singles Energy            =      -0.0000000000000000 [Eh]
	 Same-Spin Energy          =      -0.1397665666371906 [Eh]
	 Opposite-Spin Energy      =      -0.4409116678772168 [Eh]
	 Correlation Energy        =      -0.5806782345144074 [Eh]
	 Total Energy              =    -314.4494590478074088 [Eh]

	 ================> DF-SCS-MP2 Energies <==================
	-----------------------------------------------------------
	 SCS Same-Spin Scale       =       0.3333333333333333 [-]
	 SCS Opposite-Spin Scale   =       1.2000000000000000 [-]
	 SCS Same-Spin Energy      =      -0.0465888555457302 [Eh]
	 SCS Opposite-Spin Energy  =      -0.5290940014526602 [Eh]
	 SCS Correlation Energy    =      -0.5756828569983904 [Eh]
	 SCS Total Energy          =    -314.4444636702914408 [Eh]
	-----------------------------------------------------------

*** Psi4 exiting successfully. Buy a developer a beer!
