                               Psi4 1.9 release

  ==> Input File <==

--------------------------------------------------------------------------
MEMORY 60 GB

molecule dimer {
1 1
Na     0.000000     0.000000     0.000000
--
0 1
O      2.235038     0.000000     0.000000
H      2.823996     0.759416     0.000000
H      2.823996    -0.759416     0.000000
O     -2.235038     0.000000     0.000000
H     -2.823996    -0.759416     0.000000
H     -2.823996     0.759416     0.000000

units ang
no_reorient
no_com
symmetry c1
}

set {
basis        aug-cc-pVTZ
scf_type     df
}

energy("mp2", bsse_type="cp")
--------------------------------------------------------------------------

                               Psi4 1.9 release
    Molecular point group: c1
  Charge       = 0
  Multiplicity = 1
  Basis Set: AUG-CC-PVTZ
    Blend: AUG-CC-PVTZ
  Basis Set: (AUG-CC-PVTZ AUX)
    Blend: AUG-CC-PVTZ-JKFIT + DEF2-UNIVERSAL-JKFIT
  @DF-RHF Final Energy:  -152.11906168697899
    Total Energy =                       -152.1190616869789949
 Dipole X            :          0.0000000           -0.0000000            0.0000000
 Dipole Y            :          0.0000000            0.0000000            0.0000000
 Dipole Z            :          0.0000000            0.0000000            0.0000000
 Magnitude           :                                                    0.0000000
  Basis Set: (AUG-CC-PVTZ AUX)
    Blend: AUG-CC-PVTZ-RI + DEF2-QZVPP-RI
	 Reference Energy          =    -152.1190616869789949 [Eh]
	 Singles Energy            =      -0.0000000000000000 [Eh]
	 Same-Spin Energy          =      -0.1370015800104431 [Eh]
	 Opposite-Spin Energy      =      -0.4318557108058984 [Eh]
	 Correlation Energy        =      -0.5688572908163415 [Eh]
	 Total Energy              =    -152.6879189777953343 [Eh]
	 SCS Total Energy          =    -152.6829557332828813 [Eh]
                               Psi4 1.9 release
    Molecular point group: c1
  Multiplicity = 1
  Basis Set: AUG-CC-PVTZ
    Blend: AUG-CC-PVTZ
  Basis Set: (AUG-CC-PVTZ AUX)
    Blend: AUG-CC-PVTZ-JKFIT + DEF2-UNIVERSAL-JKFIT
  @DF-RHF Final Energy:  -161.67605806000893
    Total Energy =                       -161.6760580600089270
  Basis Set: (AUG-CC-PVTZ AUX)
	 Singles Energy            =      -0.0000000000000000 [Eh]
	 Same-Spin Energy          =      -0.0037551181722534 [Eh]
	 Opposite-Spin Energy      =      -0.0130349834643322 [Eh]
	 Correlation Energy        =      -0.0167901016365856 [Eh]
	 Total Energy              =    -161.6928481616455144 [Eh]
	 SCS Total Energy          =    -161.6929517462235424 [Eh]
                               Psi4 1.9 release
    Molecular point group: c1

    Geometry (in Bohr), charge = 1, multiplicity = 1:

       Center              X                  Y                   Z               Mass
    ------------   -----------------  -----------------  -----------------  -----------------
         NA           0.000000000000     0.000000000000     0.000000000000    22.989769282000
         O            4.223609699991     0.000000000000     0.000000000000    15.994914619570
         H            5.336579019388     1.435088255291     0.000000000000     1.007825032230
         H            5.336579019388    -1.435088255291     0.000000000000     1.007825032230
         O           -4.223609699991     0.000000000000     0.000000000000    15.994914619570
         H           -5.336579019388    -1.435088255291     0.000000000000     1.007825032230
         H           -5.336579019388     1.435088255291     0.000000000000     1.007825032230

  Charge       = 1
  Multiplicity = 1
  Basis Set: AUG-CC-PVTZ
    Blend: AUG-CC-PVTZ
  Basis Set: (AUG-CC-PVTZ AUX)
    Blend: AUG-CC-PVTZ-JKFIT + DEF2-UNIVERSAL-JKFIT

    Orbital Energies [Eh]
    ---------------------

    Doubly Occupied:

       1A    -40.641589     2A    -20.760489     3A    -20.760489
       4A     -2.962048     5A     -1.686503     6A     -1.686428
       7A     -1.685829     8A     -1.548903     9A     -1.546904
      10A     -0.910674    11A     -0.910636    12A     -0.803831
      13A     -0.798315    14A     -0.709635    15A     -0.709588

  @DF-RHF Final Energy:  -313.86955552085396

   => Energetics <=

    Nuclear Repulsion Energy =             79.2046644956117660
    One-Electron Energy =                -589.9047206079501393
    Two-Electron Energy =                 196.8305005914844230
    Total Energy =                       -313.8695555208539645
 Dipole X            :          0.0000000           -0.0000000            0.0000000
 Dipole Y            :          0.0000000            0.0000000            0.0000000
 Dipole Z            :         -0.0000000            0.0000000           -0.0000000
 Magnitude           :                                                    0.0000000
  Basis Set: (AUG-CC-PVTZ AUX)
    Blend: AUG-CC-PVTZ-RI + DEF2-QZVPP-RI
	 Reference Energy          =    -313.8695555208539645 [Eh]
	 Singles Energy            =      -0.0000000000000000 [Eh]
	 Same-Spin Energy          =      -0.1398730980938408 [Eh]
	 Opposite-Spin Energy      =      -0.4411013844025686 [Eh]
	 Correlation Energy        =      -0.5809744824964094 [Eh]
	 Total Energy              =    -314.4505300033503659 [Eh]

	 ================> DF-SCS-MP2 Energies <==================
	-----------------------------------------------------------
	 SCS Same-Spin Scale       =       0.3333333333333333 [-]
	 SCS Opposite-Spin Scale   =       1.2000000000000000 [-]
	 SCS Same-Spin Energy      =      -0.0466243660312803 [Eh]
	 SCS Opposite-Spin Energy  =      -0.5293216612830822 [Eh]
	 SCS Correlation Energy    =      -0.5759460273143625 [Eh]
	 SCS Total Energy          =    -314.4455015481683517 [Eh]
	-----------------------------------------------------------

*** Psi4 exiting successfully. Buy a developer a beer!
