                               Psi4 1.9 release

  ==> Input File <==

--------------------------------------------------------------------------
MEMORY 60 GB

molecule dimer {
1 1
Na     0.000000     0.000000     0.000000
--
0 1
O      3.129053     0.000000     0.000000
H      3.718011     0.759416     0.000000
H      3.718011    -0.759416     0.000000
O     -3.129053     0.000000     0.000000
H     -3.718011    -0.759416     0.000000
H     -3.718011     0.759416     0.000000

units ang
no_reorient
no_com
symmetry c1
}

set {
basis        aug-cc-pVTZ
scf_type     df
}

energy("mp2", bsse_type="cp")
--------------------------------------------------------------------------

                               Psi4 1.9 release
    Molecular point group: c1
  Charge       = 0
  Multiplicity = 1
  Basis Set: AUG-CC-PVTZ
    Blend: AUG-CC-PVTZ
  Basis Set: (AUG-CC-PVTZ AUX)
    Blend: AUG-CC-PVTZ-JKFIT + DEF2-UNIVERSAL-JKFIT
  @DF-RHF Final Energy:  -152.11999686967258
    Total Energy =                       -152.1199968696726046
 Dipole X            :         -0.0000000            0.0000000           -0.0000000
 Dipole Y            :         -0.0000000            0.0000000           -0.0000000
 Dipole Z            :         -0.0000000            0.0000000           -0.0000000
 Magnitude           :                                                    0.0000000
  Basis Set: (AUG-CC-PVTZ AUX)
    Blend: AUG-CC-PVTZ-RI + DEF2-QZVPP-RI
	 Reference Energy          =    -152.1199968696725762 [Eh]
	 Singles Energy            =      -0.0000000000000000 [Eh]
	 Same-Spin Energy          =      -0.1368729832862828 [Eh]
	 Opposite-Spin Energy      =      -0.4310779150170959 [Eh]
	 Correlation Energy        =      -0.5679508983033786 [Eh]
	 Total Energy              =    -152.6879477679759418 [Eh]
	 SCS Total Energy          =    -152.6829146954551959 [Eh]
                               Psi4 1.9 release
    Molecular point group: c1
  Multiplicity = 1
  Basis Set: AUG-CC-PVTZ
    Blend: AUG-CC-PVTZ
  Basis Set: (AUG-CC-PVTZ AUX)
    Blend: AUG-CC-PVTZ-JKFIT + DEF2-UNIVERSAL-JKFIT
  @DF-RHF Final Energy:  -161.67604303532357
    Total Energy =                       -161.6760430353235733
  Basis Set: (AUG-CC-PVTZ AUX)
	 Singles Energy            =      -0.0000000000000000 [Eh]
	 Same-Spin Energy          =      -0.0025992195186626 [Eh]
	 Opposite-Spin Energy      =      -0.0097122130008326 [Eh]
	 Correlation Energy        =      -0.0123114325194952 [Eh]
	 Total Energy              =    -161.6883544678430553 [Eh]
	 SCS Total Energy          =    -161.6885640974307989 [Eh]
                               Psi4 1.9 release
    Molecular point group: c1

    Geometry (in Bohr), charge = 1, multiplicity = 1:

       Center              X                  Y                   Z               Mass
    ------------   -----------------  -----------------  -----------------  -----------------
         NA           0.000000000000     0.000000000000     0.000000000000    22.989769282000
         O            5.913053202042     0.000000000000     0.000000000000    15.994914619570
         H            7.026022521440     1.435088255291     0.000000000000     1.007825032230
         H            7.026022521440    -1.435088255291     0.000000000000     1.007825032230
         O           -5.913053202042     0.000000000000     0.000000000000    15.994914619570
         H           -7.026022521440    -1.435088255291     0.000000000000     1.007825032230
         H           -7.026022521440     1.435088255291     0.000000000000     1.007825032230

  Charge       = 1
  Multiplicity = 1
  Basis Set: AUG-CC-PVTZ
    Blend: AUG-CC-PVTZ
  Basis Set: (AUG-CC-PVTZ AUX)
    Blend: AUG-CC-PVTZ-JKFIT + DEF2-UNIVERSAL-JKFIT

    Orbital Energies [Eh]
    ---------------------

    Doubly Occupied:

       1A    -40.706709     2A    -20.719655     3A    -20.719655
       4A     -3.019409     5A     -1.743213     6A     -1.743028
       7A     -1.741704     8A     -1.503569     9A     -1.503560
      10A     -0.867001    11A     -0.867000    12A     -0.745842
      13A     -0.745574    14A     -0.663989    15A     -0.663982

  @DF-RHF Final Energy:  -313.84352561070494

   => Energetics <=

    Nuclear Repulsion Energy =             62.3691012219971270
    One-Electron Energy =                -556.5174682360855059
    Two-Electron Energy =                 180.3048414033833637
    Total Energy =                       -313.8435256107050009
 Dipole X            :         -0.0000000            0.0000000           -0.0000000
 Dipole Y            :         -0.0000000            0.0000000           -0.0000000
 Dipole Z            :          0.0000000            0.0000000            0.0000000
 Magnitude           :                                                    0.0000000
  Basis Set: (AUG-CC-PVTZ AUX)
    Blend: AUG-CC-PVTZ-RI + DEF2-QZVPP-RI
	 Reference Energy          =    -313.8435256107049440 [Eh]
	 Singles Energy            =      -0.0000000000000000 [Eh]
	 Same-Spin Energy          =      -0.1391309295427851 [Eh]
	 Opposite-Spin Energy      =      -0.4392534527312392 [Eh]
	 Correlation Energy        =      -0.5783843822740243 [Eh]
	 Total Energy              =    -314.4219099929789536 [Eh]

	 ================> DF-SCS-MP2 Energies <==================
	-----------------------------------------------------------
	 SCS Same-Spin Scale       =       0.3333333333333333 [-]
	 SCS Opposite-Spin Scale   =       1.2000000000000000 [-]
	 SCS Same-Spin Energy      =      -0.0463769765142617 [Eh]
	 SCS Opposite-Spin Energy  =      -0.5271041432774870 [Eh]
	 SCS Correlation Energy    =      -0.5734811197917487 [Eh]
	 SCS Total Energy          =    -314.4170067304966665 [Eh]
	-----------------------------------------------------------

*** Psi4 exiting successfully. Buy a developer a beer!
