                               Psi4 1.8.2 release

  ==> Input File <==

--------------------------------------------------------------------------
MEMORY 60 GB

molecule dimer {
1 1
Na         0.000000     0.000000     0.000000
Gh(O)      2.123286     0.000000     0.000000
Gh(H)      2.712244     0.759416     0.000000
Gh(H)      2.712244    -0.759416     0.000000
Gh(O)     -2.123286     0.000000     0.000000
Gh(H)     -2.712244    -0.759416     0.000000
Gh(H)     -2.712244     0.759416     0.000000

units ang
no_reorient
no_com
symmetry c1
}

set {
basis        aug-cc-pVTZ
scf_type     df
}

energy("mp2")
--------------------------------------------------------------------------

    Molecular point group: c1

    Geometry (in Angstrom), charge = 1, multiplicity = 1:

       Center              X                  Y                   Z               Mass
    ------------   -----------------  -----------------  -----------------  -----------------
         NA           0.000000000000     0.000000000000     0.000000000000    22.989769282000
      Gh(O)           2.123286000000     0.000000000000     0.000000000000    15.994914619570
      Gh(H)           2.712244000000     0.759416000000     0.000000000000     1.007825032230
      Gh(H)           2.712244000000    -0.759416000000     0.000000000000     1.007825032230
      Gh(O)          -2.123286000000     0.000000000000     0.000000000000    15.994914619570
      Gh(H)          -2.712244000000    -0.759416000000     0.000000000000     1.007825032230
      Gh(H)          -2.712244000000     0.759416000000     0.000000000000     1.007825032230

  Charge       = 1
  Multiplicity = 1
  Basis Set: AUG-CC-PVTZ
    Blend: AUG-CC-PVTZ
  Basis Set: (AUG-CC-PVTZ AUX)
    Blend: AUG-CC-PVTZ-JKFIT + DEF2-UNIVERSAL-JKFIT

    Orbital Energies [Eh]
    ---------------------

    Doubly Occupied:

       1A    -40.761548     2A     -3.074349     3A     -1.797790
       4A     -1.797603     5A     -1.797465

  @DF-RHF Final Energy:  -161.67606220414459

   => Energetics <=

    Nuclear Repulsion Energy =              0.0000000000000000
    One-Electron Energy =                -224.8946144044878963
    Two-Electron Energy =                  63.2185522003433107
    Total Energy =                       -161.6760622041445856
 Dipole X            :          0.0000000            0.0000000            0.0000000
 Dipole Y            :          0.0000000            0.0000000            0.0000000
 Dipole Z            :          0.0000000            0.0000000            0.0000000
 Magnitude           :                                                    0.0000000
  Basis Set: (AUG-CC-PVTZ AUX)
    Blend: AUG-CC-PVTZ-RI + DEF2-QZVPP-RI
	 Reference Energy          =    -161.6760622041445856 [Eh]
	 Singles Energy            =      -0.0000000000000000 [Eh]
	 Same-Spin Energy          =      -0.0041456700504820 [Eh]
	 Opposite-Spin Energy      =      -0.0142145994200938 [Eh]
	 Correlation Energy        =      -0.0183602694705758 [Eh]
	 Total Energy              =    -161.6944224736151625 [Eh]

	 ================> DF-SCS-MP2 Energies <==================
	-----------------------------------------------------------
	 SCS Same-Spin Scale       =       0.3333333333333333 [-]
	 SCS Opposite-Spin Scale   =       1.2000000000000000 [-]
	 SCS Same-Spin Energy      =      -0.0013818900168273 [Eh]
	 SCS Opposite-Spin Energy  =      -0.0170575193041125 [Eh]
	 SCS Correlation Energy    =      -0.0184394093209399 [Eh]
	 SCS Total Energy          =    -161.6945016134655191 [Eh]
	-----------------------------------------------------------

*** Psi4 exiting successfully. Buy a developer a beer!
