                               Psi4 1.8.2 release

  ==> Input File <==

--------------------------------------------------------------------------
MEMORY 60 GB

molecule dimer {
0 1
Gh(Na)     0.000000     0.000000     0.000000
Gh(O)      3.352557     0.000000     0.000000
Gh(H)      3.941515     0.759416     0.000000
Gh(H)      3.941515    -0.759416     0.000000
O         -3.352557     0.000000     0.000000
H         -3.941515    -0.759416     0.000000
H         -3.941515     0.759416     0.000000

units ang
no_reorient
no_com
symmetry c1
}

set {
basis        aug-cc-pVTZ
scf_type     df
}

energy("mp2")
--------------------------------------------------------------------------

    Molecular point group: c1

    Geometry (in Angstrom), charge = 0, multiplicity = 1:

       Center              X                  Y                   Z               Mass
    ------------   -----------------  -----------------  -----------------  -----------------
      Gh(NA)          0.000000000000     0.000000000000     0.000000000000    22.989769282000
      Gh(O)           3.352557000000     0.000000000000     0.000000000000    15.994914619570
      Gh(H)           3.941515000000     0.759416000000     0.000000000000     1.007825032230
      Gh(H)           3.941515000000    -0.759416000000     0.000000000000     1.007825032230
         O           -3.352557000000     0.000000000000     0.000000000000    15.994914619570
         H           -3.941515000000    -0.759416000000     0.000000000000     1.007825032230
         H           -3.941515000000     0.759416000000     0.000000000000     1.007825032230

  Charge       = 0
  Multiplicity = 1
  Basis Set: AUG-CC-PVTZ
    Blend: AUG-CC-PVTZ
  Basis Set: (AUG-CC-PVTZ AUX)
    Blend: AUG-CC-PVTZ-JKFIT + DEF2-UNIVERSAL-JKFIT

    Orbital Energies [Eh]
    ---------------------

    Doubly Occupied:

       1A    -20.567927     2A     -1.351732     3A     -0.715577
       4A     -0.584427     5A     -0.510080

  @DF-RHF Final Energy:   -76.06033478942722

   => Energetics <=

    Nuclear Repulsion Energy =              9.1585518737866174
    One-Electron Energy =                -122.9782841088157994
    Two-Electron Energy =                  37.7593974456019552
    Total Energy =                        -76.0603347894272304
 Dipole X            :         64.7977496          -65.5800841           -0.7823345
 Dipole Y            :          0.0000000            0.0000000            0.0000000
 Dipole Z            :         -0.0000000            0.0000000           -0.0000000
 Magnitude           :                                                    0.7823345
  Basis Set: (AUG-CC-PVTZ AUX)
    Blend: AUG-CC-PVTZ-RI + DEF2-QZVPP-RI
	 Reference Energy          =     -76.0603347894272162 [Eh]
	 Singles Energy            =      -0.0000000000000000 [Eh]
	 Same-Spin Energy          =      -0.0684201162804461 [Eh]
	 Opposite-Spin Energy      =      -0.2154702299770191 [Eh]
	 Correlation Energy        =      -0.2838903462574651 [Eh]
	 Total Energy              =     -76.3442251356846810 [Eh]

	 ================> DF-SCS-MP2 Energies <==================
	-----------------------------------------------------------
	 SCS Same-Spin Scale       =       0.3333333333333333 [-]
	 SCS Opposite-Spin Scale   =       1.2000000000000000 [-]
	 SCS Same-Spin Energy      =      -0.0228067054268154 [Eh]
	 SCS Opposite-Spin Energy  =      -0.2585642759724229 [Eh]
	 SCS Correlation Energy    =      -0.2813709813992382 [Eh]
	 SCS Total Energy          =     -76.3417057708264508 [Eh]
	-----------------------------------------------------------

*** Psi4 exiting successfully. Buy a developer a beer!
