                               Psi4 1.8.2 release

  ==> Input File <==

--------------------------------------------------------------------------
MEMORY 60 GB

molecule dimer {
1 1
Na         0.000000     0.000000     0.000000
O          2.235038     0.000000     0.000000
H          2.823996     0.759416     0.000000
H          2.823996    -0.759416     0.000000
O         -2.235038     0.000000     0.000000
H         -2.823996    -0.759416     0.000000
H         -2.823996     0.759416     0.000000

units ang
no_reorient
no_com
symmetry c1
}

set {
basis        aug-cc-pVTZ
scf_type     df
}

energy("mp2")
--------------------------------------------------------------------------

    Molecular point group: c1

    Geometry (in Angstrom), charge = 1, multiplicity = 1:

       Center              X                  Y                   Z               Mass
    ------------   -----------------  -----------------  -----------------  -----------------
         NA           0.000000000000     0.000000000000     0.000000000000    22.989769282000
         O            2.235038000000     0.000000000000     0.000000000000    15.994914619570
         H            2.823996000000     0.759416000000     0.000000000000     1.007825032230
         H            2.823996000000    -0.759416000000     0.000000000000     1.007825032230
         O           -2.235038000000     0.000000000000     0.000000000000    15.994914619570
         H           -2.823996000000    -0.759416000000     0.000000000000     1.007825032230
         H           -2.823996000000     0.759416000000     0.000000000000     1.007825032230

  Charge       = 1
  Multiplicity = 1
  Basis Set: AUG-CC-PVTZ
    Blend: AUG-CC-PVTZ
  Basis Set: (AUG-CC-PVTZ AUX)
    Blend: AUG-CC-PVTZ-JKFIT + DEF2-UNIVERSAL-JKFIT

    Orbital Energies [Eh]
    ---------------------

    Doubly Occupied:

       1A    -40.641589     2A    -20.760489     3A    -20.760489
       4A     -2.962048     5A     -1.686503     6A     -1.686428
       7A     -1.685829     8A     -1.548903     9A     -1.546904
      10A     -0.910674    11A     -0.910636    12A     -0.803831
      13A     -0.798315    14A     -0.709635    15A     -0.709588

  @DF-RHF Final Energy:  -313.86955552082048

   => Energetics <=

    Nuclear Repulsion Energy =             79.2046644956117660
    One-Electron Energy =                -589.9047206079110310
    Two-Electron Energy =                 196.8305005914787387
    Total Energy =                       -313.8695555208205406
 Dipole X            :          0.0000000           -0.0000000            0.0000000
 Dipole Y            :          0.0000000            0.0000000            0.0000000
 Dipole Z            :          0.0000000            0.0000000            0.0000000
 Magnitude           :                                                    0.0000000
  Basis Set: (AUG-CC-PVTZ AUX)
    Blend: AUG-CC-PVTZ-RI + DEF2-QZVPP-RI
	 Reference Energy          =    -313.8695555208204837 [Eh]
	 Singles Energy            =      -0.0000000000000000 [Eh]
	 Same-Spin Energy          =      -0.1398730980937534 [Eh]
	 Opposite-Spin Energy      =      -0.4411013844021360 [Eh]
	 Correlation Energy        =      -0.5809744824958893 [Eh]
	 Total Energy              =    -314.4505300033163735 [Eh]

	 ================> DF-SCS-MP2 Energies <==================
	-----------------------------------------------------------
	 SCS Same-Spin Scale       =       0.3333333333333333 [-]
	 SCS Opposite-Spin Scale   =       1.2000000000000000 [-]
	 SCS Same-Spin Energy      =      -0.0466243660312511 [Eh]
	 SCS Opposite-Spin Energy  =      -0.5293216612825632 [Eh]
	 SCS Correlation Energy    =      -0.5759460273138144 [Eh]
	 SCS Total Energy          =    -314.4455015481343025 [Eh]
	-----------------------------------------------------------

*** Psi4 exiting successfully. Buy a developer a beer!
