                               Psi4 1.8.2 release

  ==> Input File <==

--------------------------------------------------------------------------
MEMORY 60 GB

molecule dimer {
1 1
Na     0.000000     0.000000     0.000000
--
0 1
O      2.905549     0.000000     0.000000
H      3.494507     0.759416     0.000000
H      3.494507    -0.759416     0.000000
--
0 1
O     -2.905549     0.000000     0.000000
H     -3.494507    -0.759416     0.000000
H     -3.494507     0.759416     0.000000

units ang
no_reorient
no_com
symmetry c1
}

set {
basis        aug-cc-pVTZ
scf_type     df
}

energy("mp2", bsse_type="cp")
--------------------------------------------------------------------------

                               Psi4 1.8.2 release
    Molecular point group: c1
  Charge       = 1
  Multiplicity = 1
  Basis Set: AUG-CC-PVTZ
    Blend: AUG-CC-PVTZ
  Basis Set: (AUG-CC-PVTZ AUX)
    Blend: AUG-CC-PVTZ-JKFIT + DEF2-UNIVERSAL-JKFIT
  @DF-RHF Final Energy:  -161.67604465257577
    Total Energy =                       -161.6760446525757970
 Dipole X            :          0.0000000            0.0000000            0.0000000
 Dipole Y            :          0.0000000            0.0000000            0.0000000
 Dipole Z            :         -0.0000000            0.0000000           -0.0000000
 Magnitude           :                                                    0.0000000
  Basis Set: (AUG-CC-PVTZ AUX)
    Blend: AUG-CC-PVTZ-RI + DEF2-QZVPP-RI
	 Reference Energy          =    -161.6760446525757686 [Eh]
	 Singles Energy            =      -0.0000000000000000 [Eh]
	 Same-Spin Energy          =      -0.0029149063103806 [Eh]
	 Opposite-Spin Energy      =      -0.0106173149253173 [Eh]
	 Correlation Energy        =      -0.0135322212356979 [Eh]
	 Total Energy              =    -161.6895768738114612 [Eh]
	 SCS Total Energy          =    -161.6897570659229473 [Eh]
                               Psi4 1.8.2 release
    Molecular point group: c1
  Basis Set: AUG-CC-PVTZ
    Blend: AUG-CC-PVTZ
  Basis Set: (AUG-CC-PVTZ AUX)
    Blend: AUG-CC-PVTZ-JKFIT + DEF2-UNIVERSAL-JKFIT
  @DF-RHF Final Energy:   -76.06034961994118
    Total Energy =                        -76.0603496199411637
  Basis Set: (AUG-CC-PVTZ AUX)
                               Psi4 1.8.2 release
  @DF-RHF Final Energy:  -152.11985706300780
    Total Energy =                       -152.1198570630077711
                               Psi4 1.8.2 release
  @DF-RHF Final Energy:  -237.76417864941035
    Total Energy =                       -237.7641786494103542
                               Psi4 1.8.2 release
  @DF-RHF Final Energy:  -237.76417864942209
    Total Energy =                       -237.7641786494220923
                               Psi4 1.8.2 release
  Multiplicity = 1
  @DF-RHF Final Energy:   -76.06034961993075
    Total Energy =                        -76.0603496199307614
	 Singles Energy            =      -0.0000000000000000 [Eh]
	 Same-Spin Energy          =      -0.0684274962415898 [Eh]
	 Opposite-Spin Energy      =      -0.2155483482993152 [Eh]
	 Correlation Energy        =      -0.2839758445409050 [Eh]
	 Total Energy              =     -76.3443254644716518 [Eh]
	 SCS Total Energy          =     -76.3418168033037858 [Eh]
                               Psi4 1.8.2 release
    Molecular point group: c1

    Geometry (in Bohr), charge = 1, multiplicity = 1:

       Center              X                  Y                   Z               Mass
    ------------   -----------------  -----------------  -----------------  -----------------
         NA           0.000000000000     0.000000000000     0.000000000000    22.989769282000
         O            5.490691854098     0.000000000000     0.000000000000    15.994914619570
         H            6.603661173495     1.435088255291     0.000000000000     1.007825032230
         H            6.603661173495    -1.435088255291     0.000000000000     1.007825032230
         O           -5.490691854098     0.000000000000     0.000000000000    15.994914619570
         H           -6.603661173495    -1.435088255291     0.000000000000     1.007825032230
         H           -6.603661173495     1.435088255291     0.000000000000     1.007825032230

  Charge       = 1
  Multiplicity = 1
  Basis Set: AUG-CC-PVTZ
    Blend: AUG-CC-PVTZ
  Basis Set: (AUG-CC-PVTZ AUX)
    Blend: AUG-CC-PVTZ-JKFIT + DEF2-UNIVERSAL-JKFIT

    Orbital Energies [Eh]
    ---------------------

    Doubly Occupied:

       1A    -40.695895     2A    -20.729456     3A    -20.729456
       4A     -3.009060     5A     -1.733069     6A     -1.732821
       7A     -1.731101     8A     -1.513499     9A     -1.513465
      10A     -0.876747    11A     -0.876745    12A     -0.757681
      13A     -0.757108    14A     -0.674105    15A     -0.674090

  @DF-RHF Final Energy:  -313.85069303957368

   => Energetics <=

    Nuclear Repulsion Energy =             65.6372341239075752
    One-Electron Energy =                -562.9672501867773917
    Two-Electron Energy =                 183.4793230232961037
    Total Energy =                       -313.8506930395737413
 Dipole X            :         -0.0000000            0.0000000           -0.0000000
 Dipole Y            :          0.0000000            0.0000000            0.0000000
 Dipole Z            :         -0.0000000            0.0000000           -0.0000000
 Magnitude           :                                                    0.0000000
  Basis Set: (AUG-CC-PVTZ AUX)
    Blend: AUG-CC-PVTZ-RI + DEF2-QZVPP-RI
	 Reference Energy          =    -313.8506930395736845 [Eh]
	 Singles Energy            =      -0.0000000000000000 [Eh]
	 Same-Spin Energy          =      -0.1394101887688999 [Eh]
	 Opposite-Spin Energy      =      -0.4400248789932056 [Eh]
	 Correlation Energy        =      -0.5794350677621055 [Eh]
	 Total Energy              =    -314.4301281073358041 [Eh]

	 ================> DF-SCS-MP2 Energies <==================
	-----------------------------------------------------------
	 SCS Same-Spin Scale       =       0.3333333333333333 [-]
	 SCS Opposite-Spin Scale   =       1.2000000000000000 [-]
	 SCS Same-Spin Energy      =      -0.0464700629229666 [Eh]
	 SCS Opposite-Spin Energy  =      -0.5280298547918467 [Eh]
	 SCS Correlation Energy    =      -0.5744999177148133 [Eh]
	 SCS Total Energy          =    -314.4251929572885160 [Eh]
	-----------------------------------------------------------

*** Psi4 exiting successfully. Buy a developer a beer!
