                               Psi4 1.9 release

  ==> Input File <==

--------------------------------------------------------------------------
MEMORY 60 GB

molecule dimer {
1 1
Na     0.000000     0.000000     0.000000
--
0 1
O      4.470076     0.000000     0.000000
H      5.059034     0.759416     0.000000
H      5.059034    -0.759416     0.000000
O     -4.470076     0.000000     0.000000
H     -5.059034    -0.759416     0.000000
H     -5.059034     0.759416     0.000000

units ang
no_reorient
no_com
symmetry c1
}

set {
basis        aug-cc-pVTZ
scf_type     df
}

energy("mp2", bsse_type="cp")
--------------------------------------------------------------------------

                               Psi4 1.9 release
    Molecular point group: c1
  Charge       = 0
  Multiplicity = 1
  Basis Set: AUG-CC-PVTZ
    Blend: AUG-CC-PVTZ
  Basis Set: (AUG-CC-PVTZ AUX)
    Blend: AUG-CC-PVTZ-JKFIT + DEF2-UNIVERSAL-JKFIT
  @DF-RHF Final Energy:  -152.12041478863074
    Total Energy =                       -152.1204147886307396
 Dipole X            :         -0.0000000           -0.0000000           -0.0000000
 Dipole Y            :         -0.0000000            0.0000000           -0.0000000
 Dipole Z            :          0.0000000            0.0000000            0.0000000
 Magnitude           :                                                    0.0000000
  Basis Set: (AUG-CC-PVTZ AUX)
    Blend: AUG-CC-PVTZ-RI + DEF2-QZVPP-RI
	 Reference Energy          =    -152.1204147886307396 [Eh]
	 Singles Energy            =      -0.0000000000000000 [Eh]
	 Same-Spin Energy          =      -0.1368269307295252 [Eh]
	 Opposite-Spin Energy      =      -0.4308299671908472 [Eh]
	 Correlation Energy        =      -0.5676568979203724 [Eh]
	 Total Energy              =    -152.6880716865511260 [Eh]
	 SCS Total Energy          =    -152.6830197261695901 [Eh]
                               Psi4 1.9 release
    Molecular point group: c1
  Multiplicity = 1
  Basis Set: AUG-CC-PVTZ
    Blend: AUG-CC-PVTZ
  Basis Set: (AUG-CC-PVTZ AUX)
    Blend: AUG-CC-PVTZ-JKFIT + DEF2-UNIVERSAL-JKFIT
  @DF-RHF Final Energy:  -161.67602826263072
    Total Energy =                       -161.6760282626307230
  Basis Set: (AUG-CC-PVTZ AUX)
	 Singles Energy            =      -0.0000000000000000 [Eh]
	 Same-Spin Energy          =      -0.0019975439182070 [Eh]
	 Opposite-Spin Energy      =      -0.0080163268943355 [Eh]
	 Correlation Energy        =      -0.0100138708125424 [Eh]
	 Total Energy              =    -161.6860421334432658 [Eh]
	 SCS Total Energy          =    -161.6863137028766744 [Eh]
                               Psi4 1.9 release
    Molecular point group: c1

    Geometry (in Bohr), charge = 1, multiplicity = 1:

       Center              X                  Y                   Z               Mass
    ------------   -----------------  -----------------  -----------------  -----------------
         NA           0.000000000000     0.000000000000     0.000000000000    22.989769282000
         O            8.447219399982     0.000000000000     0.000000000000    15.994914619570
         H            9.560188719379     1.435088255291     0.000000000000     1.007825032230
         H            9.560188719379    -1.435088255291     0.000000000000     1.007825032230
         O           -8.447219399982     0.000000000000     0.000000000000    15.994914619570
         H           -9.560188719379    -1.435088255291     0.000000000000     1.007825032230
         H           -9.560188719379     1.435088255291     0.000000000000     1.007825032230

  Charge       = 1
  Multiplicity = 1
  Basis Set: AUG-CC-PVTZ
    Blend: AUG-CC-PVTZ
  Basis Set: (AUG-CC-PVTZ AUX)
    Blend: AUG-CC-PVTZ-JKFIT + DEF2-UNIVERSAL-JKFIT

    Orbital Energies [Eh]
    ---------------------

    Doubly Occupied:

       1A    -40.739326     2A    -20.677349     3A    -20.677348
       4A     -3.051017     5A     -1.774310     6A     -1.774276
       7A     -1.773945     8A     -1.461465     9A     -1.461464
      10A     -0.825266    11A     -0.825266    12A     -0.698571
      13A     -0.698570    14A     -0.620993    15A     -0.620990

  @DF-RHF Final Energy:  -313.81901589019481

   => Energetics <=

    Nuclear Repulsion Energy =             49.4714890201237267
    One-Electron Energy =                -531.2206929873726722
    Two-Electron Energy =                 167.9301880770541402
    Total Energy =                       -313.8190158901948053
 Dipole X            :         -0.0000000           -0.0000000           -0.0000000
 Dipole Y            :         -0.0000000            0.0000000           -0.0000000
 Dipole Z            :          0.0000000            0.0000000            0.0000000
 Magnitude           :                                                    0.0000000
  Basis Set: (AUG-CC-PVTZ AUX)
    Blend: AUG-CC-PVTZ-RI + DEF2-QZVPP-RI
	 Reference Energy          =    -313.8190158901948053 [Eh]
	 Singles Energy            =      -0.0000000000000000 [Eh]
	 Same-Spin Energy          =      -0.1385903257817171 [Eh]
	 Opposite-Spin Energy      =      -0.4379414070816752 [Eh]
	 Correlation Energy        =      -0.5765317328633923 [Eh]
	 Total Energy              =    -314.3955476230581780 [Eh]

	 ================> DF-SCS-MP2 Energies <==================
	-----------------------------------------------------------
	 SCS Same-Spin Scale       =       0.3333333333333333 [-]
	 SCS Opposite-Spin Scale   =       1.2000000000000000 [-]
	 SCS Same-Spin Energy      =      -0.0461967752605724 [Eh]
	 SCS Opposite-Spin Energy  =      -0.5255296884980103 [Eh]
	 SCS Correlation Energy    =      -0.5717264637585827 [Eh]
	 SCS Total Energy          =    -314.3907423539533852 [Eh]
	-----------------------------------------------------------

*** Psi4 exiting successfully. Buy a developer a beer!
