                               Psi4 1.8.2 release

  ==> Input File <==

--------------------------------------------------------------------------
MEMORY 60 GB

molecule dimer {
0 1
Gh(Na)     0.000000     0.000000     0.000000
Gh(O)      2.346790     0.000000     0.000000
Gh(H)      2.935748     0.759416     0.000000
Gh(H)      2.935748    -0.759416     0.000000
O         -2.346790     0.000000     0.000000
H         -2.935748    -0.759416     0.000000
H         -2.935748     0.759416     0.000000

units ang
no_reorient
no_com
symmetry c1
}

set {
basis        aug-cc-pVTZ
scf_type     df
}

energy("mp2")
--------------------------------------------------------------------------

    Molecular point group: c1

    Geometry (in Angstrom), charge = 0, multiplicity = 1:

       Center              X                  Y                   Z               Mass
    ------------   -----------------  -----------------  -----------------  -----------------
      Gh(NA)          0.000000000000     0.000000000000     0.000000000000    22.989769282000
      Gh(O)           2.346790000000     0.000000000000     0.000000000000    15.994914619570
      Gh(H)           2.935748000000     0.759416000000     0.000000000000     1.007825032230
      Gh(H)           2.935748000000    -0.759416000000     0.000000000000     1.007825032230
         O           -2.346790000000     0.000000000000     0.000000000000    15.994914619570
         H           -2.935748000000    -0.759416000000     0.000000000000     1.007825032230
         H           -2.935748000000     0.759416000000     0.000000000000     1.007825032230

  Charge       = 0
  Multiplicity = 1
  Basis Set: AUG-CC-PVTZ
    Blend: AUG-CC-PVTZ
  Basis Set: (AUG-CC-PVTZ AUX)
    Blend: AUG-CC-PVTZ-JKFIT + DEF2-UNIVERSAL-JKFIT

    Orbital Energies [Eh]
    ---------------------

    Doubly Occupied:

       1A    -20.567793     2A     -1.351645     3A     -0.715499
       4A     -0.584379     5A     -0.510019

  @DF-RHF Final Energy:   -76.06040046906779

   => Energetics <=

    Nuclear Repulsion Energy =              9.1585518737866209
    One-Electron Energy =                -122.9792306782444484
    Two-Electron Energy =                  37.7602783353900406
    Total Energy =                        -76.0604004690677868
 Dipole X            :         45.7923763          -46.5738424           -0.7814660
 Dipole Y            :         -0.0000000            0.0000000           -0.0000000
 Dipole Z            :          0.0000000            0.0000000            0.0000000
 Magnitude           :                                                    0.7814660
  Basis Set: (AUG-CC-PVTZ AUX)
    Blend: AUG-CC-PVTZ-RI + DEF2-QZVPP-RI
	 Reference Energy          =     -76.0604004690677868 [Eh]
	 Singles Energy            =      -0.0000000000000000 [Eh]
	 Same-Spin Energy          =      -0.0684438254462680 [Eh]
	 Opposite-Spin Energy      =      -0.2157590462847110 [Eh]
	 Correlation Energy        =      -0.2842028717309790 [Eh]
	 Total Energy              =     -76.3446033407987699 [Eh]

	 ================> DF-SCS-MP2 Energies <==================
	-----------------------------------------------------------
	 SCS Same-Spin Scale       =       0.3333333333333333 [-]
	 SCS Opposite-Spin Scale   =       1.2000000000000000 [-]
	 SCS Same-Spin Energy      =      -0.0228146084820893 [Eh]
	 SCS Opposite-Spin Energy  =      -0.2589108555416532 [Eh]
	 SCS Correlation Energy    =      -0.2817254640237425 [Eh]
	 SCS Total Energy          =     -76.3421259330915234 [Eh]
	-----------------------------------------------------------

*** Psi4 exiting successfully. Buy a developer a beer!
