                               Psi4 1.8.2 release

  ==> Input File <==

--------------------------------------------------------------------------
MEMORY 60 GB

molecule dimer {
0 1
Gh(Na)     0.000000     0.000000     0.000000
Gh(O)      2.458542     0.000000     0.000000
Gh(H)      3.047500     0.759416     0.000000
Gh(H)      3.047500    -0.759416     0.000000
O         -2.458542     0.000000     0.000000
H         -3.047500    -0.759416     0.000000
H         -3.047500     0.759416     0.000000

units ang
no_reorient
no_com
symmetry c1
}

set {
basis        aug-cc-pVTZ
scf_type     df
}

energy("mp2")
--------------------------------------------------------------------------

    Molecular point group: c1

    Geometry (in Angstrom), charge = 0, multiplicity = 1:

       Center              X                  Y                   Z               Mass
    ------------   -----------------  -----------------  -----------------  -----------------
      Gh(NA)          0.000000000000     0.000000000000     0.000000000000    22.989769282000
      Gh(O)           2.458542000000     0.000000000000     0.000000000000    15.994914619570
      Gh(H)           3.047500000000     0.759416000000     0.000000000000     1.007825032230
      Gh(H)           3.047500000000    -0.759416000000     0.000000000000     1.007825032230
         O           -2.458542000000     0.000000000000     0.000000000000    15.994914619570
         H           -3.047500000000    -0.759416000000     0.000000000000     1.007825032230
         H           -3.047500000000     0.759416000000     0.000000000000     1.007825032230

  Charge       = 0
  Multiplicity = 1
  Basis Set: AUG-CC-PVTZ
    Blend: AUG-CC-PVTZ
  Basis Set: (AUG-CC-PVTZ AUX)
    Blend: AUG-CC-PVTZ-JKFIT + DEF2-UNIVERSAL-JKFIT

    Orbital Energies [Eh]
    ---------------------

    Doubly Occupied:

       1A    -20.567817     2A     -1.351659     3A     -0.715511
       4A     -0.584392     5A     -0.510023

  @DF-RHF Final Energy:   -76.06038944697210

   => Energetics <=

    Nuclear Repulsion Energy =              9.1585518737866174
    One-Electron Energy =                -122.9790765291994035
    Two-Electron Energy =                  37.7601352084406940
    Total Energy =                        -76.0603894469720956
 Dipole X            :         47.9041020          -48.6856491           -0.7815471
 Dipole Y            :          0.0000000            0.0000000            0.0000000
 Dipole Z            :          0.0000000            0.0000000            0.0000000
 Magnitude           :                                                    0.7815471
  Basis Set: (AUG-CC-PVTZ AUX)
    Blend: AUG-CC-PVTZ-RI + DEF2-QZVPP-RI
	 Reference Energy          =     -76.0603894469720956 [Eh]
	 Singles Energy            =      -0.0000000000000000 [Eh]
	 Same-Spin Energy          =      -0.0684392391351231 [Eh]
	 Opposite-Spin Energy      =      -0.2157047329630554 [Eh]
	 Correlation Energy        =      -0.2841439720981785 [Eh]
	 Total Energy              =     -76.3445334190702738 [Eh]

	 ================> DF-SCS-MP2 Energies <==================
	-----------------------------------------------------------
	 SCS Same-Spin Scale       =       0.3333333333333333 [-]
	 SCS Opposite-Spin Scale   =       1.2000000000000000 [-]
	 SCS Same-Spin Energy      =      -0.0228130797117077 [Eh]
	 SCS Opposite-Spin Energy  =      -0.2588456795556665 [Eh]
	 SCS Correlation Energy    =      -0.2816587592673742 [Eh]
	 SCS Total Energy          =     -76.3420482062394683 [Eh]
	-----------------------------------------------------------

*** Psi4 exiting successfully. Buy a developer a beer!
