                               Psi4 1.8.2 release

  ==> Input File <==

--------------------------------------------------------------------------
MEMORY 60 GB

molecule dimer {
1 1
Na         0.000000     0.000000     0.000000
O          4.470076     0.000000     0.000000
H          5.059034     0.759416     0.000000
H          5.059034    -0.759416     0.000000
O         -4.470076     0.000000     0.000000
H         -5.059034    -0.759416     0.000000
H         -5.059034     0.759416     0.000000

units ang
no_reorient
no_com
symmetry c1
}

set {
basis        aug-cc-pVTZ
scf_type     df
}

energy("mp2")
--------------------------------------------------------------------------

    Molecular point group: c1

    Geometry (in Angstrom), charge = 1, multiplicity = 1:

       Center              X                  Y                   Z               Mass
    ------------   -----------------  -----------------  -----------------  -----------------
         NA           0.000000000000     0.000000000000     0.000000000000    22.989769282000
         O            4.470076000000     0.000000000000     0.000000000000    15.994914619570
         H            5.059034000000     0.759416000000     0.000000000000     1.007825032230
         H            5.059034000000    -0.759416000000     0.000000000000     1.007825032230
         O           -4.470076000000     0.000000000000     0.000000000000    15.994914619570
         H           -5.059034000000    -0.759416000000     0.000000000000     1.007825032230
         H           -5.059034000000     0.759416000000     0.000000000000     1.007825032230

  Charge       = 1
  Multiplicity = 1
  Basis Set: AUG-CC-PVTZ
    Blend: AUG-CC-PVTZ
  Basis Set: (AUG-CC-PVTZ AUX)
    Blend: AUG-CC-PVTZ-JKFIT + DEF2-UNIVERSAL-JKFIT

    Orbital Energies [Eh]
    ---------------------

    Doubly Occupied:

       1A    -40.739326     2A    -20.677349     3A    -20.677348
       4A     -3.051017     5A     -1.774310     6A     -1.774276
       7A     -1.773945     8A     -1.461465     9A     -1.461464
      10A     -0.825266    11A     -0.825266    12A     -0.698571
      13A     -0.698570    14A     -0.620993    15A     -0.620990

  @DF-RHF Final Energy:  -313.81901589024551

   => Energetics <=

    Nuclear Repulsion Energy =             49.4714890201237267
    One-Electron Energy =                -531.2206929873908621
    Two-Electron Energy =                 167.9301880770216542
    Total Energy =                       -313.8190158902455096
 Dipole X            :          0.0000000           -0.0000000           -0.0000000
 Dipole Y            :          0.0000000            0.0000000            0.0000000
 Dipole Z            :         -0.0000000            0.0000000           -0.0000000
 Magnitude           :                                                    0.0000000
  Basis Set: (AUG-CC-PVTZ AUX)
    Blend: AUG-CC-PVTZ-RI + DEF2-QZVPP-RI
	 Reference Energy          =    -313.8190158902455096 [Eh]
	 Singles Energy            =      -0.0000000000000000 [Eh]
	 Same-Spin Energy          =      -0.1385903257817465 [Eh]
	 Opposite-Spin Energy      =      -0.4379414070817821 [Eh]
	 Correlation Energy        =      -0.5765317328635287 [Eh]
	 Total Energy              =    -314.3955476231090529 [Eh]

	 ================> DF-SCS-MP2 Energies <==================
	-----------------------------------------------------------
	 SCS Same-Spin Scale       =       0.3333333333333333 [-]
	 SCS Opposite-Spin Scale   =       1.2000000000000000 [-]
	 SCS Same-Spin Energy      =      -0.0461967752605822 [Eh]
	 SCS Opposite-Spin Energy  =      -0.5255296884981385 [Eh]
	 SCS Correlation Energy    =      -0.5717264637587207 [Eh]
	 SCS Total Energy          =    -314.3907423540042032 [Eh]
	-----------------------------------------------------------

*** Psi4 exiting successfully. Buy a developer a beer!
