                               Psi4 1.8.2 release

  ==> Input File <==

--------------------------------------------------------------------------
MEMORY 60 GB

molecule dimer {
1 1
Na         0.000000     0.000000     0.000000
Gh(O)      2.011534     0.000000     0.000000
Gh(H)      2.600492     0.759416     0.000000
Gh(H)      2.600492    -0.759416     0.000000
Gh(O)     -2.011534     0.000000     0.000000
Gh(H)     -2.600492    -0.759416     0.000000
Gh(H)     -2.600492     0.759416     0.000000

units ang
no_reorient
no_com
symmetry c1
}

set {
basis        aug-cc-pVTZ
scf_type     df
}

energy("mp2")
--------------------------------------------------------------------------

    Molecular point group: c1

    Geometry (in Angstrom), charge = 1, multiplicity = 1:

       Center              X                  Y                   Z               Mass
    ------------   -----------------  -----------------  -----------------  -----------------
         NA           0.000000000000     0.000000000000     0.000000000000    22.989769282000
      Gh(O)           2.011534000000     0.000000000000     0.000000000000    15.994914619570
      Gh(H)           2.600492000000     0.759416000000     0.000000000000     1.007825032230
      Gh(H)           2.600492000000    -0.759416000000     0.000000000000     1.007825032230
      Gh(O)          -2.011534000000     0.000000000000     0.000000000000    15.994914619570
      Gh(H)          -2.600492000000    -0.759416000000     0.000000000000     1.007825032230
      Gh(H)          -2.600492000000     0.759416000000     0.000000000000     1.007825032230

  Charge       = 1
  Multiplicity = 1
  Basis Set: AUG-CC-PVTZ
    Blend: AUG-CC-PVTZ
  Basis Set: (AUG-CC-PVTZ AUX)
    Blend: AUG-CC-PVTZ-JKFIT + DEF2-UNIVERSAL-JKFIT

    Orbital Energies [Eh]
    ---------------------

    Doubly Occupied:

       1A    -40.761236     2A     -3.074221     3A     -1.797650
       4A     -1.797517     5A     -1.797360

  @DF-RHF Final Energy:  -161.67606758923299

   => Energetics <=

    Nuclear Repulsion Energy =              0.0000000000000000
    One-Electron Energy =                -224.8961662648512743
    Two-Electron Energy =                  63.2200986756182886
    Total Energy =                       -161.6760675892329857
 Dipole X            :         -0.0000000            0.0000000           -0.0000000
 Dipole Y            :         -0.0000000            0.0000000           -0.0000000
 Dipole Z            :         -0.0000000            0.0000000           -0.0000000
 Magnitude           :                                                    0.0000000
  Basis Set: (AUG-CC-PVTZ AUX)
    Blend: AUG-CC-PVTZ-RI + DEF2-QZVPP-RI
	 Reference Energy          =    -161.6760675892329857 [Eh]
	 Singles Energy            =      -0.0000000000000000 [Eh]
	 Same-Spin Energy          =      -0.0048689549480330 [Eh]
	 Opposite-Spin Energy      =      -0.0163576519960880 [Eh]
	 Correlation Energy        =      -0.0212266069441210 [Eh]
	 Total Energy              =    -161.6972941961770971 [Eh]

	 ================> DF-SCS-MP2 Energies <==================
	-----------------------------------------------------------
	 SCS Same-Spin Scale       =       0.3333333333333333 [-]
	 SCS Opposite-Spin Scale   =       1.2000000000000000 [-]
	 SCS Same-Spin Energy      =      -0.0016229849826777 [Eh]
	 SCS Opposite-Spin Energy  =      -0.0196291823953056 [Eh]
	 SCS Correlation Energy    =      -0.0212521673779832 [Eh]
	 SCS Total Energy          =    -161.6973197566109661 [Eh]
	-----------------------------------------------------------

*** Psi4 exiting successfully. Buy a developer a beer!
