                               Psi4 1.8.2 release

  ==> Input File <==

--------------------------------------------------------------------------
MEMORY 60 GB

molecule dimer {
1 1
Na         0.000000     0.000000     0.000000
O          2.123286     0.000000     0.000000
H          2.712244     0.759416     0.000000
H          2.712244    -0.759416     0.000000
O         -2.123286     0.000000     0.000000
H         -2.712244    -0.759416     0.000000
H         -2.712244     0.759416     0.000000

units ang
no_reorient
no_com
symmetry c1
}

set {
basis        aug-cc-pVTZ
scf_type     df
}

energy("mp2")
--------------------------------------------------------------------------

    Molecular point group: c1

    Geometry (in Angstrom), charge = 1, multiplicity = 1:

       Center              X                  Y                   Z               Mass
    ------------   -----------------  -----------------  -----------------  -----------------
         NA           0.000000000000     0.000000000000     0.000000000000    22.989769282000
         O            2.123286000000     0.000000000000     0.000000000000    15.994914619570
         H            2.712244000000     0.759416000000     0.000000000000     1.007825032230
         H            2.712244000000    -0.759416000000     0.000000000000     1.007825032230
         O           -2.123286000000     0.000000000000     0.000000000000    15.994914619570
         H           -2.712244000000    -0.759416000000     0.000000000000     1.007825032230
         H           -2.712244000000     0.759416000000     0.000000000000     1.007825032230

  Charge       = 1
  Multiplicity = 1
  Basis Set: AUG-CC-PVTZ
    Blend: AUG-CC-PVTZ
  Basis Set: (AUG-CC-PVTZ AUX)
    Blend: AUG-CC-PVTZ-JKFIT + DEF2-UNIVERSAL-JKFIT

    Orbital Energies [Eh]
    ---------------------

    Doubly Occupied:

       1A    -40.627269     2A    -20.764809     3A    -20.764808
       4A     -2.951717     5A     -1.679139     6A     -1.675979
       7A     -1.675201     8A     -1.555502     9A     -1.551446
      10A     -0.916780    11A     -0.916695    12A     -0.813029
      13A     -0.804928    14A     -0.716094    15A     -0.716081

  @DF-RHF Final Energy:  -313.86703110481903

   => Energetics <=

    Nuclear Repulsion Energy =             82.2653031514990687
    One-Electron Energy =                -596.0057098599514802
    Two-Electron Energy =                 199.8733756036332920
    Total Energy =                       -313.8670311048190911
 Dipole X            :          0.0000000            0.0000000            0.0000000
 Dipole Y            :         -0.0000000            0.0000000           -0.0000000
 Dipole Z            :          0.0000000            0.0000000            0.0000000
 Magnitude           :                                                    0.0000000
  Basis Set: (AUG-CC-PVTZ AUX)
    Blend: AUG-CC-PVTZ-RI + DEF2-QZVPP-RI
	 Reference Energy          =    -313.8670311048190342 [Eh]
	 Singles Energy            =      -0.0000000000000000 [Eh]
	 Same-Spin Energy          =      -0.1401930418695774 [Eh]
	 Opposite-Spin Energy      =      -0.4418078229365144 [Eh]
	 Correlation Energy        =      -0.5820008648060918 [Eh]
	 Total Energy              =    -314.4490319696251390 [Eh]

	 ================> DF-SCS-MP2 Energies <==================
	-----------------------------------------------------------
	 SCS Same-Spin Scale       =       0.3333333333333333 [-]
	 SCS Opposite-Spin Scale   =       1.2000000000000000 [-]
	 SCS Same-Spin Energy      =      -0.0467310139565258 [Eh]
	 SCS Opposite-Spin Energy  =      -0.5301693875238173 [Eh]
	 SCS Correlation Energy    =      -0.5769004014803431 [Eh]
	 SCS Total Energy          =    -314.4439315062993501 [Eh]
	-----------------------------------------------------------

*** Psi4 exiting successfully. Buy a developer a beer!
