                               Psi4 1.8.2 release

  ==> Input File <==

--------------------------------------------------------------------------
MEMORY 60 GB

molecule dimer {
1 1
Na         0.000000     0.000000     0.000000
O          3.352557     0.000000     0.000000
H          3.941515     0.759416     0.000000
H          3.941515    -0.759416     0.000000
O         -3.352557     0.000000     0.000000
H         -3.941515    -0.759416     0.000000
H         -3.941515     0.759416     0.000000

units ang
no_reorient
no_com
symmetry c1
}

set {
basis        aug-cc-pVTZ
scf_type     df
}

energy("mp2")
--------------------------------------------------------------------------

    Molecular point group: c1

    Geometry (in Angstrom), charge = 1, multiplicity = 1:

       Center              X                  Y                   Z               Mass
    ------------   -----------------  -----------------  -----------------  -----------------
         NA           0.000000000000     0.000000000000     0.000000000000    22.989769282000
         O            3.352557000000     0.000000000000     0.000000000000    15.994914619570
         H            3.941515000000     0.759416000000     0.000000000000     1.007825032230
         H            3.941515000000    -0.759416000000     0.000000000000     1.007825032230
         O           -3.352557000000     0.000000000000     0.000000000000    15.994914619570
         H           -3.941515000000    -0.759416000000     0.000000000000     1.007825032230
         H           -3.941515000000     0.759416000000     0.000000000000     1.007825032230

  Charge       = 1
  Multiplicity = 1
  Basis Set: AUG-CC-PVTZ
    Blend: AUG-CC-PVTZ
  Basis Set: (AUG-CC-PVTZ AUX)
    Blend: AUG-CC-PVTZ-JKFIT + DEF2-UNIVERSAL-JKFIT

    Orbital Energies [Eh]
    ---------------------

    Doubly Occupied:

       1A    -40.715461     2A    -20.710674     3A    -20.710674
       4A     -3.027802     5A     -1.751448     6A     -1.751312
       7A     -1.750286     8A     -1.494597     9A     -1.494594
      10A     -0.858151    11A     -0.858150    12A     -0.735448
      13A     -0.735322    14A     -0.654831    15A     -0.654825

  @DF-RHF Final Energy:  -313.83741540083003

   => Energetics <=

    Nuclear Repulsion Energy =             59.5242318776485604
    One-Electron Energy =                -550.9161397530551767
    Two-Electron Energy =                 177.5544924745765911
    Total Energy =                       -313.8374154008300252
 Dipole X            :         -0.0000000            0.0000000           -0.0000000
 Dipole Y            :          0.0000000            0.0000000            0.0000000
 Dipole Z            :         -0.0000000            0.0000000           -0.0000000
 Magnitude           :                                                    0.0000000
  Basis Set: (AUG-CC-PVTZ AUX)
    Blend: AUG-CC-PVTZ-RI + DEF2-QZVPP-RI
	 Reference Energy          =    -313.8374154008300252 [Eh]
	 Singles Energy            =      -0.0000000000000000 [Eh]
	 Same-Spin Energy          =      -0.1388961616450396 [Eh]
	 Opposite-Spin Energy      =      -0.4386281003749053 [Eh]
	 Correlation Energy        =      -0.5775242620199449 [Eh]
	 Total Energy              =    -314.4149396628499744 [Eh]

	 ================> DF-SCS-MP2 Energies <==================
	-----------------------------------------------------------
	 SCS Same-Spin Scale       =       0.3333333333333333 [-]
	 SCS Opposite-Spin Scale   =       1.2000000000000000 [-]
	 SCS Same-Spin Energy      =      -0.0462987205483465 [Eh]
	 SCS Opposite-Spin Energy  =      -0.5263537204498864 [Eh]
	 SCS Correlation Energy    =      -0.5726524409982329 [Eh]
	 SCS Total Energy          =    -314.4100678418282655 [Eh]
	-----------------------------------------------------------

*** Psi4 exiting successfully. Buy a developer a beer!
