                               Psi4 1.8.2 release

  ==> Input File <==

--------------------------------------------------------------------------
MEMORY 60 GB

molecule dimer {
1 1
Na         0.000000     0.000000     0.000000
O          2.905549     0.000000     0.000000
H          3.494507     0.759416     0.000000
H          3.494507    -0.759416     0.000000
O         -2.905549     0.000000     0.000000
H         -3.494507    -0.759416     0.000000
H         -3.494507     0.759416     0.000000

units ang
no_reorient
no_com
symmetry c1
}

set {
basis        aug-cc-pVTZ
scf_type     df
}

energy("mp2")
--------------------------------------------------------------------------

    Molecular point group: c1

    Geometry (in Angstrom), charge = 1, multiplicity = 1:

       Center              X                  Y                   Z               Mass
    ------------   -----------------  -----------------  -----------------  -----------------
         NA           0.000000000000     0.000000000000     0.000000000000    22.989769282000
         O            2.905549000000     0.000000000000     0.000000000000    15.994914619570
         H            3.494507000000     0.759416000000     0.000000000000     1.007825032230
         H            3.494507000000    -0.759416000000     0.000000000000     1.007825032230
         O           -2.905549000000     0.000000000000     0.000000000000    15.994914619570
         H           -3.494507000000    -0.759416000000     0.000000000000     1.007825032230
         H           -3.494507000000     0.759416000000     0.000000000000     1.007825032230

  Charge       = 1
  Multiplicity = 1
  Basis Set: AUG-CC-PVTZ
    Blend: AUG-CC-PVTZ
  Basis Set: (AUG-CC-PVTZ AUX)
    Blend: AUG-CC-PVTZ-JKFIT + DEF2-UNIVERSAL-JKFIT

    Orbital Energies [Eh]
    ---------------------

    Doubly Occupied:

       1A    -40.695895     2A    -20.729456     3A    -20.729456
       4A     -3.009060     5A     -1.733069     6A     -1.732821
       7A     -1.731101     8A     -1.513499     9A     -1.513465
      10A     -0.876747    11A     -0.876745    12A     -0.757681
      13A     -0.757108    14A     -0.674105    15A     -0.674090

  @DF-RHF Final Energy:  -313.85069303957374

   => Energetics <=

    Nuclear Repulsion Energy =             65.6372341239075752
    One-Electron Energy =                -562.9672501867767096
    Two-Electron Energy =                 183.4793230232953647
    Total Energy =                       -313.8506930395737982
 Dipole X            :         -0.0000000            0.0000000           -0.0000000
 Dipole Y            :          0.0000000            0.0000000            0.0000000
 Dipole Z            :         -0.0000000            0.0000000           -0.0000000
 Magnitude           :                                                    0.0000000
  Basis Set: (AUG-CC-PVTZ AUX)
    Blend: AUG-CC-PVTZ-RI + DEF2-QZVPP-RI
	 Reference Energy          =    -313.8506930395737413 [Eh]
	 Singles Energy            =      -0.0000000000000000 [Eh]
	 Same-Spin Energy          =      -0.1394101887688995 [Eh]
	 Opposite-Spin Energy      =      -0.4400248789932102 [Eh]
	 Correlation Energy        =      -0.5794350677621097 [Eh]
	 Total Energy              =    -314.4301281073358609 [Eh]

	 ================> DF-SCS-MP2 Energies <==================
	-----------------------------------------------------------
	 SCS Same-Spin Scale       =       0.3333333333333333 [-]
	 SCS Opposite-Spin Scale   =       1.2000000000000000 [-]
	 SCS Same-Spin Energy      =      -0.0464700629229665 [Eh]
	 SCS Opposite-Spin Energy  =      -0.5280298547918523 [Eh]
	 SCS Correlation Energy    =      -0.5744999177148188 [Eh]
	 SCS Total Energy          =    -314.4251929572885729 [Eh]
	-----------------------------------------------------------

*** Psi4 exiting successfully. Buy a developer a beer!
