                               Psi4 1.8.2 release

  ==> Input File <==

--------------------------------------------------------------------------
MEMORY 60 GB

molecule dimer {
0 1
Gh(Na)     0.000000     0.000000     0.000000
O          4.470076     0.000000     0.000000
H          5.059034     0.759416     0.000000
H          5.059034    -0.759416     0.000000
Gh(O)     -4.470076     0.000000     0.000000
Gh(H)     -5.059034    -0.759416     0.000000
Gh(H)     -5.059034     0.759416     0.000000

units ang
no_reorient
no_com
symmetry c1
}

set {
basis        aug-cc-pVTZ
scf_type     df
}

energy("mp2")
--------------------------------------------------------------------------

    Molecular point group: c1

    Geometry (in Angstrom), charge = 0, multiplicity = 1:

       Center              X                  Y                   Z               Mass
    ------------   -----------------  -----------------  -----------------  -----------------
      Gh(NA)          0.000000000000     0.000000000000     0.000000000000    22.989769282000
         O            4.470076000000     0.000000000000     0.000000000000    15.994914619570
         H            5.059034000000     0.759416000000     0.000000000000     1.007825032230
         H            5.059034000000    -0.759416000000     0.000000000000     1.007825032230
      Gh(O)          -4.470076000000     0.000000000000     0.000000000000    15.994914619570
      Gh(H)          -5.059034000000    -0.759416000000     0.000000000000     1.007825032230
      Gh(H)          -5.059034000000     0.759416000000     0.000000000000     1.007825032230

  Charge       = 0
  Multiplicity = 1
  Basis Set: AUG-CC-PVTZ
    Blend: AUG-CC-PVTZ
  Basis Set: (AUG-CC-PVTZ AUX)
    Blend: AUG-CC-PVTZ-JKFIT + DEF2-UNIVERSAL-JKFIT

    Orbital Energies [Eh]
    ---------------------

    Doubly Occupied:

       1A    -20.567928     2A     -1.351733     3A     -0.715576
       4A     -0.584426     5A     -0.510084

  @DF-RHF Final Energy:   -76.06032862752460

   => Energetics <=

    Nuclear Repulsion Energy =              9.1585518737866227
    One-Electron Energy =                -122.9782640542599239
    Two-Electron Energy =                  37.7593835529487052
    Total Energy =                        -76.0603286275245978
 Dipole X            :        -85.9158685           86.6981326            0.7822641
 Dipole Y            :         -0.0000000            0.0000000           -0.0000000
 Dipole Z            :         -0.0000000            0.0000000           -0.0000000
 Magnitude           :                                                    0.7822641
  Basis Set: (AUG-CC-PVTZ AUX)
    Blend: AUG-CC-PVTZ-RI + DEF2-QZVPP-RI
	 Reference Energy          =     -76.0603286275245978 [Eh]
	 Singles Energy            =      -0.0000000000000000 [Eh]
	 Same-Spin Energy          =      -0.0684096360579969 [Eh]
	 Opposite-Spin Energy      =      -0.2154026070299341 [Eh]
	 Correlation Energy        =      -0.2838122430879310 [Eh]
	 Total Energy              =     -76.3441408706125344 [Eh]

	 ================> DF-SCS-MP2 Energies <==================
	-----------------------------------------------------------
	 SCS Same-Spin Scale       =       0.3333333333333333 [-]
	 SCS Opposite-Spin Scale   =       1.2000000000000000 [-]
	 SCS Same-Spin Energy      =      -0.0228032120193323 [Eh]
	 SCS Opposite-Spin Energy  =      -0.2584831284359209 [Eh]
	 SCS Correlation Energy    =      -0.2812863404552531 [Eh]
	 SCS Total Energy          =     -76.3416149679798508 [Eh]
	-----------------------------------------------------------

*** Psi4 exiting successfully. Buy a developer a beer!
