                               Psi4 1.8.2 release

  ==> Input File <==

--------------------------------------------------------------------------
MEMORY 60 GB

molecule dimer {
1 1
Na     0.000000     0.000000     0.000000
--
0 1
O      2.346790     0.000000     0.000000
H      2.935748     0.759416     0.000000
H      2.935748    -0.759416     0.000000
--
0 1
O     -2.346790     0.000000     0.000000
H     -2.935748    -0.759416     0.000000
H     -2.935748     0.759416     0.000000

units ang
no_reorient
no_com
symmetry c1
}

set {
basis        aug-cc-pVTZ
scf_type     df
}

energy("mp2", bsse_type="cp")
--------------------------------------------------------------------------

                               Psi4 1.8.2 release
    Molecular point group: c1
  Charge       = 1
  Multiplicity = 1
  Basis Set: AUG-CC-PVTZ
    Blend: AUG-CC-PVTZ
  Basis Set: (AUG-CC-PVTZ AUX)
    Blend: AUG-CC-PVTZ-JKFIT + DEF2-UNIVERSAL-JKFIT
  @DF-RHF Final Energy:  -161.67605496179090
    Total Energy =                       -161.6760549617908964
 Dipole X            :         -0.0000000            0.0000000           -0.0000000
 Dipole Y            :          0.0000000            0.0000000            0.0000000
 Dipole Z            :         -0.0000000            0.0000000           -0.0000000
 Magnitude           :                                                    0.0000000
  Basis Set: (AUG-CC-PVTZ AUX)
    Blend: AUG-CC-PVTZ-RI + DEF2-QZVPP-RI
	 Reference Energy          =    -161.6760549617908964 [Eh]
	 Singles Energy            =      -0.0000000000000000 [Eh]
	 Same-Spin Energy          =      -0.0035604020772600 [Eh]
	 Opposite-Spin Energy      =      -0.0124564042290658 [Eh]
	 Correlation Energy        =      -0.0160168063063257 [Eh]
	 Total Energy              =    -161.6920717680972359 [Eh]
	 SCS Total Energy          =    -161.6921894475582064 [Eh]
                               Psi4 1.8.2 release
    Molecular point group: c1
  Basis Set: AUG-CC-PVTZ
    Blend: AUG-CC-PVTZ
  Basis Set: (AUG-CC-PVTZ AUX)
    Blend: AUG-CC-PVTZ-JKFIT + DEF2-UNIVERSAL-JKFIT
  @DF-RHF Final Energy:   -76.06040046906944
    Total Energy =                        -76.0604004690694353
  Basis Set: (AUG-CC-PVTZ AUX)
                               Psi4 1.8.2 release
  @DF-RHF Final Energy:  -152.11926603167052
    Total Energy =                       -152.1192660316705201
                               Psi4 1.8.2 release
  @DF-RHF Final Energy:  -237.77415802006132
    Total Energy =                       -237.7741580200613214
                               Psi4 1.8.2 release
  @DF-RHF Final Energy:  -237.77415802005859
    Total Energy =                       -237.7741580200585929
                               Psi4 1.8.2 release
  Multiplicity = 1
  @DF-RHF Final Energy:   -76.06040046907000
    Total Energy =                        -76.0604004690700037
	 Singles Energy            =      -0.0000000000000000 [Eh]
	 Same-Spin Energy          =      -0.0684438254462579 [Eh]
	 Opposite-Spin Energy      =      -0.2157590462846898 [Eh]
	 Correlation Energy        =      -0.2842028717309477 [Eh]
	 Total Energy              =     -76.3446033408009583 [Eh]
	 SCS Total Energy          =     -76.3421259330937119 [Eh]
                               Psi4 1.8.2 release
    Molecular point group: c1

    Geometry (in Bohr), charge = 1, multiplicity = 1:

       Center              X                  Y                   Z               Mass
    ------------   -----------------  -----------------  -----------------  -----------------
         NA           0.000000000000     0.000000000000     0.000000000000    22.989769282000
         O            4.434790373963     0.000000000000     0.000000000000    15.994914619570
         H            5.547759693361     1.435088255291     0.000000000000     1.007825032230
         H            5.547759693361    -1.435088255291     0.000000000000     1.007825032230
         O           -4.434790373963     0.000000000000     0.000000000000    15.994914619570
         H           -5.547759693361    -1.435088255291     0.000000000000     1.007825032230
         H           -5.547759693361     1.435088255291     0.000000000000     1.007825032230

  Charge       = 1
  Multiplicity = 1
  Basis Set: AUG-CC-PVTZ
    Blend: AUG-CC-PVTZ
  Basis Set: (AUG-CC-PVTZ AUX)
    Blend: AUG-CC-PVTZ-JKFIT + DEF2-UNIVERSAL-JKFIT

    Orbital Energies [Eh]
    ---------------------

    Doubly Occupied:

       1A    -40.654037     2A    -20.755661     3A    -20.755661
       4A     -2.971773     5A     -1.696262     6A     -1.695700
       7A     -1.694632     8A     -1.542475     9A     -1.541483
      10A     -0.904650    11A     -0.904635    12A     -0.794983
      13A     -0.791211    14A     -0.703282    15A     -0.703229

  @DF-RHF Final Energy:  -313.86878081336619

   => Energetics <=

    Nuclear Repulsion Energy =             76.4251080631546955
    One-Electron Energy =                -584.3684252160039705
    Two-Electron Energy =                 194.0745363394830463
    Total Energy =                       -313.8687808133662429
 Dipole X            :         -0.0000000            0.0000000           -0.0000000
 Dipole Y            :          0.0000000            0.0000000            0.0000000
 Dipole Z            :          0.0000000            0.0000000            0.0000000
 Magnitude           :                                                    0.0000000
  Basis Set: (AUG-CC-PVTZ AUX)
    Blend: AUG-CC-PVTZ-RI + DEF2-QZVPP-RI
	 Reference Energy          =    -313.8687808133661861 [Eh]
	 Singles Energy            =      -0.0000000000000000 [Eh]
	 Same-Spin Energy          =      -0.1397665666370141 [Eh]
	 Opposite-Spin Energy      =      -0.4409116678765920 [Eh]
	 Correlation Energy        =      -0.5806782345136061 [Eh]
	 Total Energy              =    -314.4494590478797704 [Eh]

	 ================> DF-SCS-MP2 Energies <==================
	-----------------------------------------------------------
	 SCS Same-Spin Scale       =       0.3333333333333333 [-]
	 SCS Opposite-Spin Scale   =       1.2000000000000000 [-]
	 SCS Same-Spin Energy      =      -0.0465888555456714 [Eh]
	 SCS Opposite-Spin Energy  =      -0.5290940014519104 [Eh]
	 SCS Correlation Energy    =      -0.5756828569975818 [Eh]
	 SCS Total Energy          =    -314.4444636703637457 [Eh]
	-----------------------------------------------------------

*** Psi4 exiting successfully. Buy a developer a beer!
