                               Psi4 1.8.2 release

  ==> Input File <==

--------------------------------------------------------------------------
MEMORY 60 GB

molecule dimer {
0 1
Gh(Na)     0.000000     0.000000     0.000000
O          2.011534     0.000000     0.000000
H          2.600492     0.759416     0.000000
H          2.600492    -0.759416     0.000000
Gh(O)     -2.011534     0.000000     0.000000
Gh(H)     -2.600492    -0.759416     0.000000
Gh(H)     -2.600492     0.759416     0.000000

units ang
no_reorient
no_com
symmetry c1
}

set {
basis        aug-cc-pVTZ
scf_type     df
}

energy("mp2")
--------------------------------------------------------------------------

    Molecular point group: c1

    Geometry (in Angstrom), charge = 0, multiplicity = 1:

       Center              X                  Y                   Z               Mass
    ------------   -----------------  -----------------  -----------------  -----------------
      Gh(NA)          0.000000000000     0.000000000000     0.000000000000    22.989769282000
         O            2.011534000000     0.000000000000     0.000000000000    15.994914619570
         H            2.600492000000     0.759416000000     0.000000000000     1.007825032230
         H            2.600492000000    -0.759416000000     0.000000000000     1.007825032230
      Gh(O)          -2.011534000000     0.000000000000     0.000000000000    15.994914619570
      Gh(H)          -2.600492000000    -0.759416000000     0.000000000000     1.007825032230
      Gh(H)          -2.600492000000     0.759416000000     0.000000000000     1.007825032230

  Charge       = 0
  Multiplicity = 1
  Basis Set: AUG-CC-PVTZ
    Blend: AUG-CC-PVTZ
  Basis Set: (AUG-CC-PVTZ AUX)
    Blend: AUG-CC-PVTZ-JKFIT + DEF2-UNIVERSAL-JKFIT

    Orbital Energies [Eh]
    ---------------------

    Doubly Occupied:

       1A    -20.567724     2A     -1.351606     3A     -0.715464
       4A     -0.584334     5A     -0.510021

  @DF-RHF Final Energy:   -76.06042913868113

   => Energetics <=

    Nuclear Repulsion Energy =              9.1585518737866174
    One-Electron Energy =                -122.9796604793569088
    Two-Electron Energy =                  37.7606794668891581
    Total Energy =                        -76.0604291386811298
 Dipole X            :        -39.4571852           40.2384222            0.7812370
 Dipole Y            :         -0.0000000            0.0000000           -0.0000000
 Dipole Z            :         -0.0000000            0.0000000           -0.0000000
 Magnitude           :                                                    0.7812370
  Basis Set: (AUG-CC-PVTZ AUX)
    Blend: AUG-CC-PVTZ-RI + DEF2-QZVPP-RI
	 Reference Energy          =     -76.0604291386811298 [Eh]
	 Singles Energy            =      -0.0000000000000000 [Eh]
	 Same-Spin Energy          =      -0.0684599566073566 [Eh]
	 Opposite-Spin Energy      =      -0.2159166101381539 [Eh]
	 Correlation Energy        =      -0.2843765667455105 [Eh]
	 Total Energy              =     -76.3448057054266371 [Eh]

	 ================> DF-SCS-MP2 Energies <==================
	-----------------------------------------------------------
	 SCS Same-Spin Scale       =       0.3333333333333333 [-]
	 SCS Opposite-Spin Scale   =       1.2000000000000000 [-]
	 SCS Same-Spin Energy      =      -0.0228199855357855 [Eh]
	 SCS Opposite-Spin Energy  =      -0.2590999321657846 [Eh]
	 SCS Correlation Energy    =      -0.2819199177015702 [Eh]
	 SCS Total Energy          =     -76.3423490563827016 [Eh]
	-----------------------------------------------------------

*** Psi4 exiting successfully. Buy a developer a beer!
