                               Psi4 1.8.2 release

  ==> Input File <==

--------------------------------------------------------------------------
MEMORY 60 GB

molecule dimer {
1 1
Na         0.000000     0.000000     0.000000
Gh(O)      3.352557     0.000000     0.000000
Gh(H)      3.941515     0.759416     0.000000
Gh(H)      3.941515    -0.759416     0.000000
Gh(O)     -3.352557     0.000000     0.000000
Gh(H)     -3.941515    -0.759416     0.000000
Gh(H)     -3.941515     0.759416     0.000000

units ang
no_reorient
no_com
symmetry c1
}

set {
basis        aug-cc-pVTZ
scf_type     df
}

energy("mp2")
--------------------------------------------------------------------------

    Molecular point group: c1

    Geometry (in Angstrom), charge = 1, multiplicity = 1:

       Center              X                  Y                   Z               Mass
    ------------   -----------------  -----------------  -----------------  -----------------
         NA           0.000000000000     0.000000000000     0.000000000000    22.989769282000
      Gh(O)           3.352557000000     0.000000000000     0.000000000000    15.994914619570
      Gh(H)           3.941515000000     0.759416000000     0.000000000000     1.007825032230
      Gh(H)           3.941515000000    -0.759416000000     0.000000000000     1.007825032230
      Gh(O)          -3.352557000000     0.000000000000     0.000000000000    15.994914619570
      Gh(H)          -3.941515000000    -0.759416000000     0.000000000000     1.007825032230
      Gh(H)          -3.941515000000     0.759416000000     0.000000000000     1.007825032230

  Charge       = 1
  Multiplicity = 1
  Basis Set: AUG-CC-PVTZ
    Blend: AUG-CC-PVTZ
  Basis Set: (AUG-CC-PVTZ AUX)
    Blend: AUG-CC-PVTZ-JKFIT + DEF2-UNIVERSAL-JKFIT

    Orbital Energies [Eh]
    ---------------------

    Doubly Occupied:

       1A    -40.762770     2A     -3.074899     3A     -1.798251
       4A     -1.798032     5A     -1.798017

  @DF-RHF Final Energy:  -161.67604011056110

   => Energetics <=

    Nuclear Repulsion Energy =              0.0000000000000000
    One-Electron Energy =                -224.8881419297995308
    Two-Electron Energy =                  63.2121018192384412
    Total Energy =                       -161.6760401105610754
 Dipole X            :         -0.0000000            0.0000000           -0.0000000
 Dipole Y            :          0.0000000            0.0000000            0.0000000
 Dipole Z            :          0.0000000            0.0000000            0.0000000
 Magnitude           :                                                    0.0000000
  Basis Set: (AUG-CC-PVTZ AUX)
    Blend: AUG-CC-PVTZ-RI + DEF2-QZVPP-RI
	 Reference Energy          =    -161.6760401105611038 [Eh]
	 Singles Energy            =      -0.0000000000000000 [Eh]
	 Same-Spin Energy          =      -0.0023474293123258 [Eh]
	 Opposite-Spin Energy      =      -0.0090000651301137 [Eh]
	 Correlation Energy        =      -0.0113474944424396 [Eh]
	 Total Energy              =    -161.6873876050035506 [Eh]

	 ================> DF-SCS-MP2 Energies <==================
	-----------------------------------------------------------
	 SCS Same-Spin Scale       =       0.3333333333333333 [-]
	 SCS Opposite-Spin Scale   =       1.2000000000000000 [-]
	 SCS Same-Spin Energy      =      -0.0007824764374419 [Eh]
	 SCS Opposite-Spin Energy  =      -0.0108000781561365 [Eh]
	 SCS Correlation Energy    =      -0.0115825545935784 [Eh]
	 SCS Total Energy          =    -161.6876226651546915 [Eh]
	-----------------------------------------------------------

*** Psi4 exiting successfully. Buy a developer a beer!
