                               Psi4 1.8.2 release

  ==> Input File <==

--------------------------------------------------------------------------
MEMORY 60 GB

molecule dimer {
1 1
Na         0.000000     0.000000     0.000000
O          2.011534     0.000000     0.000000
H          2.600492     0.759416     0.000000
H          2.600492    -0.759416     0.000000
O         -2.011534     0.000000     0.000000
H         -2.600492    -0.759416     0.000000
H         -2.600492     0.759416     0.000000

units ang
no_reorient
no_com
symmetry c1
}

set {
basis        aug-cc-pVTZ
scf_type     df
}

energy("mp2")
--------------------------------------------------------------------------

    Molecular point group: c1

    Geometry (in Angstrom), charge = 1, multiplicity = 1:

       Center              X                  Y                   Z               Mass
    ------------   -----------------  -----------------  -----------------  -----------------
         NA           0.000000000000     0.000000000000     0.000000000000    22.989769282000
         O            2.011534000000     0.000000000000     0.000000000000    15.994914619570
         H            2.600492000000     0.759416000000     0.000000000000     1.007825032230
         H            2.600492000000    -0.759416000000     0.000000000000     1.007825032230
         O           -2.011534000000     0.000000000000     0.000000000000    15.994914619570
         H           -2.600492000000    -0.759416000000     0.000000000000     1.007825032230
         H           -2.600492000000     0.759416000000     0.000000000000     1.007825032230

  Charge       = 1
  Multiplicity = 1
  Basis Set: AUG-CC-PVTZ
    Blend: AUG-CC-PVTZ
  Basis Set: (AUG-CC-PVTZ AUX)
    Blend: AUG-CC-PVTZ-JKFIT + DEF2-UNIVERSAL-JKFIT

    Orbital Energies [Eh]
    ---------------------

    Doubly Occupied:

       1A    -40.610974     2A    -20.768384     3A    -20.768384
       4A     -2.941101     5A     -1.674367     6A     -1.664879
       7A     -1.664038     8A     -1.562245     9A     -1.554082
      10A     -0.922951    11A     -0.922771    12A     -0.822400
      13A     -0.810445    14A     -0.722715    15A     -0.722628

  @DF-RHF Final Energy:  -313.85888188078286

   => Energetics <=

    Nuclear Repulsion Energy =             85.6522760713749136
    One-Electron Energy =                -602.7575817734970087
    Two-Electron Energy =                 203.2464238213392207
    Total Energy =                       -313.8588818807828602
 Dipole X            :         -0.0000000           -0.0000000           -0.0000000
 Dipole Y            :         -0.0000000            0.0000000           -0.0000000
 Dipole Z            :         -0.0000000            0.0000000           -0.0000000
 Magnitude           :                                                    0.0000000
  Basis Set: (AUG-CC-PVTZ AUX)
    Blend: AUG-CC-PVTZ-RI + DEF2-QZVPP-RI
	 Reference Energy          =    -313.8588818807828602 [Eh]
	 Singles Energy            =      -0.0000000000000000 [Eh]
	 Same-Spin Energy          =      -0.1408951198853891 [Eh]
	 Opposite-Spin Energy      =      -0.4434083369977534 [Eh]
	 Correlation Energy        =      -0.5843034568831426 [Eh]
	 Total Energy              =    -314.4431853376660229 [Eh]

	 ================> DF-SCS-MP2 Energies <==================
	-----------------------------------------------------------
	 SCS Same-Spin Scale       =       0.3333333333333333 [-]
	 SCS Opposite-Spin Scale   =       1.2000000000000000 [-]
	 SCS Same-Spin Energy      =      -0.0469650399617964 [Eh]
	 SCS Opposite-Spin Energy  =      -0.5320900043973041 [Eh]
	 SCS Correlation Energy    =      -0.5790550443591005 [Eh]
	 SCS Total Energy          =    -314.4379369251419689 [Eh]
	-----------------------------------------------------------

*** Psi4 exiting successfully. Buy a developer a beer!
