                               Psi4 1.8.2 release

  ==> Input File <==

--------------------------------------------------------------------------
MEMORY 60 GB

molecule dimer {
1 1
Na     0.000000     0.000000     0.000000
--
0 1
O      3.129053     0.000000     0.000000
H      3.718011     0.759416     0.000000
H      3.718011    -0.759416     0.000000
--
0 1
O     -3.129053     0.000000     0.000000
H     -3.718011    -0.759416     0.000000
H     -3.718011     0.759416     0.000000

units ang
no_reorient
no_com
symmetry c1
}

set {
basis        aug-cc-pVTZ
scf_type     df
}

energy("mp2", bsse_type="cp")
--------------------------------------------------------------------------

                               Psi4 1.8.2 release
    Molecular point group: c1
  Charge       = 1
  Multiplicity = 1
  Basis Set: AUG-CC-PVTZ
    Blend: AUG-CC-PVTZ
  Basis Set: (AUG-CC-PVTZ AUX)
    Blend: AUG-CC-PVTZ-JKFIT + DEF2-UNIVERSAL-JKFIT
  @DF-RHF Final Energy:  -161.67604303532013
    Total Energy =                       -161.6760430353201343
 Dipole X            :          0.0000000            0.0000000            0.0000000
 Dipole Y            :          0.0000000            0.0000000            0.0000000
 Dipole Z            :         -0.0000000            0.0000000           -0.0000000
 Magnitude           :                                                    0.0000000
  Basis Set: (AUG-CC-PVTZ AUX)
    Blend: AUG-CC-PVTZ-RI + DEF2-QZVPP-RI
	 Reference Energy          =    -161.6760430353201343 [Eh]
	 Singles Energy            =      -0.0000000000000000 [Eh]
	 Same-Spin Energy          =      -0.0025992195186787 [Eh]
	 Opposite-Spin Energy      =      -0.0097122130008770 [Eh]
	 Correlation Energy        =      -0.0123114325195557 [Eh]
	 Total Energy              =    -161.6883544678397016 [Eh]
	 SCS Total Energy          =    -161.6885640974274168 [Eh]
                               Psi4 1.8.2 release
    Molecular point group: c1
  Basis Set: AUG-CC-PVTZ
    Blend: AUG-CC-PVTZ
  Basis Set: (AUG-CC-PVTZ AUX)
    Blend: AUG-CC-PVTZ-JKFIT + DEF2-UNIVERSAL-JKFIT
  @DF-RHF Final Energy:   -76.06033951619628
    Total Energy =                        -76.0603395161962794
  Basis Set: (AUG-CC-PVTZ AUX)
                               Psi4 1.8.2 release
  @DF-RHF Final Energy:  -152.11999686967752
    Total Energy =                       -152.1199968696774931
                               Psi4 1.8.2 release
  @DF-RHF Final Energy:  -237.76039544805741
    Total Energy =                       -237.7603954480574089
                               Psi4 1.8.2 release
  @DF-RHF Final Energy:  -237.76039544805261
    Total Energy =                       -237.7603954480526056
                               Psi4 1.8.2 release
  Multiplicity = 1
  @DF-RHF Final Energy:   -76.06033951620114
    Total Energy =                        -76.0603395162011395
	 Singles Energy            =      -0.0000000000000000 [Eh]
	 Same-Spin Energy          =      -0.0684235297875251 [Eh]
	 Opposite-Spin Energy      =      -0.2155023302248485 [Eh]
	 Correlation Energy        =      -0.2839258600123737 [Eh]
	 Total Energy              =     -76.3442653762135137 [Eh]
	 SCS Total Energy          =     -76.3417501557334646 [Eh]
                               Psi4 1.8.2 release
    Molecular point group: c1

    Geometry (in Bohr), charge = 1, multiplicity = 1:

       Center              X                  Y                   Z               Mass
    ------------   -----------------  -----------------  -----------------  -----------------
         NA           0.000000000000     0.000000000000     0.000000000000    22.989769282000
         O            5.913053202042     0.000000000000     0.000000000000    15.994914619570
         H            7.026022521440     1.435088255291     0.000000000000     1.007825032230
         H            7.026022521440    -1.435088255291     0.000000000000     1.007825032230
         O           -5.913053202042     0.000000000000     0.000000000000    15.994914619570
         H           -7.026022521440    -1.435088255291     0.000000000000     1.007825032230
         H           -7.026022521440     1.435088255291     0.000000000000     1.007825032230

  Charge       = 1
  Multiplicity = 1
  Basis Set: AUG-CC-PVTZ
    Blend: AUG-CC-PVTZ
  Basis Set: (AUG-CC-PVTZ AUX)
    Blend: AUG-CC-PVTZ-JKFIT + DEF2-UNIVERSAL-JKFIT

    Orbital Energies [Eh]
    ---------------------

    Doubly Occupied:

       1A    -40.706709     2A    -20.719655     3A    -20.719655
       4A     -3.019409     5A     -1.743213     6A     -1.743028
       7A     -1.741704     8A     -1.503569     9A     -1.503560
      10A     -0.867001    11A     -0.867000    12A     -0.745842
      13A     -0.745574    14A     -0.663989    15A     -0.663982

  @DF-RHF Final Energy:  -313.84352561071421

   => Energetics <=

    Nuclear Repulsion Energy =             62.3691012219971270
    One-Electron Energy =                -556.5174682360850511
    Two-Electron Energy =                 180.3048414033737004
    Total Energy =                       -313.8435256107142095
 Dipole X            :          0.0000000            0.0000000            0.0000000
 Dipole Y            :         -0.0000000            0.0000000           -0.0000000
 Dipole Z            :         -0.0000000            0.0000000           -0.0000000
 Magnitude           :                                                    0.0000000
  Basis Set: (AUG-CC-PVTZ AUX)
    Blend: AUG-CC-PVTZ-RI + DEF2-QZVPP-RI
	 Reference Energy          =    -313.8435256107142095 [Eh]
	 Singles Energy            =      -0.0000000000000000 [Eh]
	 Same-Spin Energy          =      -0.1391309295427570 [Eh]
	 Opposite-Spin Energy      =      -0.4392534527312010 [Eh]
	 Correlation Energy        =      -0.5783843822739579 [Eh]
	 Total Energy              =    -314.4219099929881622 [Eh]

	 ================> DF-SCS-MP2 Energies <==================
	-----------------------------------------------------------
	 SCS Same-Spin Scale       =       0.3333333333333333 [-]
	 SCS Opposite-Spin Scale   =       1.2000000000000000 [-]
	 SCS Same-Spin Energy      =      -0.0463769765142523 [Eh]
	 SCS Opposite-Spin Energy  =      -0.5271041432774412 [Eh]
	 SCS Correlation Energy    =      -0.5734811197916935 [Eh]
	 SCS Total Energy          =    -314.4170067305058751 [Eh]
	-----------------------------------------------------------

*** Psi4 exiting successfully. Buy a developer a beer!
