                               Psi4 1.8.2 release

  ==> Input File <==

--------------------------------------------------------------------------
MEMORY 60 GB

molecule dimer {
1 1
Na     0.000000     0.000000     0.000000
--
0 1
O      2.235038     0.000000     0.000000
H      2.823996     0.759416     0.000000
H      2.823996    -0.759416     0.000000
--
0 1
O     -2.235038     0.000000     0.000000
H     -2.823996    -0.759416     0.000000
H     -2.823996     0.759416     0.000000

units ang
no_reorient
no_com
symmetry c1
}

set {
basis        aug-cc-pVTZ
scf_type     df
}

energy("mp2", bsse_type="cp")
--------------------------------------------------------------------------

                               Psi4 1.8.2 release
    Molecular point group: c1
  Charge       = 1
  Multiplicity = 1
  Basis Set: AUG-CC-PVTZ
    Blend: AUG-CC-PVTZ
  Basis Set: (AUG-CC-PVTZ AUX)
    Blend: AUG-CC-PVTZ-JKFIT + DEF2-UNIVERSAL-JKFIT
  @DF-RHF Final Energy:  -161.67605806000734
    Total Energy =                       -161.6760580600073354
 Dipole X            :         -0.0000000            0.0000000           -0.0000000
 Dipole Y            :          0.0000000            0.0000000            0.0000000
 Dipole Z            :          0.0000000            0.0000000            0.0000000
 Magnitude           :                                                    0.0000000
  Basis Set: (AUG-CC-PVTZ AUX)
    Blend: AUG-CC-PVTZ-RI + DEF2-QZVPP-RI
	 Reference Energy          =    -161.6760580600073354 [Eh]
	 Singles Energy            =      -0.0000000000000000 [Eh]
	 Same-Spin Energy          =      -0.0037551181722240 [Eh]
	 Opposite-Spin Energy      =      -0.0130349834642514 [Eh]
	 Correlation Energy        =      -0.0167901016364754 [Eh]
	 Total Energy              =    -161.6928481616438091 [Eh]
	 SCS Total Energy          =    -161.6929517462218371 [Eh]
                               Psi4 1.8.2 release
    Molecular point group: c1
  Basis Set: AUG-CC-PVTZ
    Blend: AUG-CC-PVTZ
  Basis Set: (AUG-CC-PVTZ AUX)
    Blend: AUG-CC-PVTZ-JKFIT + DEF2-UNIVERSAL-JKFIT
  @DF-RHF Final Energy:   -76.06041039659581
    Total Energy =                        -76.0604103965958132
  Basis Set: (AUG-CC-PVTZ AUX)
                               Psi4 1.8.2 release
  @DF-RHF Final Energy:  -152.11906168695688
    Total Energy =                       -152.1190616869568544
                               Psi4 1.8.2 release
  @DF-RHF Final Energy:  -237.77485294525468
    Total Energy =                       -237.7748529452546791
                               Psi4 1.8.2 release
  @DF-RHF Final Energy:  -237.77485294527011
    Total Energy =                       -237.7748529452701121
                               Psi4 1.8.2 release
  Multiplicity = 1
  @DF-RHF Final Energy:   -76.06041039658575
    Total Energy =                        -76.0604103965857377
	 Singles Energy            =      -0.0000000000000000 [Eh]
	 Same-Spin Energy          =      -0.0684491950827784 [Eh]
	 Opposite-Spin Energy      =      -0.2158160961735257 [Eh]
	 Correlation Energy        =      -0.2842652912563041 [Eh]
	 Total Energy              =     -76.3446756878420558 [Eh]
	 SCS Total Energy          =     -76.3422061103549083 [Eh]
                               Psi4 1.8.2 release
    Molecular point group: c1

    Geometry (in Bohr), charge = 1, multiplicity = 1:

       Center              X                  Y                   Z               Mass
    ------------   -----------------  -----------------  -----------------  -----------------
         NA           0.000000000000     0.000000000000     0.000000000000    22.989769282000
         O            4.223609699991     0.000000000000     0.000000000000    15.994914619570
         H            5.336579019388     1.435088255291     0.000000000000     1.007825032230
         H            5.336579019388    -1.435088255291     0.000000000000     1.007825032230
         O           -4.223609699991     0.000000000000     0.000000000000    15.994914619570
         H           -5.336579019388    -1.435088255291     0.000000000000     1.007825032230
         H           -5.336579019388     1.435088255291     0.000000000000     1.007825032230

  Charge       = 1
  Multiplicity = 1
  Basis Set: AUG-CC-PVTZ
    Blend: AUG-CC-PVTZ
  Basis Set: (AUG-CC-PVTZ AUX)
    Blend: AUG-CC-PVTZ-JKFIT + DEF2-UNIVERSAL-JKFIT

    Orbital Energies [Eh]
    ---------------------

    Doubly Occupied:

       1A    -40.641589     2A    -20.760489     3A    -20.760489
       4A     -2.962048     5A     -1.686503     6A     -1.686428
       7A     -1.685829     8A     -1.548903     9A     -1.546904
      10A     -0.910674    11A     -0.910636    12A     -0.803831
      13A     -0.798315    14A     -0.709635    15A     -0.709588

  @DF-RHF Final Energy:  -313.86955552082071

   => Energetics <=

    Nuclear Repulsion Energy =             79.2046644956117660
    One-Electron Energy =                -589.9047206079130774
    Two-Electron Energy =                 196.8305005914806145
    Total Energy =                       -313.8695555208206542
 Dipole X            :          0.0000000           -0.0000000            0.0000000
 Dipole Y            :          0.0000000            0.0000000            0.0000000
 Dipole Z            :          0.0000000            0.0000000            0.0000000
 Magnitude           :                                                    0.0000000
  Basis Set: (AUG-CC-PVTZ AUX)
    Blend: AUG-CC-PVTZ-RI + DEF2-QZVPP-RI
	 Reference Energy          =    -313.8695555208207111 [Eh]
	 Singles Energy            =      -0.0000000000000000 [Eh]
	 Same-Spin Energy          =      -0.1398730980937573 [Eh]
	 Opposite-Spin Energy      =      -0.4411013844021454 [Eh]
	 Correlation Energy        =      -0.5809744824959027 [Eh]
	 Total Energy              =    -314.4505300033166009 [Eh]

	 ================> DF-SCS-MP2 Energies <==================
	-----------------------------------------------------------
	 SCS Same-Spin Scale       =       0.3333333333333333 [-]
	 SCS Opposite-Spin Scale   =       1.2000000000000000 [-]
	 SCS Same-Spin Energy      =      -0.0466243660312524 [Eh]
	 SCS Opposite-Spin Energy  =      -0.5293216612825745 [Eh]
	 SCS Correlation Energy    =      -0.5759460273138269 [Eh]
	 SCS Total Energy          =    -314.4455015481345299 [Eh]
	-----------------------------------------------------------

*** Psi4 exiting successfully. Buy a developer a beer!
