                               Psi4 1.8.2 release

  ==> Input File <==

--------------------------------------------------------------------------
MEMORY 60 GB

molecule dimer {
1 1
Na     0.000000     0.000000     0.000000
--
0 1
O      4.470076     0.000000     0.000000
H      5.059034     0.759416     0.000000
H      5.059034    -0.759416     0.000000
--
0 1
O     -4.470076     0.000000     0.000000
H     -5.059034    -0.759416     0.000000
H     -5.059034     0.759416     0.000000

units ang
no_reorient
no_com
symmetry c1
}

set {
basis        aug-cc-pVTZ
scf_type     df
}

energy("mp2", bsse_type="cp")
--------------------------------------------------------------------------

                               Psi4 1.8.2 release
    Molecular point group: c1
  Charge       = 1
  Multiplicity = 1
  Basis Set: AUG-CC-PVTZ
    Blend: AUG-CC-PVTZ
  Basis Set: (AUG-CC-PVTZ AUX)
    Blend: AUG-CC-PVTZ-JKFIT + DEF2-UNIVERSAL-JKFIT
  @DF-RHF Final Energy:  -161.67602826263686
    Total Energy =                       -161.6760282626368905
 Dipole X            :          0.0000000            0.0000000            0.0000000
 Dipole Y            :          0.0000000            0.0000000            0.0000000
 Dipole Z            :          0.0000000            0.0000000            0.0000000
 Magnitude           :                                                    0.0000000
  Basis Set: (AUG-CC-PVTZ AUX)
    Blend: AUG-CC-PVTZ-RI + DEF2-QZVPP-RI
	 Reference Energy          =    -161.6760282626368621 [Eh]
	 Singles Energy            =      -0.0000000000000000 [Eh]
	 Same-Spin Energy          =      -0.0019975439182036 [Eh]
	 Opposite-Spin Energy      =      -0.0080163268943294 [Eh]
	 Correlation Energy        =      -0.0100138708125330 [Eh]
	 Total Energy              =    -161.6860421334494049 [Eh]
	 SCS Total Energy          =    -161.6863137028827850 [Eh]
                               Psi4 1.8.2 release
    Molecular point group: c1
  Basis Set: AUG-CC-PVTZ
    Blend: AUG-CC-PVTZ
  Basis Set: (AUG-CC-PVTZ AUX)
    Blend: AUG-CC-PVTZ-JKFIT + DEF2-UNIVERSAL-JKFIT
  @DF-RHF Final Energy:   -76.06032862752767
    Total Energy =                        -76.0603286275276673
  Basis Set: (AUG-CC-PVTZ AUX)
                               Psi4 1.8.2 release
  @DF-RHF Final Energy:  -152.12041478863702
    Total Energy =                       -152.1204147886370208
                               Psi4 1.8.2 release
  @DF-RHF Final Energy:  -237.74768422985940
    Total Energy =                       -237.7476842298594022
                               Psi4 1.8.2 release
  @DF-RHF Final Energy:  -237.74768422984957
    Total Energy =                       -237.7476842298495683
                               Psi4 1.8.2 release
  Multiplicity = 1
  @DF-RHF Final Energy:   -76.06032862753453
    Total Energy =                        -76.0603286275345312
	 Singles Energy            =      -0.0000000000000000 [Eh]
	 Same-Spin Energy          =      -0.0684096360580143 [Eh]
	 Opposite-Spin Energy      =      -0.2154026070299604 [Eh]
	 Correlation Energy        =      -0.2838122430879747 [Eh]
	 Total Energy              =     -76.3441408706225104 [Eh]
	 SCS Total Energy          =     -76.3416149679898268 [Eh]
                               Psi4 1.8.2 release
    Molecular point group: c1

    Geometry (in Bohr), charge = 1, multiplicity = 1:

       Center              X                  Y                   Z               Mass
    ------------   -----------------  -----------------  -----------------  -----------------
         NA           0.000000000000     0.000000000000     0.000000000000    22.989769282000
         O            8.447219399982     0.000000000000     0.000000000000    15.994914619570
         H            9.560188719379     1.435088255291     0.000000000000     1.007825032230
         H            9.560188719379    -1.435088255291     0.000000000000     1.007825032230
         O           -8.447219399982     0.000000000000     0.000000000000    15.994914619570
         H           -9.560188719379    -1.435088255291     0.000000000000     1.007825032230
         H           -9.560188719379     1.435088255291     0.000000000000     1.007825032230

  Charge       = 1
  Multiplicity = 1
  Basis Set: AUG-CC-PVTZ
    Blend: AUG-CC-PVTZ
  Basis Set: (AUG-CC-PVTZ AUX)
    Blend: AUG-CC-PVTZ-JKFIT + DEF2-UNIVERSAL-JKFIT

    Orbital Energies [Eh]
    ---------------------

    Doubly Occupied:

       1A    -40.739326     2A    -20.677349     3A    -20.677348
       4A     -3.051017     5A     -1.774310     6A     -1.774276
       7A     -1.773945     8A     -1.461465     9A     -1.461464
      10A     -0.825266    11A     -0.825266    12A     -0.698571
      13A     -0.698570    14A     -0.620993    15A     -0.620990

  @DF-RHF Final Energy:  -313.81901589021140

   => Energetics <=

    Nuclear Repulsion Energy =             49.4714890201237267
    One-Electron Energy =                -531.2206929873814261
    Two-Electron Energy =                 167.9301880770462958
    Total Energy =                       -313.8190158902114035
 Dipole X            :          0.0000000           -0.0000000            0.0000000
 Dipole Y            :         -0.0000000            0.0000000           -0.0000000
 Dipole Z            :         -0.0000000            0.0000000           -0.0000000
 Magnitude           :                                                    0.0000000
  Basis Set: (AUG-CC-PVTZ AUX)
    Blend: AUG-CC-PVTZ-RI + DEF2-QZVPP-RI
	 Reference Energy          =    -313.8190158902114035 [Eh]
	 Singles Energy            =      -0.0000000000000000 [Eh]
	 Same-Spin Energy          =      -0.1385903257817568 [Eh]
	 Opposite-Spin Energy      =      -0.4379414070817009 [Eh]
	 Correlation Energy        =      -0.5765317328634577 [Eh]
	 Total Energy              =    -314.3955476230748332 [Eh]

	 ================> DF-SCS-MP2 Energies <==================
	-----------------------------------------------------------
	 SCS Same-Spin Scale       =       0.3333333333333333 [-]
	 SCS Opposite-Spin Scale   =       1.2000000000000000 [-]
	 SCS Same-Spin Energy      =      -0.0461967752605856 [Eh]
	 SCS Opposite-Spin Energy  =      -0.5255296884980410 [Eh]
	 SCS Correlation Energy    =      -0.5717264637586267 [Eh]
	 SCS Total Energy          =    -314.3907423539700403 [Eh]
	-----------------------------------------------------------

*** Psi4 exiting successfully. Buy a developer a beer!
