                               Psi4 1.8.2 release

  ==> Input File <==

--------------------------------------------------------------------------
MEMORY 60 GB

molecule dimer {
0 1
Gh(Na)     0.000000     0.000000     0.000000
O          2.235038     0.000000     0.000000
H          2.823996     0.759416     0.000000
H          2.823996    -0.759416     0.000000
Gh(O)     -2.235038     0.000000     0.000000
Gh(H)     -2.823996    -0.759416     0.000000
Gh(H)     -2.823996     0.759416     0.000000

units ang
no_reorient
no_com
symmetry c1
}

set {
basis        aug-cc-pVTZ
scf_type     df
}

energy("mp2")
--------------------------------------------------------------------------

    Molecular point group: c1

    Geometry (in Angstrom), charge = 0, multiplicity = 1:

       Center              X                  Y                   Z               Mass
    ------------   -----------------  -----------------  -----------------  -----------------
      Gh(NA)          0.000000000000     0.000000000000     0.000000000000    22.989769282000
         O            2.235038000000     0.000000000000     0.000000000000    15.994914619570
         H            2.823996000000     0.759416000000     0.000000000000     1.007825032230
         H            2.823996000000    -0.759416000000     0.000000000000     1.007825032230
      Gh(O)          -2.235038000000     0.000000000000     0.000000000000    15.994914619570
      Gh(H)          -2.823996000000    -0.759416000000     0.000000000000     1.007825032230
      Gh(H)          -2.823996000000     0.759416000000     0.000000000000     1.007825032230

  Charge       = 0
  Multiplicity = 1
  Basis Set: AUG-CC-PVTZ
    Blend: AUG-CC-PVTZ
  Basis Set: (AUG-CC-PVTZ AUX)
    Blend: AUG-CC-PVTZ-JKFIT + DEF2-UNIVERSAL-JKFIT

    Orbital Energies [Eh]
    ---------------------

    Doubly Occupied:

       1A    -20.567770     2A     -1.351633     3A     -0.715488
       4A     -0.584365     5A     -0.510018

  @DF-RHF Final Energy:   -76.06041039659569

   => Energetics <=

    Nuclear Repulsion Energy =              9.1585518737866174
    One-Electron Energy =                -122.9793760777218665
    Two-Electron Energy =                  37.7604138073395603
    Total Energy =                        -76.0604103965956853
 Dipole X            :        -43.6806233           44.4620356            0.7814123
 Dipole Y            :          0.0000000            0.0000000            0.0000000
 Dipole Z            :          0.0000000            0.0000000            0.0000000
 Magnitude           :                                                    0.7814123
  Basis Set: (AUG-CC-PVTZ AUX)
    Blend: AUG-CC-PVTZ-RI + DEF2-QZVPP-RI
	 Reference Energy          =     -76.0604103965956853 [Eh]
	 Singles Energy            =      -0.0000000000000000 [Eh]
	 Same-Spin Energy          =      -0.0684491950827574 [Eh]
	 Opposite-Spin Energy      =      -0.2158160961733928 [Eh]
	 Correlation Energy        =      -0.2842652912561501 [Eh]
	 Total Energy              =     -76.3446756878518329 [Eh]

	 ================> DF-SCS-MP2 Energies <==================
	-----------------------------------------------------------
	 SCS Same-Spin Scale       =       0.3333333333333333 [-]
	 SCS Opposite-Spin Scale   =       1.2000000000000000 [-]
	 SCS Same-Spin Energy      =      -0.0228163983609191 [Eh]
	 SCS Opposite-Spin Energy  =      -0.2589793154080713 [Eh]
	 SCS Correlation Energy    =      -0.2817957137689904 [Eh]
	 SCS Total Energy          =     -76.3422061103646712 [Eh]
	-----------------------------------------------------------

*** Psi4 exiting successfully. Buy a developer a beer!
