                               Psi4 1.9 release

  ==> Input File <==

--------------------------------------------------------------------------
MEMORY 60 GB

molecule dimer {
1 1
Na     0.000000     0.000000     0.000000
--
0 1
O      2.011534     0.000000     0.000000
H      2.600492     0.759416     0.000000
H      2.600492    -0.759416     0.000000
O     -2.011534     0.000000     0.000000
H     -2.600492    -0.759416     0.000000
H     -2.600492     0.759416     0.000000

units ang
no_reorient
no_com
symmetry c1
}

set {
basis        aug-cc-pVTZ
scf_type     df
}

energy("mp2", bsse_type="cp")
--------------------------------------------------------------------------

                               Psi4 1.9 release
    Molecular point group: c1
  Charge       = 0
  Multiplicity = 1
  Basis Set: AUG-CC-PVTZ
    Blend: AUG-CC-PVTZ
  Basis Set: (AUG-CC-PVTZ AUX)
    Blend: AUG-CC-PVTZ-JKFIT + DEF2-UNIVERSAL-JKFIT
  @DF-RHF Final Energy:  -152.11849247030887
    Total Energy =                       -152.1184924703088370
 Dipole X            :          0.0000000           -0.0000000            0.0000000
 Dipole Y            :         -0.0000000            0.0000000           -0.0000000
 Dipole Z            :          0.0000000            0.0000000            0.0000000
 Magnitude           :                                                    0.0000000
  Basis Set: (AUG-CC-PVTZ AUX)
    Blend: AUG-CC-PVTZ-RI + DEF2-QZVPP-RI
	 Reference Energy          =    -152.1184924703088654 [Eh]
	 Singles Energy            =      -0.0000000000000000 [Eh]
	 Same-Spin Energy          =      -0.1370883464252533 [Eh]
	 Opposite-Spin Energy      =      -0.4321612003496034 [Eh]
	 Correlation Energy        =      -0.5692495467748566 [Eh]
	 Total Energy              =    -152.6877420170837354 [Eh]
	 SCS Total Energy          =    -152.6827820262034834 [Eh]
                               Psi4 1.9 release
    Molecular point group: c1
  Multiplicity = 1
  Basis Set: AUG-CC-PVTZ
    Blend: AUG-CC-PVTZ
  Basis Set: (AUG-CC-PVTZ AUX)
    Blend: AUG-CC-PVTZ-JKFIT + DEF2-UNIVERSAL-JKFIT
  @DF-RHF Final Energy:  -161.67606758921147
    Total Energy =                       -161.6760675892114705
  Basis Set: (AUG-CC-PVTZ AUX)
	 Singles Energy            =      -0.0000000000000000 [Eh]
	 Same-Spin Energy          =      -0.0048689549476470 [Eh]
	 Opposite-Spin Energy      =      -0.0163576519948407 [Eh]
	 Correlation Energy        =      -0.0212266069424877 [Eh]
	 Total Energy              =    -161.6972941961539618 [Eh]
	 SCS Total Energy          =    -161.6973197565878309 [Eh]
                               Psi4 1.9 release
    Molecular point group: c1

    Geometry (in Bohr), charge = 1, multiplicity = 1:

       Center              X                  Y                   Z               Mass
    ------------   -----------------  -----------------  -----------------  -----------------
         NA           0.000000000000     0.000000000000     0.000000000000    22.989769282000
         O            3.801248352047     0.000000000000     0.000000000000    15.994914619570
         H            4.914217671444     1.435088255291     0.000000000000     1.007825032230
         H            4.914217671444    -1.435088255291     0.000000000000     1.007825032230
         O           -3.801248352047     0.000000000000     0.000000000000    15.994914619570
         H           -4.914217671444    -1.435088255291     0.000000000000     1.007825032230
         H           -4.914217671444     1.435088255291     0.000000000000     1.007825032230

  Charge       = 1
  Multiplicity = 1
  Basis Set: AUG-CC-PVTZ
    Blend: AUG-CC-PVTZ
  Basis Set: (AUG-CC-PVTZ AUX)
    Blend: AUG-CC-PVTZ-JKFIT + DEF2-UNIVERSAL-JKFIT

    Orbital Energies [Eh]
    ---------------------

    Doubly Occupied:

       1A    -40.610974     2A    -20.768384     3A    -20.768384
       4A     -2.941101     5A     -1.674367     6A     -1.664879
       7A     -1.664038     8A     -1.562245     9A     -1.554082
      10A     -0.922951    11A     -0.922771    12A     -0.822400
      13A     -0.810445    14A     -0.722715    15A     -0.722628

  @DF-RHF Final Energy:  -313.85888188066627

   => Energetics <=

    Nuclear Repulsion Energy =             85.6522760713749136
    One-Electron Energy =                -602.7575817734340262
    Two-Electron Energy =                 203.2464238213928525
    Total Energy =                       -313.8588818806662744
 Dipole X            :          0.0000000           -0.0000000            0.0000000
 Dipole Y            :         -0.0000000            0.0000000           -0.0000000
 Dipole Z            :          0.0000000            0.0000000            0.0000000
 Magnitude           :                                                    0.0000000
  Basis Set: (AUG-CC-PVTZ AUX)
    Blend: AUG-CC-PVTZ-RI + DEF2-QZVPP-RI
	 Reference Energy          =    -313.8588818806662744 [Eh]
	 Singles Energy            =      -0.0000000000000000 [Eh]
	 Same-Spin Energy          =      -0.1408951198837627 [Eh]
	 Opposite-Spin Energy      =      -0.4434083369926049 [Eh]
	 Correlation Energy        =      -0.5843034568763676 [Eh]
	 Total Energy              =    -314.4431853375426158 [Eh]

	 ================> DF-SCS-MP2 Energies <==================
	-----------------------------------------------------------
	 SCS Same-Spin Scale       =       0.3333333333333333 [-]
	 SCS Opposite-Spin Scale   =       1.2000000000000000 [-]
	 SCS Same-Spin Energy      =      -0.0469650399612542 [Eh]
	 SCS Opposite-Spin Energy  =      -0.5320900043911259 [Eh]
	 SCS Correlation Energy    =      -0.5790550443523801 [Eh]
	 SCS Total Energy          =    -314.4379369250186755 [Eh]
	-----------------------------------------------------------

*** Psi4 exiting successfully. Buy a developer a beer!
