                               Psi4 1.8.2 release

  ==> Input File <==

--------------------------------------------------------------------------
MEMORY 60 GB

molecule dimer {
1 1
Na     0.000000     0.000000     0.000000
--
0 1
O      3.352557     0.000000     0.000000
H      3.941515     0.759416     0.000000
H      3.941515    -0.759416     0.000000
--
0 1
O     -3.352557     0.000000     0.000000
H     -3.941515    -0.759416     0.000000
H     -3.941515     0.759416     0.000000

units ang
no_reorient
no_com
symmetry c1
}

set {
basis        aug-cc-pVTZ
scf_type     df
}

energy("mp2", bsse_type="cp")
--------------------------------------------------------------------------

                               Psi4 1.8.2 release
    Molecular point group: c1
  Charge       = 1
  Multiplicity = 1
  Basis Set: AUG-CC-PVTZ
    Blend: AUG-CC-PVTZ
  Basis Set: (AUG-CC-PVTZ AUX)
    Blend: AUG-CC-PVTZ-JKFIT + DEF2-UNIVERSAL-JKFIT
  @DF-RHF Final Energy:  -161.67604011056119
    Total Energy =                       -161.6760401105611891
 Dipole X            :         -0.0000000            0.0000000           -0.0000000
 Dipole Y            :          0.0000000            0.0000000            0.0000000
 Dipole Z            :          0.0000000            0.0000000            0.0000000
 Magnitude           :                                                    0.0000000
  Basis Set: (AUG-CC-PVTZ AUX)
    Blend: AUG-CC-PVTZ-RI + DEF2-QZVPP-RI
	 Reference Energy          =    -161.6760401105611891 [Eh]
	 Singles Energy            =      -0.0000000000000000 [Eh]
	 Same-Spin Energy          =      -0.0023474293123259 [Eh]
	 Opposite-Spin Energy      =      -0.0090000651301142 [Eh]
	 Correlation Energy        =      -0.0113474944424402 [Eh]
	 Total Energy              =    -161.6873876050036358 [Eh]
	 SCS Total Energy          =    -161.6876226651547768 [Eh]
                               Psi4 1.8.2 release
    Molecular point group: c1
  Basis Set: AUG-CC-PVTZ
    Blend: AUG-CC-PVTZ
  Basis Set: (AUG-CC-PVTZ AUX)
    Blend: AUG-CC-PVTZ-JKFIT + DEF2-UNIVERSAL-JKFIT
  @DF-RHF Final Energy:   -76.06033478944236
    Total Energy =                        -76.0603347894423791
  Basis Set: (AUG-CC-PVTZ AUX)
                               Psi4 1.8.2 release
  @DF-RHF Final Energy:  -152.12010974053794
    Total Energy =                       -152.1201097405379414
                               Psi4 1.8.2 release
  @DF-RHF Final Energy:  -237.75719713046885
    Total Energy =                       -237.7571971304688532
                               Psi4 1.8.2 release
  @DF-RHF Final Energy:  -237.75719713049318
    Total Energy =                       -237.7571971304931822
                               Psi4 1.8.2 release
  Multiplicity = 1
  @DF-RHF Final Energy:   -76.06033478942717
    Total Energy =                        -76.0603347894271735
	 Singles Energy            =      -0.0000000000000000 [Eh]
	 Same-Spin Energy          =      -0.0684201162804457 [Eh]
	 Opposite-Spin Energy      =      -0.2154702299770178 [Eh]
	 Correlation Energy        =      -0.2838903462574635 [Eh]
	 Total Energy              =     -76.3442251356846384 [Eh]
	 SCS Total Energy          =     -76.3417057708264082 [Eh]
                               Psi4 1.8.2 release
    Molecular point group: c1

    Geometry (in Bohr), charge = 1, multiplicity = 1:

       Center              X                  Y                   Z               Mass
    ------------   -----------------  -----------------  -----------------  -----------------
         NA           0.000000000000     0.000000000000     0.000000000000    22.989769282000
         O            6.335414549987     0.000000000000     0.000000000000    15.994914619570
         H            7.448383869384     1.435088255291     0.000000000000     1.007825032230
         H            7.448383869384    -1.435088255291     0.000000000000     1.007825032230
         O           -6.335414549987     0.000000000000     0.000000000000    15.994914619570
         H           -7.448383869384    -1.435088255291     0.000000000000     1.007825032230
         H           -7.448383869384     1.435088255291     0.000000000000     1.007825032230

  Charge       = 1
  Multiplicity = 1
  Basis Set: AUG-CC-PVTZ
    Blend: AUG-CC-PVTZ
  Basis Set: (AUG-CC-PVTZ AUX)
    Blend: AUG-CC-PVTZ-JKFIT + DEF2-UNIVERSAL-JKFIT

    Orbital Energies [Eh]
    ---------------------

    Doubly Occupied:

       1A    -40.715461     2A    -20.710674     3A    -20.710674
       4A     -3.027802     5A     -1.751448     6A     -1.751312
       7A     -1.750286     8A     -1.494597     9A     -1.494594
      10A     -0.858151    11A     -0.858150    12A     -0.735448
      13A     -0.735322    14A     -0.654831    15A     -0.654825

  @DF-RHF Final Energy:  -313.83741540083003

   => Energetics <=

    Nuclear Repulsion Energy =             59.5242318776485604
    One-Electron Energy =                -550.9161397530555178
    Two-Electron Energy =                 177.5544924745769890
    Total Energy =                       -313.8374154008299683
 Dipole X            :         -0.0000000            0.0000000           -0.0000000
 Dipole Y            :          0.0000000            0.0000000            0.0000000
 Dipole Z            :         -0.0000000            0.0000000           -0.0000000
 Magnitude           :                                                    0.0000000
  Basis Set: (AUG-CC-PVTZ AUX)
    Blend: AUG-CC-PVTZ-RI + DEF2-QZVPP-RI
	 Reference Energy          =    -313.8374154008300252 [Eh]
	 Singles Energy            =      -0.0000000000000000 [Eh]
	 Same-Spin Energy          =      -0.1388961616450376 [Eh]
	 Opposite-Spin Energy      =      -0.4386281003749021 [Eh]
	 Correlation Energy        =      -0.5775242620199397 [Eh]
	 Total Energy              =    -314.4149396628499744 [Eh]

	 ================> DF-SCS-MP2 Energies <==================
	-----------------------------------------------------------
	 SCS Same-Spin Scale       =       0.3333333333333333 [-]
	 SCS Opposite-Spin Scale   =       1.2000000000000000 [-]
	 SCS Same-Spin Energy      =      -0.0462987205483459 [Eh]
	 SCS Opposite-Spin Energy  =      -0.5263537204498825 [Eh]
	 SCS Correlation Energy    =      -0.5726524409982283 [Eh]
	 SCS Total Energy          =    -314.4100678418282655 [Eh]
	-----------------------------------------------------------

*** Psi4 exiting successfully. Buy a developer a beer!
