                               Psi4 1.8.2 release

  ==> Input File <==

--------------------------------------------------------------------------
MEMORY 60 GB

molecule dimer {
1 1
Na         0.000000     0.000000     0.000000
Gh(O)      4.470076     0.000000     0.000000
Gh(H)      5.059034     0.759416     0.000000
Gh(H)      5.059034    -0.759416     0.000000
Gh(O)     -4.470076     0.000000     0.000000
Gh(H)     -5.059034    -0.759416     0.000000
Gh(H)     -5.059034     0.759416     0.000000

units ang
no_reorient
no_com
symmetry c1
}

set {
basis        aug-cc-pVTZ
scf_type     df
}

energy("mp2")
--------------------------------------------------------------------------

    Molecular point group: c1

    Geometry (in Angstrom), charge = 1, multiplicity = 1:

       Center              X                  Y                   Z               Mass
    ------------   -----------------  -----------------  -----------------  -----------------
         NA           0.000000000000     0.000000000000     0.000000000000    22.989769282000
      Gh(O)           4.470076000000     0.000000000000     0.000000000000    15.994914619570
      Gh(H)           5.059034000000     0.759416000000     0.000000000000     1.007825032230
      Gh(H)           5.059034000000    -0.759416000000     0.000000000000     1.007825032230
      Gh(O)          -4.470076000000     0.000000000000     0.000000000000    15.994914619570
      Gh(H)          -5.059034000000    -0.759416000000     0.000000000000     1.007825032230
      Gh(H)          -5.059034000000     0.759416000000     0.000000000000     1.007825032230

  Charge       = 1
  Multiplicity = 1
  Basis Set: AUG-CC-PVTZ
    Blend: AUG-CC-PVTZ
  Basis Set: (AUG-CC-PVTZ AUX)
    Blend: AUG-CC-PVTZ-JKFIT + DEF2-UNIVERSAL-JKFIT

    Orbital Energies [Eh]
    ---------------------

    Doubly Occupied:

       1A    -40.763580     2A     -3.075256     3A     -1.798458
       4A     -1.798394     5A     -1.798392

  @DF-RHF Final Energy:  -161.67602826267094

   => Energetics <=

    Nuclear Repulsion Energy =              0.0000000000000000
    One-Electron Energy =                -224.8838957261028497
    Two-Electron Energy =                  63.2078674634319100
    Total Energy =                       -161.6760282626709397
 Dipole X            :          0.0000000            0.0000000            0.0000000
 Dipole Y            :          0.0000000            0.0000000            0.0000000
 Dipole Z            :          0.0000000            0.0000000            0.0000000
 Magnitude           :                                                    0.0000000
  Basis Set: (AUG-CC-PVTZ AUX)
    Blend: AUG-CC-PVTZ-RI + DEF2-QZVPP-RI
	 Reference Energy          =    -161.6760282626709397 [Eh]
	 Singles Energy            =      -0.0000000000000000 [Eh]
	 Same-Spin Energy          =      -0.0019975439181949 [Eh]
	 Opposite-Spin Energy      =      -0.0080163268943045 [Eh]
	 Correlation Energy        =      -0.0100138708124994 [Eh]
	 Total Energy              =    -161.6860421334834257 [Eh]

	 ================> DF-SCS-MP2 Energies <==================
	-----------------------------------------------------------
	 SCS Same-Spin Scale       =       0.3333333333333333 [-]
	 SCS Opposite-Spin Scale   =       1.2000000000000000 [-]
	 SCS Same-Spin Energy      =      -0.0006658479727316 [Eh]
	 SCS Opposite-Spin Energy  =      -0.0096195922731654 [Eh]
	 SCS Correlation Energy    =      -0.0102854402458970 [Eh]
	 SCS Total Energy          =    -161.6863137029168342 [Eh]
	-----------------------------------------------------------

*** Psi4 exiting successfully. Buy a developer a beer!
