                               Psi4 1.8.2 release

  ==> Input File <==

--------------------------------------------------------------------------
MEMORY 60 GB

molecule dimer {
1 1
Na         0.000000     0.000000     0.000000
Gh(O)      3.129053     0.000000     0.000000
Gh(H)      3.718011     0.759416     0.000000
Gh(H)      3.718011    -0.759416     0.000000
Gh(O)     -3.129053     0.000000     0.000000
Gh(H)     -3.718011    -0.759416     0.000000
Gh(H)     -3.718011     0.759416     0.000000

units ang
no_reorient
no_com
symmetry c1
}

set {
basis        aug-cc-pVTZ
scf_type     df
}

energy("mp2")
--------------------------------------------------------------------------

    Molecular point group: c1

    Geometry (in Angstrom), charge = 1, multiplicity = 1:

       Center              X                  Y                   Z               Mass
    ------------   -----------------  -----------------  -----------------  -----------------
         NA           0.000000000000     0.000000000000     0.000000000000    22.989769282000
      Gh(O)           3.129053000000     0.000000000000     0.000000000000    15.994914619570
      Gh(H)           3.718011000000     0.759416000000     0.000000000000     1.007825032230
      Gh(H)           3.718011000000    -0.759416000000     0.000000000000     1.007825032230
      Gh(O)          -3.129053000000     0.000000000000     0.000000000000    15.994914619570
      Gh(H)          -3.718011000000    -0.759416000000     0.000000000000     1.007825032230
      Gh(H)          -3.718011000000     0.759416000000     0.000000000000     1.007825032230

  Charge       = 1
  Multiplicity = 1
  Basis Set: AUG-CC-PVTZ
    Blend: AUG-CC-PVTZ
  Basis Set: (AUG-CC-PVTZ AUX)
    Blend: AUG-CC-PVTZ-JKFIT + DEF2-UNIVERSAL-JKFIT

    Orbital Energies [Eh]
    ---------------------

    Doubly Occupied:

       1A    -40.762484     2A     -3.074766     3A     -1.798159
       4A     -1.797904     5A     -1.797883

  @DF-RHF Final Energy:  -161.67604303531999

   => Energetics <=

    Nuclear Repulsion Energy =              0.0000000000000000
    One-Electron Energy =                -224.8896931988865617
    Two-Electron Energy =                  63.2136501635665695
    Total Energy =                       -161.6760430353199922
 Dipole X            :          0.0000000            0.0000000            0.0000000
 Dipole Y            :          0.0000000            0.0000000            0.0000000
 Dipole Z            :         -0.0000000            0.0000000           -0.0000000
 Magnitude           :                                                    0.0000000
  Basis Set: (AUG-CC-PVTZ AUX)
    Blend: AUG-CC-PVTZ-RI + DEF2-QZVPP-RI
	 Reference Energy          =    -161.6760430353199922 [Eh]
	 Singles Energy            =      -0.0000000000000000 [Eh]
	 Same-Spin Energy          =      -0.0025992195186789 [Eh]
	 Opposite-Spin Energy      =      -0.0097122130008775 [Eh]
	 Correlation Energy        =      -0.0123114325195564 [Eh]
	 Total Energy              =    -161.6883544678395594 [Eh]

	 ================> DF-SCS-MP2 Energies <==================
	-----------------------------------------------------------
	 SCS Same-Spin Scale       =       0.3333333333333333 [-]
	 SCS Opposite-Spin Scale   =       1.2000000000000000 [-]
	 SCS Same-Spin Energy      =      -0.0008664065062263 [Eh]
	 SCS Opposite-Spin Energy  =      -0.0116546556010530 [Eh]
	 SCS Correlation Energy    =      -0.0125210621072793 [Eh]
	 SCS Total Energy          =    -161.6885640974272746 [Eh]
	-----------------------------------------------------------

*** Psi4 exiting successfully. Buy a developer a beer!
