                               Psi4 1.9 release

  ==> Input File <==

--------------------------------------------------------------------------
MEMORY 60 GB

molecule dimer {
1 1
K          0.000000     0.000000     0.000000
O          2.398935     0.000000     0.000000
H          2.992106     0.755912     0.000000
H          2.992106    -0.755912     0.000000
O         -2.398935     0.000000     0.000000
H         -2.992106    -0.755912     0.000000
H         -2.992106     0.755912     0.000000

units ang
no_reorient
no_com
symmetry c1
}

set {
basis        aug-cc-pVTZ
scf_type     df
}

energy("mp2")
--------------------------------------------------------------------------

    Molecular point group: c1

    Geometry (in Angstrom), charge = 1, multiplicity = 1:

       Center              X                  Y                   Z               Mass
    ------------   -----------------  -----------------  -----------------  -----------------
         K            0.000000000000     0.000000000000     0.000000000000    38.963706486400
         O            2.398935000000     0.000000000000     0.000000000000    15.994914619570
         H            2.992106000000     0.755912000000     0.000000000000     1.007825032230
         H            2.992106000000    -0.755912000000     0.000000000000     1.007825032230
         O           -2.398935000000     0.000000000000     0.000000000000    15.994914619570
         H           -2.992106000000    -0.755912000000     0.000000000000     1.007825032230
         H           -2.992106000000     0.755912000000     0.000000000000     1.007825032230

  Charge       = 1
  Multiplicity = 1
  Basis Set: AUG-CC-PVTZ
    Blend: AUG-CC-PVTZ
  Basis Set: (AUG-CC-PVTZ AUX)
    Blend: AUG-CC-PVTZ-JKFIT + DEF2-UNIVERSAL-JKFIT

    Orbital Energies [Eh]
    ---------------------

    Doubly Occupied:

       1A   -133.644890     2A    -20.745165     3A    -20.745165
       4A    -14.604112     5A    -11.633965     6A    -11.633888
       7A    -11.633661     8A     -1.871037     9A     -1.538537
      10A     -1.536763    11A     -1.085412    12A     -1.081675
      13A     -1.080212    14A     -0.897348    15A     -0.896560
      16A     -0.792003    17A     -0.765842    18A     -0.697464
      19A     -0.695840

  @DF-RHF Final Energy:  -751.17887374863790

   => Energetics <=

    Nuclear Repulsion Energy =            108.9319001694124012
    One-Electron Energy =               -1245.0624705765280851
    Two-Electron Energy =                 384.9516966584779425
    Total Energy =                       -751.1788737486378977
 Dipole X            :          0.0000000            0.0000000            0.0000000
 Dipole Y            :          0.0000000            0.0000000            0.0000000
 Dipole Z            :         -0.0000000            0.0000000           -0.0000000
 Magnitude           :                                                    0.0000000
  Basis Set: (AUG-CC-PVTZ AUX)
    Blend: AUG-CC-PVTZ-RI + DEF2-QZVPP-RI
	 Reference Energy          =    -751.1788737486378977 [Eh]
	 Singles Energy            =      -0.0000000000000000 [Eh]
	 Same-Spin Energy          =      -0.1719753703591638 [Eh]
	 Opposite-Spin Energy      =      -0.5097728909363418 [Eh]
	 Correlation Energy        =      -0.6817482612955056 [Eh]
	 Total Energy              =    -751.8606220099334223 [Eh]

	 ================> DF-SCS-MP2 Energies <==================
	-----------------------------------------------------------
	 SCS Same-Spin Scale       =       0.3333333333333333 [-]
	 SCS Opposite-Spin Scale   =       1.2000000000000000 [-]
	 SCS Same-Spin Energy      =      -0.0573251234530546 [Eh]
	 SCS Opposite-Spin Energy  =      -0.6117274691236102 [Eh]
	 SCS Correlation Energy    =      -0.6690525925766648 [Eh]
	 SCS Total Energy          =    -751.8479263412145883 [Eh]
	-----------------------------------------------------------

*** Psi4 exiting successfully. Buy a developer a beer!
