                               Psi4 1.9 release

  ==> Input File <==

--------------------------------------------------------------------------
MEMORY 60 GB

molecule dimer {
1 1
K          0.000000     0.000000     0.000000
Gh(O)      2.272676     0.000000     0.000000
Gh(H)      2.865846     0.755912     0.000000
Gh(H)      2.865846    -0.755912     0.000000
Gh(O)     -2.272676     0.000000     0.000000
Gh(H)     -2.865846    -0.755912     0.000000
Gh(H)     -2.865846     0.755912     0.000000

units ang
no_reorient
no_com
symmetry c1
}

set {
basis        aug-cc-pVTZ
scf_type     df
}

energy("mp2")
--------------------------------------------------------------------------

    Molecular point group: c1

    Geometry (in Angstrom), charge = 1, multiplicity = 1:

       Center              X                  Y                   Z               Mass
    ------------   -----------------  -----------------  -----------------  -----------------
         K            0.000000000000     0.000000000000     0.000000000000    38.963706486400
      Gh(O)           2.272676000000     0.000000000000     0.000000000000    15.994914619570
      Gh(H)           2.865846000000     0.755912000000     0.000000000000     1.007825032230
      Gh(H)           2.865846000000    -0.755912000000     0.000000000000     1.007825032230
      Gh(O)          -2.272676000000     0.000000000000     0.000000000000    15.994914619570
      Gh(H)          -2.865846000000    -0.755912000000     0.000000000000     1.007825032230
      Gh(H)          -2.865846000000     0.755912000000     0.000000000000     1.007825032230

  Charge       = 1
  Multiplicity = 1
  Basis Set: AUG-CC-PVTZ
    Blend: AUG-CC-PVTZ
  Basis Set: (AUG-CC-PVTZ AUX)
    Blend: AUG-CC-PVTZ-JKFIT + DEF2-UNIVERSAL-JKFIT

    Orbital Energies [Eh]
    ---------------------

    Doubly Occupied:

       1A   -133.753176     2A    -14.708742     3A    -11.738811
       4A    -11.738806     5A    -11.738806     6A     -1.964134
       7A     -1.170868     8A     -1.170762     9A     -1.170738

  @DF-RHF Final Energy:  -599.01751198499574

   => Energetics <=

    Nuclear Repulsion Energy =              0.0000000000000000
    One-Electron Energy =                -819.7253396557915721
    Two-Electron Energy =                 220.7078276707958935
    Total Energy =                       -599.0175119849957355
 Dipole X            :          0.0000000            0.0000000            0.0000000
 Dipole Y            :         -0.0000000            0.0000000           -0.0000000
 Dipole Z            :          0.0000000            0.0000000            0.0000000
 Magnitude           :                                                    0.0000000
  Basis Set: (AUG-CC-PVTZ AUX)
    Blend: AUG-CC-PVTZ-RI + DEF2-QZVPP-RI
	 Reference Energy          =    -599.0175119849957355 [Eh]
	 Singles Energy            =      -0.0000000000000000 [Eh]
	 Same-Spin Energy          =      -0.0335381155240926 [Eh]
	 Opposite-Spin Energy      =      -0.0817158512076388 [Eh]
	 Correlation Energy        =      -0.1152539667317315 [Eh]
	 Total Energy              =    -599.1327659517274924 [Eh]

	 ================> DF-SCS-MP2 Energies <==================
	-----------------------------------------------------------
	 SCS Same-Spin Scale       =       0.3333333333333333 [-]
	 SCS Opposite-Spin Scale   =       1.2000000000000000 [-]
	 SCS Same-Spin Energy      =      -0.0111793718413642 [Eh]
	 SCS Opposite-Spin Energy  =      -0.0980590214491666 [Eh]
	 SCS Correlation Energy    =      -0.1092383932905308 [Eh]
	 SCS Total Energy          =    -599.1267503782862605 [Eh]
	-----------------------------------------------------------

*** Psi4 exiting successfully. Buy a developer a beer!
