                               Psi4 1.9 release

  ==> Input File <==

--------------------------------------------------------------------------
MEMORY 60 GB

molecule dimer {
0 1
Gh(K)      0.000000     0.000000     0.000000
Gh(O)      3.787793     0.000000     0.000000
Gh(H)      4.380964     0.755912     0.000000
Gh(H)      4.380964    -0.755912     0.000000
O         -3.787793     0.000000     0.000000
H         -4.380964    -0.755912     0.000000
H         -4.380964     0.755912     0.000000

units ang
no_reorient
no_com
symmetry c1
}

set {
basis        aug-cc-pVTZ
scf_type     df
}

energy("mp2")
--------------------------------------------------------------------------

    Molecular point group: c1

    Geometry (in Angstrom), charge = 0, multiplicity = 1:

       Center              X                  Y                   Z               Mass
    ------------   -----------------  -----------------  -----------------  -----------------
      Gh(K)           0.000000000000     0.000000000000     0.000000000000    38.963706486400
      Gh(O)           3.787793000000     0.000000000000     0.000000000000    15.994914619570
      Gh(H)           4.380964000000     0.755912000000     0.000000000000     1.007825032230
      Gh(H)           4.380964000000    -0.755912000000     0.000000000000     1.007825032230
         O           -3.787793000000     0.000000000000     0.000000000000    15.994914619570
         H           -4.380964000000    -0.755912000000     0.000000000000     1.007825032230
         H           -4.380964000000     0.755912000000     0.000000000000     1.007825032230

  Charge       = 0
  Multiplicity = 1
  Basis Set: AUG-CC-PVTZ
    Blend: AUG-CC-PVTZ
  Basis Set: (AUG-CC-PVTZ AUX)
    Blend: AUG-CC-PVTZ-JKFIT + DEF2-UNIVERSAL-JKFIT

    Orbital Energies [Eh]
    ---------------------

    Doubly Occupied:

       1A    -20.568187     2A     -1.352293     3A     -0.714404
       4A     -0.585740     5A     -0.510290

  @DF-RHF Final Energy:   -76.06029161089845

   => Energetics <=

    Nuclear Repulsion Energy =              9.1617384230614558
    One-Electron Energy =                -122.9822281470814858
    Two-Electron Energy =                  37.7601981131215894
    Total Energy =                        -76.0602916108984459
 Dipole X            :         73.0342012          -73.8207754           -0.7865742
 Dipole Y            :         -0.0000000            0.0000000           -0.0000000
 Dipole Z            :          0.0000000            0.0000000            0.0000000
 Magnitude           :                                                    0.7865742
  Basis Set: (AUG-CC-PVTZ AUX)
    Blend: AUG-CC-PVTZ-RI + DEF2-QZVPP-RI
	 Reference Energy          =     -76.0602916108984459 [Eh]
	 Singles Energy            =      -0.0000000000000000 [Eh]
	 Same-Spin Energy          =      -0.0684258546947810 [Eh]
	 Opposite-Spin Energy      =      -0.2154634511808085 [Eh]
	 Correlation Energy        =      -0.2838893058755895 [Eh]
	 Total Energy              =     -76.3441809167740359 [Eh]

	 ================> DF-SCS-MP2 Energies <==================
	-----------------------------------------------------------
	 SCS Same-Spin Scale       =       0.3333333333333333 [-]
	 SCS Opposite-Spin Scale   =       1.2000000000000000 [-]
	 SCS Same-Spin Energy      =      -0.0228086182315937 [Eh]
	 SCS Opposite-Spin Energy  =      -0.2585561414169702 [Eh]
	 SCS Correlation Energy    =      -0.2813647596485639 [Eh]
	 SCS Total Energy          =     -76.3416563705470139 [Eh]
	-----------------------------------------------------------

*** Psi4 exiting successfully. Buy a developer a beer!
