                               Psi4 1.9 release

  ==> Input File <==

--------------------------------------------------------------------------
MEMORY 60 GB

molecule dimer {
1 1
K      0.000000     0.000000     0.000000
--
0 1
O      3.535273     0.000000     0.000000
H      4.128444     0.755912     0.000000
H      4.128444    -0.755912     0.000000
--
0 1
O     -3.535273     0.000000     0.000000
H     -4.128444    -0.755912     0.000000
H     -4.128444     0.755912     0.000000

units ang
no_reorient
no_com
symmetry c1
}

set {
basis        aug-cc-pVTZ
scf_type     df
}

energy("mp2", bsse_type="cp")
--------------------------------------------------------------------------

                               Psi4 1.9 release
    Molecular point group: c1
  Charge       = 1
  Multiplicity = 1
  Basis Set: AUG-CC-PVTZ
    Blend: AUG-CC-PVTZ
  Basis Set: (AUG-CC-PVTZ AUX)
    Blend: AUG-CC-PVTZ-JKFIT + DEF2-UNIVERSAL-JKFIT
  @DF-RHF Final Energy:  -599.01750866929706
    Total Energy =                       -599.0175086692969444
 Dipole X            :         -0.0000000            0.0000000           -0.0000000
 Dipole Y            :          0.0000000            0.0000000            0.0000000
 Dipole Z            :          0.0000000            0.0000000            0.0000000
 Magnitude           :                                                    0.0000000
  Basis Set: (AUG-CC-PVTZ AUX)
    Blend: AUG-CC-PVTZ-RI + DEF2-QZVPP-RI
	 Reference Energy          =    -599.0175086692970581 [Eh]
	 Singles Energy            =      -0.0000000000000000 [Eh]
	 Same-Spin Energy          =      -0.0267906654515518 [Eh]
	 Opposite-Spin Energy      =      -0.0620601711916742 [Eh]
	 Correlation Energy        =      -0.0888508366432259 [Eh]
	 Total Energy              =    -599.1063595059403042 [Eh]
	 SCS Total Energy          =    -599.1009110965442233 [Eh]
                               Psi4 1.9 release
    Molecular point group: c1
  Basis Set: AUG-CC-PVTZ
    Blend: AUG-CC-PVTZ
  Basis Set: (AUG-CC-PVTZ AUX)
    Blend: AUG-CC-PVTZ-JKFIT + DEF2-UNIVERSAL-JKFIT
  @DF-RHF Final Energy:   -76.06029378705442
    Total Energy =                        -76.0602937870544196
  Basis Set: (AUG-CC-PVTZ AUX)
                               Psi4 1.9 release
  @DF-RHF Final Energy:  -152.12010587644414
    Total Energy =                       -152.1201058764441711
                               Psi4 1.9 release
  @DF-RHF Final Energy:  -675.09624200656447
    Total Energy =                       -675.0962420065645802
                               Psi4 1.9 release
  @DF-RHF Final Energy:  -675.09624200656594
    Total Energy =                       -675.0962420065659444
                               Psi4 1.9 release
  Multiplicity = 1
  @DF-RHF Final Energy:   -76.06029378705389
    Total Energy =                        -76.0602937870538938
	 Singles Energy            =      -0.0000000000000000 [Eh]
	 Same-Spin Energy          =      -0.0684289173774953 [Eh]
	 Opposite-Spin Energy      =      -0.2154867039947599 [Eh]
	 Correlation Energy        =      -0.2839156213722552 [Eh]
	 Total Energy              =     -76.3442094084261527 [Eh]
	 SCS Total Energy          =     -76.3416874709734401 [Eh]
                               Psi4 1.9 release
    Molecular point group: c1

    Geometry (in Bohr), charge = 1, multiplicity = 1:

       Center              X                  Y                   Z               Mass
    ------------   -----------------  -----------------  -----------------  -----------------
         K            0.000000000000     0.000000000000     0.000000000000    38.963706486400
         O            6.680697748726     0.000000000000     0.000000000000    15.994914619570
         H            7.801628484290     1.428466654947     0.000000000000     1.007825032230
         H            7.801628484290    -1.428466654947     0.000000000000     1.007825032230
         O           -6.680697748726     0.000000000000     0.000000000000    15.994914619570
         H           -7.801628484290    -1.428466654947     0.000000000000     1.007825032230
         H           -7.801628484290     1.428466654947     0.000000000000     1.007825032230

  Charge       = 1
  Multiplicity = 1
  Basis Set: AUG-CC-PVTZ
    Blend: AUG-CC-PVTZ
  Basis Set: (AUG-CC-PVTZ AUX)
    Blend: AUG-CC-PVTZ-JKFIT + DEF2-UNIVERSAL-JKFIT

    Orbital Energies [Eh]
    ---------------------

    Doubly Occupied:

       1A   -133.711803     2A    -20.703670     3A    -20.703670
       4A    -14.667412     5A    -11.697508     6A    -11.697497
       7A    -11.697387     8A     -1.923007     9A     -1.488162
      10A     -1.488157    11A     -1.130840    12A     -1.130554
      13A     -1.127695    14A     -0.850041    15A     -0.850038
      16A     -0.729137    17A     -0.728743    18A     -0.647861
      19A     -0.647851

  @DF-RHF Final Energy:  -751.17406190486861

   => Energetics <=

    Nuclear Repulsion Energy =             80.6530615908580444
    One-Electron Energy =               -1188.4121710940928551
    Two-Electron Energy =                 356.5850475983662022
    Total Energy =                       -751.1740619048687222
 Dipole X            :          0.0000000            0.0000000            0.0000000
 Dipole Y            :          0.0000000            0.0000000            0.0000000
 Dipole Z            :          0.0000000            0.0000000            0.0000000
 Magnitude           :                                                    0.0000000
  Basis Set: (AUG-CC-PVTZ AUX)
    Blend: AUG-CC-PVTZ-RI + DEF2-QZVPP-RI
	 Reference Energy          =    -751.1740619048686085 [Eh]
	 Singles Energy            =      -0.0000000000000000 [Eh]
	 Same-Spin Energy          =      -0.1637433959572217 [Eh]
	 Opposite-Spin Energy      =      -0.4921918749312624 [Eh]
	 Correlation Energy        =      -0.6559352708884841 [Eh]
	 Total Energy              =    -751.8299971757570574 [Eh]

	 ================> DF-SCS-MP2 Energies <==================
	-----------------------------------------------------------
	 SCS Same-Spin Scale       =       0.3333333333333333 [-]
	 SCS Opposite-Spin Scale   =       1.2000000000000000 [-]
	 SCS Same-Spin Energy      =      -0.0545811319857406 [Eh]
	 SCS Opposite-Spin Energy  =      -0.5906302499175149 [Eh]
	 SCS Correlation Energy    =      -0.6452113819032554 [Eh]
	 SCS Total Energy          =    -751.8192732867718178 [Eh]
	-----------------------------------------------------------

*** Psi4 exiting successfully. Buy a developer a beer!
