                               Psi4 1.9 release

  ==> Input File <==

--------------------------------------------------------------------------
MEMORY 60 GB

molecule dimer {
1 1
K          0.000000     0.000000     0.000000
O          3.535273     0.000000     0.000000
H          4.128444     0.755912     0.000000
H          4.128444    -0.755912     0.000000
O         -3.535273     0.000000     0.000000
H         -4.128444    -0.755912     0.000000
H         -4.128444     0.755912     0.000000

units ang
no_reorient
no_com
symmetry c1
}

set {
basis        aug-cc-pVTZ
scf_type     df
}

energy("mp2")
--------------------------------------------------------------------------

    Molecular point group: c1

    Geometry (in Angstrom), charge = 1, multiplicity = 1:

       Center              X                  Y                   Z               Mass
    ------------   -----------------  -----------------  -----------------  -----------------
         K            0.000000000000     0.000000000000     0.000000000000    38.963706486400
         O            3.535273000000     0.000000000000     0.000000000000    15.994914619570
         H            4.128444000000     0.755912000000     0.000000000000     1.007825032230
         H            4.128444000000    -0.755912000000     0.000000000000     1.007825032230
         O           -3.535273000000     0.000000000000     0.000000000000    15.994914619570
         H           -4.128444000000    -0.755912000000     0.000000000000     1.007825032230
         H           -4.128444000000     0.755912000000     0.000000000000     1.007825032230

  Charge       = 1
  Multiplicity = 1
  Basis Set: AUG-CC-PVTZ
    Blend: AUG-CC-PVTZ
  Basis Set: (AUG-CC-PVTZ AUX)
    Blend: AUG-CC-PVTZ-JKFIT + DEF2-UNIVERSAL-JKFIT

    Orbital Energies [Eh]
    ---------------------

    Doubly Occupied:

       1A   -133.711803     2A    -20.703670     3A    -20.703670
       4A    -14.667412     5A    -11.697508     6A    -11.697497
       7A    -11.697387     8A     -1.923007     9A     -1.488162
      10A     -1.488157    11A     -1.130840    12A     -1.130554
      13A     -1.127695    14A     -0.850041    15A     -0.850038
      16A     -0.729137    17A     -0.728743    18A     -0.647861
      19A     -0.647851

  @DF-RHF Final Energy:  -751.17406190486849

   => Energetics <=

    Nuclear Repulsion Energy =             80.6530615908580444
    One-Electron Energy =               -1188.4121710935351075
    Two-Electron Energy =                 356.5850475978086251
    Total Energy =                       -751.1740619048684948
 Dipole X            :          0.0000000            0.0000000            0.0000000
 Dipole Y            :          0.0000000            0.0000000            0.0000000
 Dipole Z            :          0.0000000            0.0000000            0.0000000
 Magnitude           :                                                    0.0000000
  Basis Set: (AUG-CC-PVTZ AUX)
    Blend: AUG-CC-PVTZ-RI + DEF2-QZVPP-RI
	 Reference Energy          =    -751.1740619048684948 [Eh]
	 Singles Energy            =      -0.0000000000000000 [Eh]
	 Same-Spin Energy          =      -0.1637433959569604 [Eh]
	 Opposite-Spin Energy      =      -0.4921918749306881 [Eh]
	 Correlation Energy        =      -0.6559352708876485 [Eh]
	 Total Energy              =    -751.8299971757561480 [Eh]

	 ================> DF-SCS-MP2 Energies <==================
	-----------------------------------------------------------
	 SCS Same-Spin Scale       =       0.3333333333333333 [-]
	 SCS Opposite-Spin Scale   =       1.2000000000000000 [-]
	 SCS Same-Spin Energy      =      -0.0545811319856535 [Eh]
	 SCS Opposite-Spin Energy  =      -0.5906302499168257 [Eh]
	 SCS Correlation Energy    =      -0.6452113819024792 [Eh]
	 SCS Total Energy          =    -751.8192732867710220 [Eh]
	-----------------------------------------------------------

*** Psi4 exiting successfully. Buy a developer a beer!
