                               Psi4 1.9 release

  ==> Input File <==

--------------------------------------------------------------------------
MEMORY 60 GB

molecule dimer {
1 1
K          0.000000     0.000000     0.000000
Gh(O)      3.282754     0.000000     0.000000
Gh(H)      3.875924     0.755912     0.000000
Gh(H)      3.875924    -0.755912     0.000000
Gh(O)     -3.282754     0.000000     0.000000
Gh(H)     -3.875924    -0.755912     0.000000
Gh(H)     -3.875924     0.755912     0.000000

units ang
no_reorient
no_com
symmetry c1
}

set {
basis        aug-cc-pVTZ
scf_type     df
}

energy("mp2")
--------------------------------------------------------------------------

    Molecular point group: c1

    Geometry (in Angstrom), charge = 1, multiplicity = 1:

       Center              X                  Y                   Z               Mass
    ------------   -----------------  -----------------  -----------------  -----------------
         K            0.000000000000     0.000000000000     0.000000000000    38.963706486400
      Gh(O)           3.282754000000     0.000000000000     0.000000000000    15.994914619570
      Gh(H)           3.875924000000     0.755912000000     0.000000000000     1.007825032230
      Gh(H)           3.875924000000    -0.755912000000     0.000000000000     1.007825032230
      Gh(O)          -3.282754000000     0.000000000000     0.000000000000    15.994914619570
      Gh(H)          -3.875924000000    -0.755912000000     0.000000000000     1.007825032230
      Gh(H)          -3.875924000000     0.755912000000     0.000000000000     1.007825032230

  Charge       = 1
  Multiplicity = 1
  Basis Set: AUG-CC-PVTZ
    Blend: AUG-CC-PVTZ
  Basis Set: (AUG-CC-PVTZ AUX)
    Blend: AUG-CC-PVTZ-JKFIT + DEF2-UNIVERSAL-JKFIT

    Orbital Energies [Eh]
    ---------------------

    Doubly Occupied:

       1A   -133.753539     2A    -14.709030     3A    -11.739093
       4A    -11.739088     5A    -11.739088     6A     -1.964286
       7A     -1.170934     8A     -1.170855     9A     -1.170852

  @DF-RHF Final Energy:  -599.01750896226872

   => Energetics <=

    Nuclear Repulsion Energy =              0.0000000000000000
    One-Electron Energy =                -819.7214881453691078
    Two-Electron Energy =                 220.7039791831003868
    Total Energy =                       -599.0175089622687210
 Dipole X            :          0.0000000            0.0000000            0.0000000
 Dipole Y            :         -0.0000000            0.0000000           -0.0000000
 Dipole Z            :         -0.0000000            0.0000000           -0.0000000
 Magnitude           :                                                    0.0000000
  Basis Set: (AUG-CC-PVTZ AUX)
    Blend: AUG-CC-PVTZ-RI + DEF2-QZVPP-RI
	 Reference Energy          =    -599.0175089622687210 [Eh]
	 Singles Energy            =      -0.0000000000000000 [Eh]
	 Same-Spin Energy          =      -0.0273639911977543 [Eh]
	 Opposite-Spin Energy      =      -0.0635556192038084 [Eh]
	 Correlation Energy        =      -0.0909196104015627 [Eh]
	 Total Energy              =    -599.1084285726702774 [Eh]

	 ================> DF-SCS-MP2 Energies <==================
	-----------------------------------------------------------
	 SCS Same-Spin Scale       =       0.3333333333333333 [-]
	 SCS Opposite-Spin Scale   =       1.2000000000000000 [-]
	 SCS Same-Spin Energy      =      -0.0091213303992514 [Eh]
	 SCS Opposite-Spin Energy  =      -0.0762667430445701 [Eh]
	 SCS Correlation Energy    =      -0.0853880734438215 [Eh]
	 SCS Total Energy          =    -599.1028970357125445 [Eh]
	-----------------------------------------------------------

*** Psi4 exiting successfully. Buy a developer a beer!
