                               Psi4 1.9 release

  ==> Input File <==

--------------------------------------------------------------------------
MEMORY 60 GB

molecule dimer {
1 1
K          0.000000     0.000000     0.000000
O          3.787793     0.000000     0.000000
H          4.380964     0.755912     0.000000
H          4.380964    -0.755912     0.000000
O         -3.787793     0.000000     0.000000
H         -4.380964    -0.755912     0.000000
H         -4.380964     0.755912     0.000000

units ang
no_reorient
no_com
symmetry c1
}

set {
basis        aug-cc-pVTZ
scf_type     df
}

energy("mp2")
--------------------------------------------------------------------------

    Molecular point group: c1

    Geometry (in Angstrom), charge = 1, multiplicity = 1:

       Center              X                  Y                   Z               Mass
    ------------   -----------------  -----------------  -----------------  -----------------
         K            0.000000000000     0.000000000000     0.000000000000    38.963706486400
         O            3.787793000000     0.000000000000     0.000000000000    15.994914619570
         H            4.380964000000     0.755912000000     0.000000000000     1.007825032230
         H            4.380964000000    -0.755912000000     0.000000000000     1.007825032230
         O           -3.787793000000     0.000000000000     0.000000000000    15.994914619570
         H           -4.380964000000    -0.755912000000     0.000000000000     1.007825032230
         H           -4.380964000000     0.755912000000     0.000000000000     1.007825032230

  Charge       = 1
  Multiplicity = 1
  Basis Set: AUG-CC-PVTZ
    Blend: AUG-CC-PVTZ
  Basis Set: (AUG-CC-PVTZ AUX)
    Blend: AUG-CC-PVTZ-JKFIT + DEF2-UNIVERSAL-JKFIT

    Orbital Energies [Eh]
    ---------------------

    Doubly Occupied:

       1A   -133.718135     2A    -20.695569     3A    -20.695568
       4A    -14.673663     5A    -11.703754     6A    -11.703747
       7A    -11.703664     8A     -1.929046     9A     -1.480003
      10A     -1.480002    11A     -1.136567    12A     -1.136358
      13A     -1.134121    14A     -0.841966    15A     -0.841966
      16A     -0.719839    17A     -0.719686    18A     -0.639545
      19A     -0.639544

  @DF-RHF Final Energy:  -751.16947602043160

   => Energetics <=

    Nuclear Repulsion Energy =             76.6150324807536691
    One-Electron Energy =               -1180.3835227735271474
    Two-Electron Energy =                 352.5990142723420604
    Total Energy =                       -751.1694760204314889
 Dipole X            :          0.0000000           -0.0000000            0.0000000
 Dipole Y            :          0.0000000            0.0000000            0.0000000
 Dipole Z            :         -0.0000000            0.0000000           -0.0000000
 Magnitude           :                                                    0.0000000
  Basis Set: (AUG-CC-PVTZ AUX)
    Blend: AUG-CC-PVTZ-RI + DEF2-QZVPP-RI
	 Reference Energy          =    -751.1694760204316026 [Eh]
	 Singles Energy            =      -0.0000000000000000 [Eh]
	 Same-Spin Energy          =      -0.1632845889016301 [Eh]
	 Opposite-Spin Energy      =      -0.4912711847316213 [Eh]
	 Correlation Energy        =      -0.6545557736332515 [Eh]
	 Total Energy              =    -751.8240317940648083 [Eh]

	 ================> DF-SCS-MP2 Energies <==================
	-----------------------------------------------------------
	 SCS Same-Spin Scale       =       0.3333333333333333 [-]
	 SCS Opposite-Spin Scale   =       1.2000000000000000 [-]
	 SCS Same-Spin Energy      =      -0.0544281963005434 [Eh]
	 SCS Opposite-Spin Energy  =      -0.5895254216779456 [Eh]
	 SCS Correlation Energy    =      -0.6439536179784890 [Eh]
	 SCS Total Energy          =    -751.8134296384100708 [Eh]
	-----------------------------------------------------------

*** Psi4 exiting successfully. Buy a developer a beer!
