                               Psi4 1.9 release

  ==> Input File <==

--------------------------------------------------------------------------
MEMORY 60 GB

molecule dimer {
1 1
K          0.000000     0.000000     0.000000
Gh(O)      3.787793     0.000000     0.000000
Gh(H)      4.380964     0.755912     0.000000
Gh(H)      4.380964    -0.755912     0.000000
Gh(O)     -3.787793     0.000000     0.000000
Gh(H)     -4.380964    -0.755912     0.000000
Gh(H)     -4.380964     0.755912     0.000000

units ang
no_reorient
no_com
symmetry c1
}

set {
basis        aug-cc-pVTZ
scf_type     df
}

energy("mp2")
--------------------------------------------------------------------------

    Molecular point group: c1

    Geometry (in Angstrom), charge = 1, multiplicity = 1:

       Center              X                  Y                   Z               Mass
    ------------   -----------------  -----------------  -----------------  -----------------
         K            0.000000000000     0.000000000000     0.000000000000    38.963706486400
      Gh(O)           3.787793000000     0.000000000000     0.000000000000    15.994914619570
      Gh(H)           4.380964000000     0.755912000000     0.000000000000     1.007825032230
      Gh(H)           4.380964000000    -0.755912000000     0.000000000000     1.007825032230
      Gh(O)          -3.787793000000     0.000000000000     0.000000000000    15.994914619570
      Gh(H)          -4.380964000000    -0.755912000000     0.000000000000     1.007825032230
      Gh(H)          -4.380964000000     0.755912000000     0.000000000000     1.007825032230

  Charge       = 1
  Multiplicity = 1
  Basis Set: AUG-CC-PVTZ
    Blend: AUG-CC-PVTZ
  Basis Set: (AUG-CC-PVTZ AUX)
    Blend: AUG-CC-PVTZ-JKFIT + DEF2-UNIVERSAL-JKFIT

    Orbital Energies [Eh]
    ---------------------

    Doubly Occupied:

       1A   -133.753680     2A    -14.709135     3A    -11.739202
       4A    -11.739197     5A    -11.739197     6A     -1.964329
       7A     -1.170960     8A     -1.170896     9A     -1.170894

  @DF-RHF Final Energy:  -599.01750841020134

   => Energetics <=

    Nuclear Repulsion Energy =              0.0000000000000000
    One-Electron Energy =                -819.7200386343728269
    Two-Electron Energy =                 220.7025302241714826
    Total Energy =                       -599.0175084102013443
 Dipole X            :          0.0000000            0.0000000            0.0000000
 Dipole Y            :          0.0000000            0.0000000            0.0000000
 Dipole Z            :         -0.0000000            0.0000000           -0.0000000
 Magnitude           :                                                    0.0000000
  Basis Set: (AUG-CC-PVTZ AUX)
    Blend: AUG-CC-PVTZ-RI + DEF2-QZVPP-RI
	 Reference Energy          =    -599.0175084102013443 [Eh]
	 Singles Energy            =      -0.0000000000000000 [Eh]
	 Same-Spin Energy          =      -0.0264447874030159 [Eh]
	 Opposite-Spin Energy      =      -0.0611905610970353 [Eh]
	 Correlation Energy        =      -0.0876353485000513 [Eh]
	 Total Energy              =    -599.1051437587013879 [Eh]

	 ================> DF-SCS-MP2 Energies <==================
	-----------------------------------------------------------
	 SCS Same-Spin Scale       =       0.3333333333333333 [-]
	 SCS Opposite-Spin Scale   =       1.2000000000000000 [-]
	 SCS Same-Spin Energy      =      -0.0088149291343386 [Eh]
	 SCS Opposite-Spin Energy  =      -0.0734286733164424 [Eh]
	 SCS Correlation Energy    =      -0.0822436024507811 [Eh]
	 SCS Total Energy          =    -599.0997520126521749 [Eh]
	-----------------------------------------------------------

*** Psi4 exiting successfully. Buy a developer a beer!
