                               Psi4 1.9 release

  ==> Input File <==

--------------------------------------------------------------------------
MEMORY 60 GB

molecule dimer {
1 1
K          0.000000     0.000000     0.000000
Gh(O)      5.050390     0.000000     0.000000
Gh(H)      5.643561     0.755912     0.000000
Gh(H)      5.643561    -0.755912     0.000000
Gh(O)     -5.050390     0.000000     0.000000
Gh(H)     -5.643561    -0.755912     0.000000
Gh(H)     -5.643561     0.755912     0.000000

units ang
no_reorient
no_com
symmetry c1
}

set {
basis        aug-cc-pVTZ
scf_type     df
}

energy("mp2")
--------------------------------------------------------------------------

    Molecular point group: c1

    Geometry (in Angstrom), charge = 1, multiplicity = 1:

       Center              X                  Y                   Z               Mass
    ------------   -----------------  -----------------  -----------------  -----------------
         K            0.000000000000     0.000000000000     0.000000000000    38.963706486400
      Gh(O)           5.050390000000     0.000000000000     0.000000000000    15.994914619570
      Gh(H)           5.643561000000     0.755912000000     0.000000000000     1.007825032230
      Gh(H)           5.643561000000    -0.755912000000     0.000000000000     1.007825032230
      Gh(O)          -5.050390000000     0.000000000000     0.000000000000    15.994914619570
      Gh(H)          -5.643561000000    -0.755912000000     0.000000000000     1.007825032230
      Gh(H)          -5.643561000000     0.755912000000     0.000000000000     1.007825032230

  Charge       = 1
  Multiplicity = 1
  Basis Set: AUG-CC-PVTZ
    Blend: AUG-CC-PVTZ
  Basis Set: (AUG-CC-PVTZ AUX)
    Blend: AUG-CC-PVTZ-JKFIT + DEF2-UNIVERSAL-JKFIT

    Orbital Energies [Eh]
    ---------------------

    Doubly Occupied:

       1A   -133.753911     2A    -14.709332     3A    -11.739396
       4A    -11.739392     5A    -11.739392     6A     -1.964427
       7A     -1.171005     8A     -1.170988     9A     -1.170987

  @DF-RHF Final Energy:  -599.01750641928402

   => Energetics <=

    Nuclear Repulsion Energy =              0.0000000000000000
    One-Electron Energy =                -819.7173491976433297
    Two-Electron Energy =                 220.6998427783593399
    Total Energy =                       -599.0175064192840182
 Dipole X            :          0.0000000            0.0000000            0.0000000
 Dipole Y            :          0.0000000            0.0000000            0.0000000
 Dipole Z            :          0.0000000            0.0000000            0.0000000
 Magnitude           :                                                    0.0000000
  Basis Set: (AUG-CC-PVTZ AUX)
    Blend: AUG-CC-PVTZ-RI + DEF2-QZVPP-RI
	 Reference Energy          =    -599.0175064192840182 [Eh]
	 Singles Energy            =      -0.0000000000000000 [Eh]
	 Same-Spin Energy          =      -0.0258625988533382 [Eh]
	 Opposite-Spin Energy      =      -0.0593833670710280 [Eh]
	 Correlation Energy        =      -0.0852459659243663 [Eh]
	 Total Energy              =    -599.1027523852084187 [Eh]

	 ================> DF-SCS-MP2 Energies <==================
	-----------------------------------------------------------
	 SCS Same-Spin Scale       =       0.3333333333333333 [-]
	 SCS Opposite-Spin Scale   =       1.2000000000000000 [-]
	 SCS Same-Spin Energy      =      -0.0086208662844461 [Eh]
	 SCS Opposite-Spin Energy  =      -0.0712600404852336 [Eh]
	 SCS Correlation Energy    =      -0.0798809067696797 [Eh]
	 SCS Total Energy          =    -599.0973873260536493 [Eh]
	-----------------------------------------------------------

*** Psi4 exiting successfully. Buy a developer a beer!
