                               Psi4 1.9 release

  ==> Input File <==

--------------------------------------------------------------------------
MEMORY 60 GB

molecule dimer {
0 1
Gh(K)      0.000000     0.000000     0.000000
O          5.050390     0.000000     0.000000
H          5.643561     0.755912     0.000000
H          5.643561    -0.755912     0.000000
Gh(O)     -5.050390     0.000000     0.000000
Gh(H)     -5.643561    -0.755912     0.000000
Gh(H)     -5.643561     0.755912     0.000000

units ang
no_reorient
no_com
symmetry c1
}

set {
basis        aug-cc-pVTZ
scf_type     df
}

energy("mp2")
--------------------------------------------------------------------------

    Molecular point group: c1

    Geometry (in Angstrom), charge = 0, multiplicity = 1:

       Center              X                  Y                   Z               Mass
    ------------   -----------------  -----------------  -----------------  -----------------
      Gh(K)           0.000000000000     0.000000000000     0.000000000000    38.963706486400
         O            5.050390000000     0.000000000000     0.000000000000    15.994914619570
         H            5.643561000000     0.755912000000     0.000000000000     1.007825032230
         H            5.643561000000    -0.755912000000     0.000000000000     1.007825032230
      Gh(O)          -5.050390000000     0.000000000000     0.000000000000    15.994914619570
      Gh(H)          -5.643561000000    -0.755912000000     0.000000000000     1.007825032230
      Gh(H)          -5.643561000000     0.755912000000     0.000000000000     1.007825032230

  Charge       = 0
  Multiplicity = 1
  Basis Set: AUG-CC-PVTZ
    Blend: AUG-CC-PVTZ
  Basis Set: (AUG-CC-PVTZ AUX)
    Blend: AUG-CC-PVTZ-JKFIT + DEF2-UNIVERSAL-JKFIT

    Orbital Energies [Eh]
    ---------------------

    Doubly Occupied:

       1A    -20.568184     2A     -1.352291     3A     -0.714401
       4A     -0.585739     5A     -0.510291

  @DF-RHF Final Energy:   -76.06028833739370

   => Energetics <=

    Nuclear Repulsion Energy =              9.1617384230614540
    One-Electron Energy =                -122.9822384883624977
    Two-Electron Energy =                  37.7602117279073610
    Total Energy =                        -76.0602883373936862
 Dipole X            :        -96.8940294           97.6804007            0.7863714
 Dipole Y            :         -0.0000000            0.0000000           -0.0000000
 Dipole Z            :          0.0000000            0.0000000            0.0000000
 Magnitude           :                                                    0.7863714
  Basis Set: (AUG-CC-PVTZ AUX)
    Blend: AUG-CC-PVTZ-RI + DEF2-QZVPP-RI
	 Reference Energy          =     -76.0602883373937004 [Eh]
	 Singles Energy            =      -0.0000000000000000 [Eh]
	 Same-Spin Energy          =      -0.0684189776991006 [Eh]
	 Opposite-Spin Energy      =      -0.2154195842879715 [Eh]
	 Correlation Energy        =      -0.2838385619870721 [Eh]
	 Total Energy              =     -76.3441268993807682 [Eh]

	 ================> DF-SCS-MP2 Energies <==================
	-----------------------------------------------------------
	 SCS Same-Spin Scale       =       0.3333333333333333 [-]
	 SCS Opposite-Spin Scale   =       1.2000000000000000 [-]
	 SCS Same-Spin Energy      =      -0.0228063258997002 [Eh]
	 SCS Opposite-Spin Energy  =      -0.2585035011455658 [Eh]
	 SCS Correlation Energy    =      -0.2813098270452660 [Eh]
	 SCS Total Energy          =     -76.3415981644389632 [Eh]
	-----------------------------------------------------------

*** Psi4 exiting successfully. Buy a developer a beer!
