                               Psi4 1.9 release

  ==> Input File <==

--------------------------------------------------------------------------
MEMORY 60 GB

molecule dimer {
1 1
K      0.000000     0.000000     0.000000
--
0 1
O      3.030234     0.000000     0.000000
H      3.623405     0.755912     0.000000
H      3.623405    -0.755912     0.000000
O     -3.030234     0.000000     0.000000
H     -3.623405    -0.755912     0.000000
H     -3.623405     0.755912     0.000000

units ang
no_reorient
no_com
symmetry c1
}

set {
basis        aug-cc-pVTZ
scf_type     df
}

energy("mp2", bsse_type="cp")
--------------------------------------------------------------------------

                               Psi4 1.9 release
    Molecular point group: c1
  Charge       = 0
  Multiplicity = 1
  Basis Set: AUG-CC-PVTZ
    Blend: AUG-CC-PVTZ
  Basis Set: (AUG-CC-PVTZ AUX)
    Blend: AUG-CC-PVTZ-JKFIT + DEF2-UNIVERSAL-JKFIT
  @DF-RHF Final Energy:  -152.11985691601731
    Total Energy =                       -152.1198569160173122
 Dipole X            :         -0.0000000            0.0000000           -0.0000000
 Dipole Y            :          0.0000000            0.0000000            0.0000000
 Dipole Z            :          0.0000000            0.0000000            0.0000000
 Magnitude           :                                                    0.0000000
  Basis Set: (AUG-CC-PVTZ AUX)
    Blend: AUG-CC-PVTZ-RI + DEF2-QZVPP-RI
	 Reference Energy          =    -152.1198569160173122 [Eh]
	 Singles Energy            =      -0.0000000000000000 [Eh]
	 Same-Spin Energy          =      -0.1369020455041726 [Eh]
	 Opposite-Spin Energy      =      -0.4311833897516166 [Eh]
	 Correlation Energy        =      -0.5680854352557891 [Eh]
	 Total Energy              =    -152.6879423512731080 [Eh]
	 SCS Total Energy          =    -152.6829109988873086 [Eh]
                               Psi4 1.9 release
    Molecular point group: c1
  Multiplicity = 1
  Basis Set: AUG-CC-PVTZ
    Blend: AUG-CC-PVTZ
  Basis Set: (AUG-CC-PVTZ AUX)
    Blend: AUG-CC-PVTZ-JKFIT + DEF2-UNIVERSAL-JKFIT
  @DF-RHF Final Energy:  -599.01750955929560
    Total Energy =                       -599.0175095592956040
  Basis Set: (AUG-CC-PVTZ AUX)
	 Singles Energy            =      -0.0000000000000000 [Eh]
	 Same-Spin Energy          =      -0.0283335416930899 [Eh]
	 Opposite-Spin Energy      =      -0.0664639212940974 [Eh]
	 Correlation Energy        =      -0.0947974629871873 [Eh]
	 Total Energy              =    -599.1123070222828346 [Eh]
	 SCS Total Energy          =    -599.1067107787462191 [Eh]
                               Psi4 1.9 release
    Molecular point group: c1

    Geometry (in Bohr), charge = 1, multiplicity = 1:

       Center              X                  Y                   Z               Mass
    ------------   -----------------  -----------------  -----------------  -----------------
         K            0.000000000000     0.000000000000     0.000000000000    38.963706486400
         O            5.726312356051     0.000000000000     0.000000000000    15.994914619570
         H            6.847243091615     1.428466654947     0.000000000000     1.007825032230
         H            6.847243091615    -1.428466654947     0.000000000000     1.007825032230
         O           -5.726312356051     0.000000000000     0.000000000000    15.994914619570
         H           -6.847243091615    -1.428466654947     0.000000000000     1.007825032230
         H           -6.847243091615     1.428466654947     0.000000000000     1.007825032230

  Charge       = 1
  Multiplicity = 1
  Basis Set: AUG-CC-PVTZ
    Blend: AUG-CC-PVTZ
  Basis Set: (AUG-CC-PVTZ AUX)
    Blend: AUG-CC-PVTZ-JKFIT + DEF2-UNIVERSAL-JKFIT

    Orbital Energies [Eh]
    ---------------------

    Doubly Occupied:

       1A   -133.693226     2A    -20.722113     3A    -20.722113
       4A    -14.649214     5A    -11.679315     6A    -11.679291
       7A    -11.679093     8A     -1.905925     9A     -1.507399
      10A     -1.507332    11A     -1.114777    12A     -1.114213
      13A     -1.110103    14A     -0.868883    15A     -0.868853
      16A     -0.752118    17A     -0.749588    18A     -0.667358
      19A     -0.667244

  @DF-RHF Final Energy:  -751.18477575732652

   => Energetics <=

    Nuclear Repulsion Energy =             90.6831831640969455
    One-Electron Energy =               -1208.4195949544878204
    Two-Electron Energy =                 366.5516360330642556
    Total Energy =                       -751.1847757573265199
 Dipole X            :         -0.0000000            0.0000000           -0.0000000
 Dipole Y            :         -0.0000000            0.0000000           -0.0000000
 Dipole Z            :          0.0000000            0.0000000            0.0000000
 Magnitude           :                                                    0.0000000
  Basis Set: (AUG-CC-PVTZ AUX)
    Blend: AUG-CC-PVTZ-RI + DEF2-QZVPP-RI
	 Reference Energy          =    -751.1847757573265199 [Eh]
	 Singles Energy            =      -0.0000000000000000 [Eh]
	 Same-Spin Energy          =      -0.1657632452386626 [Eh]
	 Opposite-Spin Energy      =      -0.4968351810312261 [Eh]
	 Correlation Energy        =      -0.6625984262698887 [Eh]
	 Total Energy              =    -751.8473741835964574 [Eh]

	 ================> DF-SCS-MP2 Energies <==================
	-----------------------------------------------------------
	 SCS Same-Spin Scale       =       0.3333333333333333 [-]
	 SCS Opposite-Spin Scale   =       1.2000000000000000 [-]
	 SCS Same-Spin Energy      =      -0.0552544150795542 [Eh]
	 SCS Opposite-Spin Energy  =      -0.5962022172374714 [Eh]
	 SCS Correlation Energy    =      -0.6514566323170256 [Eh]
	 SCS Total Energy          =    -751.8362323896435555 [Eh]
	-----------------------------------------------------------

*** Psi4 exiting successfully. Buy a developer a beer!
