                               Psi4 1.9 release

  ==> Input File <==

--------------------------------------------------------------------------
MEMORY 60 GB

molecule dimer {
1 1
K          0.000000     0.000000     0.000000
O          2.525195     0.000000     0.000000
H          3.118366     0.755912     0.000000
H          3.118366    -0.755912     0.000000
O         -2.525195     0.000000     0.000000
H         -3.118366    -0.755912     0.000000
H         -3.118366     0.755912     0.000000

units ang
no_reorient
no_com
symmetry c1
}

set {
basis        aug-cc-pVTZ
scf_type     df
}

energy("mp2")
--------------------------------------------------------------------------

    Molecular point group: c1

    Geometry (in Angstrom), charge = 1, multiplicity = 1:

       Center              X                  Y                   Z               Mass
    ------------   -----------------  -----------------  -----------------  -----------------
         K            0.000000000000     0.000000000000     0.000000000000    38.963706486400
         O            2.525195000000     0.000000000000     0.000000000000    15.994914619570
         H            3.118366000000     0.755912000000     0.000000000000     1.007825032230
         H            3.118366000000    -0.755912000000     0.000000000000     1.007825032230
         O           -2.525195000000     0.000000000000     0.000000000000    15.994914619570
         H           -3.118366000000    -0.755912000000     0.000000000000     1.007825032230
         H           -3.118366000000     0.755912000000     0.000000000000     1.007825032230

  Charge       = 1
  Multiplicity = 1
  Basis Set: AUG-CC-PVTZ
    Blend: AUG-CC-PVTZ
  Basis Set: (AUG-CC-PVTZ AUX)
    Blend: AUG-CC-PVTZ-JKFIT + DEF2-UNIVERSAL-JKFIT

    Orbital Energies [Eh]
    ---------------------

    Doubly Occupied:

       1A   -133.658371     2A    -20.741145     3A    -20.741144
       4A    -14.616346     5A    -11.646316     6A    -11.646256
       7A    -11.645991     8A     -1.879255     9A     -1.531370
      10A     -1.530452    11A     -1.089626    12A     -1.088748
      13A     -1.088438    14A     -0.891225    15A     -0.890823
      16A     -0.782926    17A     -0.766533    18A     -0.690851
      19A     -0.689908

  @DF-RHF Final Energy:  -751.18614707222912

   => Energetics <=

    Nuclear Repulsion Energy =            104.5778433138805354
    One-Electron Energy =               -1236.2965334788962082
    Two-Electron Energy =                 380.5325430927865682
    Total Energy =                       -751.1861470722291187
 Dipole X            :          0.0000000           -0.0000000            0.0000000
 Dipole Y            :         -0.0000000            0.0000000           -0.0000000
 Dipole Z            :         -0.0000000            0.0000000           -0.0000000
 Magnitude           :                                                    0.0000000
  Basis Set: (AUG-CC-PVTZ AUX)
    Blend: AUG-CC-PVTZ-RI + DEF2-QZVPP-RI
	 Reference Energy          =    -751.1861470722291187 [Eh]
	 Singles Energy            =      -0.0000000000000000 [Eh]
	 Same-Spin Energy          =      -0.1702636371608501 [Eh]
	 Opposite-Spin Energy      =      -0.5065414582273273 [Eh]
	 Correlation Energy        =      -0.6768050953881773 [Eh]
	 Total Energy              =    -751.8629521676173226 [Eh]

	 ================> DF-SCS-MP2 Energies <==================
	-----------------------------------------------------------
	 SCS Same-Spin Scale       =       0.3333333333333333 [-]
	 SCS Opposite-Spin Scale   =       1.2000000000000000 [-]
	 SCS Same-Spin Energy      =      -0.0567545457202834 [Eh]
	 SCS Opposite-Spin Energy  =      -0.6078497498727927 [Eh]
	 SCS Correlation Energy    =      -0.6646042955930761 [Eh]
	 SCS Total Energy          =    -751.8507513678222267 [Eh]
	-----------------------------------------------------------

*** Psi4 exiting successfully. Buy a developer a beer!
