                               Psi4 1.9 release

  ==> Input File <==

--------------------------------------------------------------------------
MEMORY 60 GB

molecule dimer {
0 1
Gh(K)      0.000000     0.000000     0.000000
O          2.651455     0.000000     0.000000
H          3.244626     0.755912     0.000000
H          3.244626    -0.755912     0.000000
Gh(O)     -2.651455     0.000000     0.000000
Gh(H)     -3.244626    -0.755912     0.000000
Gh(H)     -3.244626     0.755912     0.000000

units ang
no_reorient
no_com
symmetry c1
}

set {
basis        aug-cc-pVTZ
scf_type     df
}

energy("mp2")
--------------------------------------------------------------------------

    Molecular point group: c1

    Geometry (in Angstrom), charge = 0, multiplicity = 1:

       Center              X                  Y                   Z               Mass
    ------------   -----------------  -----------------  -----------------  -----------------
      Gh(K)           0.000000000000     0.000000000000     0.000000000000    38.963706486400
         O            2.651455000000     0.000000000000     0.000000000000    15.994914619570
         H            3.244626000000     0.755912000000     0.000000000000     1.007825032230
         H            3.244626000000    -0.755912000000     0.000000000000     1.007825032230
      Gh(O)          -2.651455000000     0.000000000000     0.000000000000    15.994914619570
      Gh(H)          -3.244626000000    -0.755912000000     0.000000000000     1.007825032230
      Gh(H)          -3.244626000000     0.755912000000     0.000000000000     1.007825032230

  Charge       = 0
  Multiplicity = 1
  Basis Set: AUG-CC-PVTZ
    Blend: AUG-CC-PVTZ
  Basis Set: (AUG-CC-PVTZ AUX)
    Blend: AUG-CC-PVTZ-JKFIT + DEF2-UNIVERSAL-JKFIT

    Orbital Energies [Eh]
    ---------------------

    Doubly Occupied:

       1A    -20.568129     2A     -1.352256     3A     -0.714370
       4A     -0.585721     5A     -0.510258

  @DF-RHF Final Energy:   -76.06031428920730

   => Energetics <=

    Nuclear Repulsion Energy =              9.1617384230614540
    One-Electron Energy =                -122.9826339672236770
    Two-Electron Energy =                  37.7605812549549213
    Total Energy =                        -76.0603142892072981
 Dipole X            :        -51.5612013           52.3470993            0.7858980
 Dipole Y            :          0.0000000            0.0000000            0.0000000
 Dipole Z            :         -0.0000000            0.0000000           -0.0000000
 Magnitude           :                                                    0.7858980
  Basis Set: (AUG-CC-PVTZ AUX)
    Blend: AUG-CC-PVTZ-RI + DEF2-QZVPP-RI
	 Reference Energy          =     -76.0603142892072981 [Eh]
	 Singles Energy            =      -0.0000000000000000 [Eh]
	 Same-Spin Energy          =      -0.0684398683335061 [Eh]
	 Opposite-Spin Energy      =      -0.2155965331720122 [Eh]
	 Correlation Energy        =      -0.2840364015055183 [Eh]
	 Total Energy              =     -76.3443506907128153 [Eh]

	 ================> DF-SCS-MP2 Energies <==================
	-----------------------------------------------------------
	 SCS Same-Spin Scale       =       0.3333333333333333 [-]
	 SCS Opposite-Spin Scale   =       1.2000000000000000 [-]
	 SCS Same-Spin Energy      =      -0.0228132894445020 [Eh]
	 SCS Opposite-Spin Energy  =      -0.2587158398064147 [Eh]
	 SCS Correlation Energy    =      -0.2815291292509167 [Eh]
	 SCS Total Energy          =     -76.3418434184582111 [Eh]
	-----------------------------------------------------------

*** Psi4 exiting successfully. Buy a developer a beer!
