                               Psi4 1.9 release

  ==> Input File <==

--------------------------------------------------------------------------
MEMORY 60 GB

molecule dimer {
0 1
Gh(K)      0.000000     0.000000     0.000000
Gh(O)      2.777715     0.000000     0.000000
Gh(H)      3.370886     0.755912     0.000000
Gh(H)      3.370886    -0.755912     0.000000
O         -2.777715     0.000000     0.000000
H         -3.370886    -0.755912     0.000000
H         -3.370886     0.755912     0.000000

units ang
no_reorient
no_com
symmetry c1
}

set {
basis        aug-cc-pVTZ
scf_type     df
}

energy("mp2")
--------------------------------------------------------------------------

    Molecular point group: c1

    Geometry (in Angstrom), charge = 0, multiplicity = 1:

       Center              X                  Y                   Z               Mass
    ------------   -----------------  -----------------  -----------------  -----------------
      Gh(K)           0.000000000000     0.000000000000     0.000000000000    38.963706486400
      Gh(O)           2.777715000000     0.000000000000     0.000000000000    15.994914619570
      Gh(H)           3.370886000000     0.755912000000     0.000000000000     1.007825032230
      Gh(H)           3.370886000000    -0.755912000000     0.000000000000     1.007825032230
         O           -2.777715000000     0.000000000000     0.000000000000    15.994914619570
         H           -3.370886000000    -0.755912000000     0.000000000000     1.007825032230
         H           -3.370886000000     0.755912000000     0.000000000000     1.007825032230

  Charge       = 0
  Multiplicity = 1
  Basis Set: AUG-CC-PVTZ
    Blend: AUG-CC-PVTZ
  Basis Set: (AUG-CC-PVTZ AUX)
    Blend: AUG-CC-PVTZ-JKFIT + DEF2-UNIVERSAL-JKFIT

    Orbital Energies [Eh]
    ---------------------

    Doubly Occupied:

       1A    -20.568140     2A     -1.352263     3A     -0.714377
       4A     -0.585726     5A     -0.510263

  @DF-RHF Final Energy:   -76.06030964039405

   => Energetics <=

    Nuclear Repulsion Energy =              9.1617384230614540
    One-Electron Energy =                -122.9825563692048007
    Two-Electron Energy =                  37.7605083057492976
    Total Energy =                        -76.0603096403940526
 Dipole X            :         53.9470535          -54.7330675           -0.7860140
 Dipole Y            :         -0.0000000            0.0000000           -0.0000000
 Dipole Z            :          0.0000000            0.0000000            0.0000000
 Magnitude           :                                                    0.7860140
  Basis Set: (AUG-CC-PVTZ AUX)
    Blend: AUG-CC-PVTZ-RI + DEF2-QZVPP-RI
	 Reference Energy          =     -76.0603096403940526 [Eh]
	 Singles Energy            =      -0.0000000000000000 [Eh]
	 Same-Spin Energy          =      -0.0684388333797691 [Eh]
	 Opposite-Spin Energy      =      -0.2155810360586928 [Eh]
	 Correlation Energy        =      -0.2840198694384619 [Eh]
	 Total Energy              =     -76.3443295098325194 [Eh]

	 ================> DF-SCS-MP2 Energies <==================
	-----------------------------------------------------------
	 SCS Same-Spin Scale       =       0.3333333333333333 [-]
	 SCS Opposite-Spin Scale   =       1.2000000000000000 [-]
	 SCS Same-Spin Energy      =      -0.0228129444599230 [Eh]
	 SCS Opposite-Spin Energy  =      -0.2586972432704314 [Eh]
	 SCS Correlation Energy    =      -0.2815101877303544 [Eh]
	 SCS Total Energy          =     -76.3418198281244003 [Eh]
	-----------------------------------------------------------

*** Psi4 exiting successfully. Buy a developer a beer!
