                               Psi4 1.9 release

  ==> Input File <==

--------------------------------------------------------------------------
MEMORY 60 GB

molecule dimer {
1 1
K          0.000000     0.000000     0.000000
Gh(O)      3.535273     0.000000     0.000000
Gh(H)      4.128444     0.755912     0.000000
Gh(H)      4.128444    -0.755912     0.000000
Gh(O)     -3.535273     0.000000     0.000000
Gh(H)     -4.128444    -0.755912     0.000000
Gh(H)     -4.128444     0.755912     0.000000

units ang
no_reorient
no_com
symmetry c1
}

set {
basis        aug-cc-pVTZ
scf_type     df
}

energy("mp2")
--------------------------------------------------------------------------

    Molecular point group: c1

    Geometry (in Angstrom), charge = 1, multiplicity = 1:

       Center              X                  Y                   Z               Mass
    ------------   -----------------  -----------------  -----------------  -----------------
         K            0.000000000000     0.000000000000     0.000000000000    38.963706486400
      Gh(O)           3.535273000000     0.000000000000     0.000000000000    15.994914619570
      Gh(H)           4.128444000000     0.755912000000     0.000000000000     1.007825032230
      Gh(H)           4.128444000000    -0.755912000000     0.000000000000     1.007825032230
      Gh(O)          -3.535273000000     0.000000000000     0.000000000000    15.994914619570
      Gh(H)          -4.128444000000    -0.755912000000     0.000000000000     1.007825032230
      Gh(H)          -4.128444000000     0.755912000000     0.000000000000     1.007825032230

  Charge       = 1
  Multiplicity = 1
  Basis Set: AUG-CC-PVTZ
    Blend: AUG-CC-PVTZ
  Basis Set: (AUG-CC-PVTZ AUX)
    Blend: AUG-CC-PVTZ-JKFIT + DEF2-UNIVERSAL-JKFIT

    Orbital Energies [Eh]
    ---------------------

    Doubly Occupied:

       1A   -133.753593     2A    -14.709068     3A    -11.739133
       4A    -11.739128     5A    -11.739128     6A     -1.964303
       7A     -1.170943     8A     -1.170870     9A     -1.170868

  @DF-RHF Final Energy:  -599.01750866929603

   => Energetics <=

    Nuclear Repulsion Energy =              0.0000000000000000
    One-Electron Energy =                -819.7209475391114211
    Two-Electron Energy =                 220.7034388698153862
    Total Energy =                       -599.0175086692960349
 Dipole X            :         -0.0000000            0.0000000           -0.0000000
 Dipole Y            :          0.0000000            0.0000000            0.0000000
 Dipole Z            :          0.0000000            0.0000000            0.0000000
 Magnitude           :                                                    0.0000000
  Basis Set: (AUG-CC-PVTZ AUX)
    Blend: AUG-CC-PVTZ-RI + DEF2-QZVPP-RI
	 Reference Energy          =    -599.0175086692960349 [Eh]
	 Singles Energy            =      -0.0000000000000000 [Eh]
	 Same-Spin Energy          =      -0.0267906654515280 [Eh]
	 Opposite-Spin Energy      =      -0.0620601711916549 [Eh]
	 Correlation Energy        =      -0.0888508366431828 [Eh]
	 Total Energy              =    -599.1063595059391673 [Eh]

	 ================> DF-SCS-MP2 Energies <==================
	-----------------------------------------------------------
	 SCS Same-Spin Scale       =       0.3333333333333333 [-]
	 SCS Opposite-Spin Scale   =       1.2000000000000000 [-]
	 SCS Same-Spin Energy      =      -0.0089302218171760 [Eh]
	 SCS Opposite-Spin Energy  =      -0.0744722054299858 [Eh]
	 SCS Correlation Energy    =      -0.0834024272471618 [Eh]
	 SCS Total Energy          =    -599.1009110965432001 [Eh]
	-----------------------------------------------------------

*** Psi4 exiting successfully. Buy a developer a beer!
