                               Psi4 1.9 release

  ==> Input File <==

--------------------------------------------------------------------------
MEMORY 60 GB

molecule dimer {
1 1
K          0.000000     0.000000     0.000000
O          2.777715     0.000000     0.000000
H          3.370886     0.755912     0.000000
H          3.370886    -0.755912     0.000000
O         -2.777715     0.000000     0.000000
H         -3.370886    -0.755912     0.000000
H         -3.370886     0.755912     0.000000

units ang
no_reorient
no_com
symmetry c1
}

set {
basis        aug-cc-pVTZ
scf_type     df
}

energy("mp2")
--------------------------------------------------------------------------

    Molecular point group: c1

    Geometry (in Angstrom), charge = 1, multiplicity = 1:

       Center              X                  Y                   Z               Mass
    ------------   -----------------  -----------------  -----------------  -----------------
         K            0.000000000000     0.000000000000     0.000000000000    38.963706486400
         O            2.777715000000     0.000000000000     0.000000000000    15.994914619570
         H            3.370886000000     0.755912000000     0.000000000000     1.007825032230
         H            3.370886000000    -0.755912000000     0.000000000000     1.007825032230
         O           -2.777715000000     0.000000000000     0.000000000000    15.994914619570
         H           -3.370886000000    -0.755912000000     0.000000000000     1.007825032230
         H           -3.370886000000     0.755912000000     0.000000000000     1.007825032230

  Charge       = 1
  Multiplicity = 1
  Basis Set: AUG-CC-PVTZ
    Blend: AUG-CC-PVTZ
  Basis Set: (AUG-CC-PVTZ AUX)
    Blend: AUG-CC-PVTZ-JKFIT + DEF2-UNIVERSAL-JKFIT

    Orbital Energies [Eh]
    ---------------------

    Doubly Occupied:

       1A   -133.678823     2A    -20.731908     3A    -20.731908
       4A    -14.635399     5A    -11.665476     6A    -11.665438
       7A    -11.665188     8A     -1.893938     9A     -1.518665
      10A     -1.518417    11A     -1.103533    12A     -1.102722
      13A     -1.099105    14A     -0.879641    15A     -0.879533
      16A     -0.766410    17A     -0.759980    18A     -0.678587
      19A     -0.678261

  @DF-RHF Final Energy:  -751.18871109541146

   => Energetics <=

    Nuclear Repulsion Energy =             97.0195606394448475
    One-Electron Energy =               -1221.1106773267060817
    Two-Electron Energy =                 372.9024055918497424
    Total Energy =                       -751.1887110954115769
 Dipole X            :          0.0000000            0.0000000            0.0000000
 Dipole Y            :         -0.0000000            0.0000000           -0.0000000
 Dipole Z            :          0.0000000            0.0000000            0.0000000
 Magnitude           :                                                    0.0000000
  Basis Set: (AUG-CC-PVTZ AUX)
    Blend: AUG-CC-PVTZ-RI + DEF2-QZVPP-RI
	 Reference Energy          =    -751.1887110954114632 [Eh]
	 Singles Energy            =      -0.0000000000000000 [Eh]
	 Same-Spin Energy          =      -0.1676506252323633 [Eh]
	 Opposite-Spin Energy      =      -0.5012326490287621 [Eh]
	 Correlation Energy        =      -0.6688832742611255 [Eh]
	 Total Energy              =    -751.8575943696725972 [Eh]

	 ================> DF-SCS-MP2 Energies <==================
	-----------------------------------------------------------
	 SCS Same-Spin Scale       =       0.3333333333333333 [-]
	 SCS Opposite-Spin Scale   =       1.2000000000000000 [-]
	 SCS Same-Spin Energy      =      -0.0558835417441211 [Eh]
	 SCS Opposite-Spin Energy  =      -0.6014791788345145 [Eh]
	 SCS Correlation Energy    =      -0.6573627205786357 [Eh]
	 SCS Total Energy          =    -751.8460738159900529 [Eh]
	-----------------------------------------------------------

*** Psi4 exiting successfully. Buy a developer a beer!
