                               Psi4 1.9 release

  ==> Input File <==

--------------------------------------------------------------------------
MEMORY 60 GB

molecule dimer {
1 1
K          0.000000     0.000000     0.000000
Gh(O)      2.398935     0.000000     0.000000
Gh(H)      2.992106     0.755912     0.000000
Gh(H)      2.992106    -0.755912     0.000000
Gh(O)     -2.398935     0.000000     0.000000
Gh(H)     -2.992106    -0.755912     0.000000
Gh(H)     -2.992106     0.755912     0.000000

units ang
no_reorient
no_com
symmetry c1
}

set {
basis        aug-cc-pVTZ
scf_type     df
}

energy("mp2")
--------------------------------------------------------------------------

    Molecular point group: c1

    Geometry (in Angstrom), charge = 1, multiplicity = 1:

       Center              X                  Y                   Z               Mass
    ------------   -----------------  -----------------  -----------------  -----------------
         K            0.000000000000     0.000000000000     0.000000000000    38.963706486400
      Gh(O)           2.398935000000     0.000000000000     0.000000000000    15.994914619570
      Gh(H)           2.992106000000     0.755912000000     0.000000000000     1.007825032230
      Gh(H)           2.992106000000    -0.755912000000     0.000000000000     1.007825032230
      Gh(O)          -2.398935000000     0.000000000000     0.000000000000    15.994914619570
      Gh(H)          -2.992106000000    -0.755912000000     0.000000000000     1.007825032230
      Gh(H)          -2.992106000000     0.755912000000     0.000000000000     1.007825032230

  Charge       = 1
  Multiplicity = 1
  Basis Set: AUG-CC-PVTZ
    Blend: AUG-CC-PVTZ
  Basis Set: (AUG-CC-PVTZ AUX)
    Blend: AUG-CC-PVTZ-JKFIT + DEF2-UNIVERSAL-JKFIT

    Orbital Energies [Eh]
    ---------------------

    Doubly Occupied:

       1A   -133.753273     2A    -14.708816     3A    -11.738886
       4A    -11.738882     5A    -11.738882     6A     -1.964165
       7A     -1.170894     8A     -1.170783     9A     -1.170763

  @DF-RHF Final Energy:  -599.01751154924739

   => Energetics <=

    Nuclear Repulsion Energy =              0.0000000000000000
    One-Electron Energy =                -819.7243376008668747
    Two-Electron Energy =                 220.7068260516194869
    Total Energy =                       -599.0175115492473878
 Dipole X            :          0.0000000            0.0000000            0.0000000
 Dipole Y            :         -0.0000000            0.0000000           -0.0000000
 Dipole Z            :         -0.0000000            0.0000000           -0.0000000
 Magnitude           :                                                    0.0000000
  Basis Set: (AUG-CC-PVTZ AUX)
    Blend: AUG-CC-PVTZ-RI + DEF2-QZVPP-RI
	 Reference Energy          =    -599.0175115492473878 [Eh]
	 Singles Energy            =      -0.0000000000000000 [Eh]
	 Same-Spin Energy          =      -0.0324159115893334 [Eh]
	 Opposite-Spin Energy      =      -0.0784490240080616 [Eh]
	 Correlation Energy        =      -0.1108649355973951 [Eh]
	 Total Energy              =    -599.1283764848448072 [Eh]

	 ================> DF-SCS-MP2 Energies <==================
	-----------------------------------------------------------
	 SCS Same-Spin Scale       =       0.3333333333333333 [-]
	 SCS Opposite-Spin Scale   =       1.2000000000000000 [-]
	 SCS Same-Spin Energy      =      -0.0108053038631111 [Eh]
	 SCS Opposite-Spin Energy  =      -0.0941388288096739 [Eh]
	 SCS Correlation Energy    =      -0.1049441326727851 [Eh]
	 SCS Total Energy          =    -599.1224556819202007 [Eh]
	-----------------------------------------------------------

*** Psi4 exiting successfully. Buy a developer a beer!
