                               Psi4 1.9 release

  ==> Input File <==

--------------------------------------------------------------------------
MEMORY 60 GB

molecule dimer {
1 1
K      0.000000     0.000000     0.000000
--
0 1
O      2.525195     0.000000     0.000000
H      3.118366     0.755912     0.000000
H      3.118366    -0.755912     0.000000
--
0 1
O     -2.525195     0.000000     0.000000
H     -3.118366    -0.755912     0.000000
H     -3.118366     0.755912     0.000000

units ang
no_reorient
no_com
symmetry c1
}

set {
basis        aug-cc-pVTZ
scf_type     df
}

energy("mp2", bsse_type="cp")
--------------------------------------------------------------------------

                               Psi4 1.9 release
    Molecular point group: c1
  Charge       = 1
  Multiplicity = 1
  Basis Set: AUG-CC-PVTZ
    Blend: AUG-CC-PVTZ
  Basis Set: (AUG-CC-PVTZ AUX)
    Blend: AUG-CC-PVTZ-JKFIT + DEF2-UNIVERSAL-JKFIT
  @DF-RHF Final Energy:  -599.01751115039451
    Total Energy =                       -599.0175111503945118
 Dipole X            :         -0.0000000            0.0000000           -0.0000000
 Dipole Y            :         -0.0000000            0.0000000           -0.0000000
 Dipole Z            :         -0.0000000            0.0000000           -0.0000000
 Magnitude           :                                                    0.0000000
  Basis Set: (AUG-CC-PVTZ AUX)
    Blend: AUG-CC-PVTZ-RI + DEF2-QZVPP-RI
	 Reference Energy          =    -599.0175111503945118 [Eh]
	 Singles Energy            =      -0.0000000000000000 [Eh]
	 Same-Spin Energy          =      -0.0314102609785223 [Eh]
	 Opposite-Spin Energy      =      -0.0755610320069077 [Eh]
	 Correlation Energy        =      -0.1069712929854300 [Eh]
	 Total Energy              =    -599.1244824433799749 [Eh]
	 SCS Total Energy          =    -599.1186544757956653 [Eh]
                               Psi4 1.9 release
    Molecular point group: c1
  Basis Set: AUG-CC-PVTZ
    Blend: AUG-CC-PVTZ
  Basis Set: (AUG-CC-PVTZ AUX)
    Blend: AUG-CC-PVTZ-JKFIT + DEF2-UNIVERSAL-JKFIT
  @DF-RHF Final Energy:   -76.06032004163208
    Total Energy =                        -76.0603200416320817
  Basis Set: (AUG-CC-PVTZ AUX)
                               Psi4 1.9 release
  @DF-RHF Final Energy:  -152.11938656976150
    Total Energy =                       -152.1193865697615024
                               Psi4 1.9 release
  @DF-RHF Final Energy:  -675.10396102429763
    Total Energy =                       -675.1039610242976323
                               Psi4 1.9 release
  @DF-RHF Final Energy:  -675.10396102430173
    Total Energy =                       -675.1039610243017250
                               Psi4 1.9 release
  Multiplicity = 1
  @DF-RHF Final Energy:   -76.06032004163035
    Total Energy =                        -76.0603200416303480
	 Singles Energy            =      -0.0000000000000000 [Eh]
	 Same-Spin Energy          =      -0.0684408314482688 [Eh]
	 Opposite-Spin Energy      =      -0.2156127780853510 [Eh]
	 Correlation Energy        =      -0.2840536095336199 [Eh]
	 Total Energy              =     -76.3443736511639628 [Eh]
	 SCS Total Energy          =     -76.3418689858155233 [Eh]
                               Psi4 1.9 release
    Molecular point group: c1

    Geometry (in Bohr), charge = 1, multiplicity = 1:

       Center              X                  Y                   Z               Mass
    ------------   -----------------  -----------------  -----------------  -----------------
         K            0.000000000000     0.000000000000     0.000000000000    38.963706486400
         O            4.771926963375     0.000000000000     0.000000000000    15.994914619570
         H            5.892857698939     1.428466654947     0.000000000000     1.007825032230
         H            5.892857698939    -1.428466654947     0.000000000000     1.007825032230
         O           -4.771926963375     0.000000000000     0.000000000000    15.994914619570
         H           -5.892857698939    -1.428466654947     0.000000000000     1.007825032230
         H           -5.892857698939     1.428466654947     0.000000000000     1.007825032230

  Charge       = 1
  Multiplicity = 1
  Basis Set: AUG-CC-PVTZ
    Blend: AUG-CC-PVTZ
  Basis Set: (AUG-CC-PVTZ AUX)
    Blend: AUG-CC-PVTZ-JKFIT + DEF2-UNIVERSAL-JKFIT

    Orbital Energies [Eh]
    ---------------------

    Doubly Occupied:

       1A   -133.658371     2A    -20.741145     3A    -20.741144
       4A    -14.616346     5A    -11.646316     6A    -11.646256
       7A    -11.645991     8A     -1.879255     9A     -1.531370
      10A     -1.530452    11A     -1.089626    12A     -1.088748
      13A     -1.088438    14A     -0.891225    15A     -0.890823
      16A     -0.782926    17A     -0.766533    18A     -0.690851
      19A     -0.689908

  @DF-RHF Final Energy:  -751.18614707222935

   => Energetics <=

    Nuclear Repulsion Energy =            104.5778433138805354
    One-Electron Energy =               -1236.2965334790187626
    Two-Electron Energy =                 380.5325430929089521
    Total Energy =                       -751.1861470722292324
 Dipole X            :         -0.0000000           -0.0000000           -0.0000000
 Dipole Y            :         -0.0000000            0.0000000           -0.0000000
 Dipole Z            :         -0.0000000            0.0000000           -0.0000000
 Magnitude           :                                                    0.0000000
  Basis Set: (AUG-CC-PVTZ AUX)
    Blend: AUG-CC-PVTZ-RI + DEF2-QZVPP-RI
	 Reference Energy          =    -751.1861470722293461 [Eh]
	 Singles Energy            =      -0.0000000000000000 [Eh]
	 Same-Spin Energy          =      -0.1702636371609361 [Eh]
	 Opposite-Spin Energy      =      -0.5065414582274906 [Eh]
	 Correlation Energy        =      -0.6768050953884268 [Eh]
	 Total Energy              =    -751.8629521676177774 [Eh]

	 ================> DF-SCS-MP2 Energies <==================
	-----------------------------------------------------------
	 SCS Same-Spin Scale       =       0.3333333333333333 [-]
	 SCS Opposite-Spin Scale   =       1.2000000000000000 [-]
	 SCS Same-Spin Energy      =      -0.0567545457203120 [Eh]
	 SCS Opposite-Spin Energy  =      -0.6078497498729888 [Eh]
	 SCS Correlation Energy    =      -0.6646042955933008 [Eh]
	 SCS Total Energy          =    -751.8507513678226815 [Eh]
	-----------------------------------------------------------

*** Psi4 exiting successfully. Buy a developer a beer!
