                               Psi4 1.9 release

  ==> Input File <==

--------------------------------------------------------------------------
MEMORY 60 GB

molecule dimer {
1 1
K      0.000000     0.000000     0.000000
--
0 1
O      5.050390     0.000000     0.000000
H      5.643561     0.755912     0.000000
H      5.643561    -0.755912     0.000000
O     -5.050390     0.000000     0.000000
H     -5.643561    -0.755912     0.000000
H     -5.643561     0.755912     0.000000

units ang
no_reorient
no_com
symmetry c1
}

set {
basis        aug-cc-pVTZ
scf_type     df
}

energy("mp2", bsse_type="cp")
--------------------------------------------------------------------------

                               Psi4 1.9 release
    Molecular point group: c1
  Charge       = 0
  Multiplicity = 1
  Basis Set: AUG-CC-PVTZ
    Blend: AUG-CC-PVTZ
  Basis Set: (AUG-CC-PVTZ AUX)
    Blend: AUG-CC-PVTZ-JKFIT + DEF2-UNIVERSAL-JKFIT
  @DF-RHF Final Energy:  -152.12040640389361
    Total Energy =                       -152.1204064038936110
 Dipole X            :          0.0000000           -0.0000000            0.0000000
 Dipole Y            :         -0.0000000            0.0000000           -0.0000000
 Dipole Z            :         -0.0000000            0.0000000           -0.0000000
 Magnitude           :                                                    0.0000000
  Basis Set: (AUG-CC-PVTZ AUX)
    Blend: AUG-CC-PVTZ-RI + DEF2-QZVPP-RI
	 Reference Energy          =    -152.1204064038936110 [Eh]
	 Singles Energy            =      -0.0000000000000000 [Eh]
	 Same-Spin Energy          =      -0.1368431984576114 [Eh]
	 Opposite-Spin Energy      =      -0.4308565230749211 [Eh]
	 Correlation Energy        =      -0.5676997215325326 [Eh]
	 Total Energy              =    -152.6881061254261454 [Eh]
	 SCS Total Energy          =    -152.6830486310693971 [Eh]
                               Psi4 1.9 release
    Molecular point group: c1
  Multiplicity = 1
  Basis Set: AUG-CC-PVTZ
    Blend: AUG-CC-PVTZ
  Basis Set: (AUG-CC-PVTZ AUX)
    Blend: AUG-CC-PVTZ-JKFIT + DEF2-UNIVERSAL-JKFIT
  @DF-RHF Final Energy:  -599.01750641928300
    Total Energy =                       -599.0175064192828813
  Basis Set: (AUG-CC-PVTZ AUX)
	 Singles Energy            =      -0.0000000000000000 [Eh]
	 Same-Spin Energy          =      -0.0258625988533699 [Eh]
	 Opposite-Spin Energy      =      -0.0593833670710867 [Eh]
	 Correlation Energy        =      -0.0852459659244566 [Eh]
	 Total Energy              =    -599.1027523852073955 [Eh]
	 SCS Total Energy          =    -599.0973873260527398 [Eh]
                               Psi4 1.9 release
    Molecular point group: c1

    Geometry (in Bohr), charge = 1, multiplicity = 1:

       Center              X                  Y                   Z               Mass
    ------------   -----------------  -----------------  -----------------  -----------------
         K            0.000000000000     0.000000000000     0.000000000000    38.963706486400
         O            9.543853926751     0.000000000000     0.000000000000    15.994914619570
         H           10.664784662315     1.428466654947     0.000000000000     1.007825032230
         H           10.664784662315    -1.428466654947     0.000000000000     1.007825032230
         O           -9.543853926751     0.000000000000     0.000000000000    15.994914619570
         H          -10.664784662315    -1.428466654947     0.000000000000     1.007825032230
         H          -10.664784662315     1.428466654947     0.000000000000     1.007825032230

  Charge       = 1
  Multiplicity = 1
  Basis Set: AUG-CC-PVTZ
    Blend: AUG-CC-PVTZ
  Basis Set: (AUG-CC-PVTZ AUX)
    Blend: AUG-CC-PVTZ-JKFIT + DEF2-UNIVERSAL-JKFIT

    Orbital Energies [Eh]
    ---------------------

    Doubly Occupied:

       1A   -133.735344     2A    -20.665742     3A    -20.665742
       4A    -14.690769     5A    -11.720840     6A    -11.720838
       7A    -11.720815     8A     -1.945874     9A     -1.450174
      10A     -1.450174    11A     -1.152721    12A     -1.152666
      13A     -1.151944    14A     -0.812291    15A     -0.812291
      16A     -0.687063    17A     -0.687063    18A     -0.609127
      19A     -0.609127

  @DF-RHF Final Energy:  -751.15547080492604

   => Energetics <=

    Nuclear Repulsion Energy =             62.3588037826931725
    One-Electron Energy =               -1152.1473347919452408
    Two-Electron Energy =                 338.6330602043259432
    Total Energy =                       -751.1554708049260398
 Dipole X            :          0.0000000           -0.0000000            0.0000000
 Dipole Y            :         -0.0000000            0.0000000           -0.0000000
 Dipole Z            :         -0.0000000            0.0000000           -0.0000000
 Magnitude           :                                                    0.0000000
  Basis Set: (AUG-CC-PVTZ AUX)
    Blend: AUG-CC-PVTZ-RI + DEF2-QZVPP-RI
	 Reference Energy          =    -751.1554708049260398 [Eh]
	 Singles Energy            =      -0.0000000000000000 [Eh]
	 Same-Spin Energy          =      -0.1625533377566046 [Eh]
	 Opposite-Spin Energy      =      -0.4895520738903990 [Eh]
	 Correlation Energy        =      -0.6521054116470035 [Eh]
	 Total Energy              =    -751.8075762165730112 [Eh]

	 ================> DF-SCS-MP2 Energies <==================
	-----------------------------------------------------------
	 SCS Same-Spin Scale       =       0.3333333333333333 [-]
	 SCS Opposite-Spin Scale   =       1.2000000000000000 [-]
	 SCS Same-Spin Energy      =      -0.0541844459188682 [Eh]
	 SCS Opposite-Spin Energy  =      -0.5874624886684787 [Eh]
	 SCS Correlation Energy    =      -0.6416469345873469 [Eh]
	 SCS Total Energy          =    -751.7971177395133964 [Eh]
	-----------------------------------------------------------

*** Psi4 exiting successfully. Buy a developer a beer!
