                               Psi4 1.9 release

  ==> Input File <==

--------------------------------------------------------------------------
MEMORY 60 GB

molecule dimer {
0 1
Gh(K)      0.000000     0.000000     0.000000
Gh(O)      2.398935     0.000000     0.000000
Gh(H)      2.992106     0.755912     0.000000
Gh(H)      2.992106    -0.755912     0.000000
O         -2.398935     0.000000     0.000000
H         -2.992106    -0.755912     0.000000
H         -2.992106     0.755912     0.000000

units ang
no_reorient
no_com
symmetry c1
}

set {
basis        aug-cc-pVTZ
scf_type     df
}

energy("mp2")
--------------------------------------------------------------------------

    Molecular point group: c1

    Geometry (in Angstrom), charge = 0, multiplicity = 1:

       Center              X                  Y                   Z               Mass
    ------------   -----------------  -----------------  -----------------  -----------------
      Gh(K)           0.000000000000     0.000000000000     0.000000000000    38.963706486400
      Gh(O)           2.398935000000     0.000000000000     0.000000000000    15.994914619570
      Gh(H)           2.992106000000     0.755912000000     0.000000000000     1.007825032230
      Gh(H)           2.992106000000    -0.755912000000     0.000000000000     1.007825032230
         O           -2.398935000000     0.000000000000     0.000000000000    15.994914619570
         H           -2.992106000000    -0.755912000000     0.000000000000     1.007825032230
         H           -2.992106000000     0.755912000000     0.000000000000     1.007825032230

  Charge       = 0
  Multiplicity = 1
  Basis Set: AUG-CC-PVTZ
    Blend: AUG-CC-PVTZ
  Basis Set: (AUG-CC-PVTZ AUX)
    Blend: AUG-CC-PVTZ-JKFIT + DEF2-UNIVERSAL-JKFIT

    Orbital Energies [Eh]
    ---------------------

    Doubly Occupied:

       1A    -20.568109     2A     -1.352241     3A     -0.714355
       4A     -0.585711     5A     -0.510250

  @DF-RHF Final Energy:   -76.06032659352395

   => Energetics <=

    Nuclear Repulsion Energy =              9.1617384230614505
    One-Electron Energy =                -122.9827948775617159
    Two-Electron Energy =                  37.7607298609763049
    Total Energy =                        -76.0603265935239676
 Dipole X            :         46.7894472          -47.5751629           -0.7857157
 Dipole Y            :          0.0000000            0.0000000            0.0000000
 Dipole Z            :         -0.0000000            0.0000000           -0.0000000
 Magnitude           :                                                    0.7857157
  Basis Set: (AUG-CC-PVTZ AUX)
    Blend: AUG-CC-PVTZ-RI + DEF2-QZVPP-RI
	 Reference Energy          =     -76.0603265935239534 [Eh]
	 Singles Energy            =      -0.0000000000000000 [Eh]
	 Same-Spin Energy          =      -0.0684418420256694 [Eh]
	 Opposite-Spin Energy      =      -0.2156299178566061 [Eh]
	 Correlation Energy        =      -0.2840717598822756 [Eh]
	 Total Energy              =     -76.3443983534062340 [Eh]

	 ================> DF-SCS-MP2 Energies <==================
	-----------------------------------------------------------
	 SCS Same-Spin Scale       =       0.3333333333333333 [-]
	 SCS Opposite-Spin Scale   =       1.2000000000000000 [-]
	 SCS Same-Spin Energy      =      -0.0228139473418898 [Eh]
	 SCS Opposite-Spin Energy  =      -0.2587559014279273 [Eh]
	 SCS Correlation Energy    =      -0.2815698487698171 [Eh]
	 SCS Total Energy          =     -76.3418964422937734 [Eh]
	-----------------------------------------------------------

*** Psi4 exiting successfully. Buy a developer a beer!
