                               Psi4 1.9 release

  ==> Input File <==

--------------------------------------------------------------------------
MEMORY 60 GB

molecule dimer {
1 1
K      0.000000     0.000000     0.000000
--
0 1
O      2.651455     0.000000     0.000000
H      3.244626     0.755912     0.000000
H      3.244626    -0.755912     0.000000
--
0 1
O     -2.651455     0.000000     0.000000
H     -3.244626    -0.755912     0.000000
H     -3.244626     0.755912     0.000000

units ang
no_reorient
no_com
symmetry c1
}

set {
basis        aug-cc-pVTZ
scf_type     df
}

energy("mp2", bsse_type="cp")
--------------------------------------------------------------------------

                               Psi4 1.9 release
    Molecular point group: c1
  Charge       = 1
  Multiplicity = 1
  Basis Set: AUG-CC-PVTZ
    Blend: AUG-CC-PVTZ
  Basis Set: (AUG-CC-PVTZ AUX)
    Blend: AUG-CC-PVTZ-JKFIT + DEF2-UNIVERSAL-JKFIT
  @DF-RHF Final Energy:  -599.01751075260358
    Total Energy =                       -599.0175107526035845
 Dipole X            :         -0.0000000            0.0000000           -0.0000000
 Dipole Y            :          0.0000000            0.0000000            0.0000000
 Dipole Z            :          0.0000000            0.0000000            0.0000000
 Magnitude           :                                                    0.0000000
  Basis Set: (AUG-CC-PVTZ AUX)
    Blend: AUG-CC-PVTZ-RI + DEF2-QZVPP-RI
	 Reference Energy          =    -599.0175107526035845 [Eh]
	 Singles Energy            =      -0.0000000000000000 [Eh]
	 Same-Spin Energy          =      -0.0305094948653029 [Eh]
	 Opposite-Spin Energy      =      -0.0729813438303612 [Eh]
	 Correlation Energy        =      -0.1034908386956640 [Eh]
	 Total Energy              =    -599.1210015912992048 [Eh]
	 SCS Total Energy          =    -599.1152581968217419 [Eh]
                               Psi4 1.9 release
    Molecular point group: c1
  Basis Set: AUG-CC-PVTZ
    Blend: AUG-CC-PVTZ
  Basis Set: (AUG-CC-PVTZ AUX)
    Blend: AUG-CC-PVTZ-JKFIT + DEF2-UNIVERSAL-JKFIT
  @DF-RHF Final Energy:   -76.06031428920718
    Total Energy =                        -76.0603142892071844
  Basis Set: (AUG-CC-PVTZ AUX)
                               Psi4 1.9 release
  @DF-RHF Final Energy:  -152.11953536676089
    Total Energy =                       -152.1195353667608856
                               Psi4 1.9 release
  @DF-RHF Final Energy:  -675.10481366256192
    Total Energy =                       -675.1048136625619236
                               Psi4 1.9 release
  @DF-RHF Final Energy:  -675.10481366256749
    Total Energy =                       -675.1048136625674942
                               Psi4 1.9 release
  Multiplicity = 1
  @DF-RHF Final Energy:   -76.06031428920235
    Total Energy =                        -76.0603142892023527
	 Singles Energy            =      -0.0000000000000000 [Eh]
	 Same-Spin Energy          =      -0.0684398683335214 [Eh]
	 Opposite-Spin Energy      =      -0.2155965331719821 [Eh]
	 Correlation Energy        =      -0.2840364015055035 [Eh]
	 Total Energy              =     -76.3443506907078557 [Eh]
	 SCS Total Energy          =     -76.3418434184532373 [Eh]
                               Psi4 1.9 release
    Molecular point group: c1

    Geometry (in Bohr), charge = 1, multiplicity = 1:

       Center              X                  Y                   Z               Mass
    ------------   -----------------  -----------------  -----------------  -----------------
         K            0.000000000000     0.000000000000     0.000000000000    38.963706486400
         O            5.010523783976     0.000000000000     0.000000000000    15.994914619570
         H            6.131454519540     1.428466654947     0.000000000000     1.007825032230
         H            6.131454519540    -1.428466654947     0.000000000000     1.007825032230
         O           -5.010523783976     0.000000000000     0.000000000000    15.994914619570
         H           -6.131454519540    -1.428466654947     0.000000000000     1.007825032230
         H           -6.131454519540     1.428466654947     0.000000000000     1.007825032230

  Charge       = 1
  Multiplicity = 1
  Basis Set: AUG-CC-PVTZ
    Blend: AUG-CC-PVTZ
  Basis Set: (AUG-CC-PVTZ AUX)
    Blend: AUG-CC-PVTZ-JKFIT + DEF2-UNIVERSAL-JKFIT

    Orbital Energies [Eh]
    ---------------------

    Doubly Occupied:

       1A   -133.669529     2A    -20.736666     3A    -20.736665
       4A    -14.626661     5A    -11.656700     6A    -11.656653
       7A    -11.656386     8A     -1.886927     9A     -1.524800
      10A     -1.524323    11A     -1.096923    12A     -1.095944
      13A     -1.093605    14A     -0.885330    15A     -0.885122
      16A     -0.774383    17A     -0.764120    18A     -0.684579
      19A     -0.684027

  @DF-RHF Final Energy:  -751.18878217394513

   => Energetics <=

    Nuclear Repulsion Energy =            100.6247934359943201
    One-Electron Energy =               -1228.3484573261116566
    Two-Electron Energy =                 376.5348817161721513
    Total Energy =                       -751.1887821739451283
 Dipole X            :         -0.0000000           -0.0000000           -0.0000000
 Dipole Y            :         -0.0000000            0.0000000           -0.0000000
 Dipole Z            :          0.0000000            0.0000000            0.0000000
 Magnitude           :                                                    0.0000000
  Basis Set: (AUG-CC-PVTZ AUX)
    Blend: AUG-CC-PVTZ-RI + DEF2-QZVPP-RI
	 Reference Energy          =    -751.1887821739451283 [Eh]
	 Singles Energy            =      -0.0000000000000000 [Eh]
	 Same-Spin Energy          =      -0.1688440873457222 [Eh]
	 Opposite-Spin Energy      =      -0.5037335736059653 [Eh]
	 Correlation Energy        =      -0.6725776609516875 [Eh]
	 Total Energy              =    -751.8613598348968026 [Eh]

	 ================> DF-SCS-MP2 Energies <==================
	-----------------------------------------------------------
	 SCS Same-Spin Scale       =       0.3333333333333333 [-]
	 SCS Opposite-Spin Scale   =       1.2000000000000000 [-]
	 SCS Same-Spin Energy      =      -0.0562813624485741 [Eh]
	 SCS Opposite-Spin Energy  =      -0.6044802883271583 [Eh]
	 SCS Correlation Energy    =      -0.6607616507757323 [Eh]
	 SCS Total Energy          =    -751.8495438247208540 [Eh]
	-----------------------------------------------------------

*** Psi4 exiting successfully. Buy a developer a beer!
