                               Psi4 1.9 release

  ==> Input File <==

--------------------------------------------------------------------------
MEMORY 60 GB

molecule dimer {
1 1
K          0.000000     0.000000     0.000000
O          3.282754     0.000000     0.000000
H          3.875924     0.755912     0.000000
H          3.875924    -0.755912     0.000000
O         -3.282754     0.000000     0.000000
H         -3.875924    -0.755912     0.000000
H         -3.875924     0.755912     0.000000

units ang
no_reorient
no_com
symmetry c1
}

set {
basis        aug-cc-pVTZ
scf_type     df
}

energy("mp2")
--------------------------------------------------------------------------

    Molecular point group: c1

    Geometry (in Angstrom), charge = 1, multiplicity = 1:

       Center              X                  Y                   Z               Mass
    ------------   -----------------  -----------------  -----------------  -----------------
         K            0.000000000000     0.000000000000     0.000000000000    38.963706486400
         O            3.282754000000     0.000000000000     0.000000000000    15.994914619570
         H            3.875924000000     0.755912000000     0.000000000000     1.007825032230
         H            3.875924000000    -0.755912000000     0.000000000000     1.007825032230
         O           -3.282754000000     0.000000000000     0.000000000000    15.994914619570
         H           -3.875924000000    -0.755912000000     0.000000000000     1.007825032230
         H           -3.875924000000     0.755912000000     0.000000000000     1.007825032230

  Charge       = 1
  Multiplicity = 1
  Basis Set: AUG-CC-PVTZ
    Blend: AUG-CC-PVTZ
  Basis Set: (AUG-CC-PVTZ AUX)
    Blend: AUG-CC-PVTZ-JKFIT + DEF2-UNIVERSAL-JKFIT

    Orbital Energies [Eh]
    ---------------------

    Doubly Occupied:

       1A   -133.703753     2A    -20.712568     3A    -20.712568
       4A    -14.659492     5A    -11.689592     6A    -11.689576
       7A    -11.689428     8A     -1.915449     9A     -1.497268
      10A     -1.497250    11A     -1.123712    12A     -1.123315
      13A     -1.119743    14A     -0.859006    15A     -0.858998
      16A     -0.739801    17A     -0.738802    18A     -0.657119
      19A     -0.657081

  @DF-RHF Final Energy:  -751.17932092419312

   => Energetics <=

    Nuclear Repulsion Energy =             85.2936885101601661
    One-Electron Energy =               -1197.6569735639470764
    Two-Electron Energy =                 361.1839641295938463
    Total Energy =                       -751.1793209241931208
 Dipole X            :         -0.0000000           -0.0000000           -0.0000000
 Dipole Y            :          0.0000000            0.0000000            0.0000000
 Dipole Z            :         -0.0000000            0.0000000           -0.0000000
 Magnitude           :                                                    0.0000000
  Basis Set: (AUG-CC-PVTZ AUX)
    Blend: AUG-CC-PVTZ-RI + DEF2-QZVPP-RI
	 Reference Energy          =    -751.1793209241931208 [Eh]
	 Singles Energy            =      -0.0000000000000000 [Eh]
	 Same-Spin Energy          =      -0.1644957876057509 [Eh]
	 Opposite-Spin Energy      =      -0.4937813740344982 [Eh]
	 Correlation Energy        =      -0.6582771616402491 [Eh]
	 Total Energy              =    -751.8375980858334060 [Eh]

	 ================> DF-SCS-MP2 Energies <==================
	-----------------------------------------------------------
	 SCS Same-Spin Scale       =       0.3333333333333333 [-]
	 SCS Opposite-Spin Scale   =       1.2000000000000000 [-]
	 SCS Same-Spin Energy      =      -0.0548319292019170 [Eh]
	 SCS Opposite-Spin Energy  =      -0.5925376488413978 [Eh]
	 SCS Correlation Energy    =      -0.6473695780433147 [Eh]
	 SCS Total Energy          =    -751.8266905022364881 [Eh]
	-----------------------------------------------------------

*** Psi4 exiting successfully. Buy a developer a beer!
