                               Psi4 1.9 release

  ==> Input File <==

--------------------------------------------------------------------------
MEMORY 60 GB

molecule dimer {
0 1
Gh(K)      0.000000     0.000000     0.000000
O          3.030234     0.000000     0.000000
H          3.623405     0.755912     0.000000
H          3.623405    -0.755912     0.000000
Gh(O)     -3.030234     0.000000     0.000000
Gh(H)     -3.623405    -0.755912     0.000000
Gh(H)     -3.623405     0.755912     0.000000

units ang
no_reorient
no_com
symmetry c1
}

set {
basis        aug-cc-pVTZ
scf_type     df
}

energy("mp2")
--------------------------------------------------------------------------

    Molecular point group: c1

    Geometry (in Angstrom), charge = 0, multiplicity = 1:

       Center              X                  Y                   Z               Mass
    ------------   -----------------  -----------------  -----------------  -----------------
      Gh(K)           0.000000000000     0.000000000000     0.000000000000    38.963706486400
         O            3.030234000000     0.000000000000     0.000000000000    15.994914619570
         H            3.623405000000     0.755912000000     0.000000000000     1.007825032230
         H            3.623405000000    -0.755912000000     0.000000000000     1.007825032230
      Gh(O)          -3.030234000000     0.000000000000     0.000000000000    15.994914619570
      Gh(H)          -3.623405000000    -0.755912000000     0.000000000000     1.007825032230
      Gh(H)          -3.623405000000     0.755912000000     0.000000000000     1.007825032230

  Charge       = 0
  Multiplicity = 1
  Basis Set: AUG-CC-PVTZ
    Blend: AUG-CC-PVTZ
  Basis Set: (AUG-CC-PVTZ AUX)
    Blend: AUG-CC-PVTZ-JKFIT + DEF2-UNIVERSAL-JKFIT

    Orbital Energies [Eh]
    ---------------------

    Doubly Occupied:

       1A    -20.568158     2A     -1.352275     3A     -0.714389
       4A     -0.585734     5A     -0.510272

  @DF-RHF Final Energy:   -76.06030303443458

   => Energetics <=

    Nuclear Repulsion Energy =              9.1617384230614540
    One-Electron Energy =                -122.9824234651339623
    Two-Electron Energy =                  37.7603820076379222
    Total Energy =                        -76.0603030344345825
 Dipole X            :        -58.7187530           59.5049850            0.7862321
 Dipole Y            :          0.0000000            0.0000000            0.0000000
 Dipole Z            :         -0.0000000            0.0000000           -0.0000000
 Magnitude           :                                                    0.7862321
  Basis Set: (AUG-CC-PVTZ AUX)
    Blend: AUG-CC-PVTZ-RI + DEF2-QZVPP-RI
	 Reference Energy          =     -76.0603030344345825 [Eh]
	 Singles Energy            =      -0.0000000000000000 [Eh]
	 Same-Spin Energy          =      -0.0684362820305193 [Eh]
	 Opposite-Spin Energy      =      -0.2155507553188745 [Eh]
	 Correlation Energy        =      -0.2839870373493937 [Eh]
	 Total Energy              =     -76.3442900717839734 [Eh]

	 ================> DF-SCS-MP2 Energies <==================
	-----------------------------------------------------------
	 SCS Same-Spin Scale       =       0.3333333333333333 [-]
	 SCS Opposite-Spin Scale   =       1.2000000000000000 [-]
	 SCS Same-Spin Energy      =      -0.0228120940101731 [Eh]
	 SCS Opposite-Spin Energy  =      -0.2586609063826493 [Eh]
	 SCS Correlation Energy    =      -0.2814730003928224 [Eh]
	 SCS Total Energy          =     -76.3417760348274044 [Eh]
	-----------------------------------------------------------

*** Psi4 exiting successfully. Buy a developer a beer!
