                               Psi4 1.9 release

  ==> Input File <==

--------------------------------------------------------------------------
MEMORY 60 GB

molecule dimer {
1 1
K          0.000000     0.000000     0.000000
O          2.651455     0.000000     0.000000
H          3.244626     0.755912     0.000000
H          3.244626    -0.755912     0.000000
O         -2.651455     0.000000     0.000000
H         -3.244626    -0.755912     0.000000
H         -3.244626     0.755912     0.000000

units ang
no_reorient
no_com
symmetry c1
}

set {
basis        aug-cc-pVTZ
scf_type     df
}

energy("mp2")
--------------------------------------------------------------------------

    Molecular point group: c1

    Geometry (in Angstrom), charge = 1, multiplicity = 1:

       Center              X                  Y                   Z               Mass
    ------------   -----------------  -----------------  -----------------  -----------------
         K            0.000000000000     0.000000000000     0.000000000000    38.963706486400
         O            2.651455000000     0.000000000000     0.000000000000    15.994914619570
         H            3.244626000000     0.755912000000     0.000000000000     1.007825032230
         H            3.244626000000    -0.755912000000     0.000000000000     1.007825032230
         O           -2.651455000000     0.000000000000     0.000000000000    15.994914619570
         H           -3.244626000000    -0.755912000000     0.000000000000     1.007825032230
         H           -3.244626000000     0.755912000000     0.000000000000     1.007825032230

  Charge       = 1
  Multiplicity = 1
  Basis Set: AUG-CC-PVTZ
    Blend: AUG-CC-PVTZ
  Basis Set: (AUG-CC-PVTZ AUX)
    Blend: AUG-CC-PVTZ-JKFIT + DEF2-UNIVERSAL-JKFIT

    Orbital Energies [Eh]
    ---------------------

    Doubly Occupied:

       1A   -133.669529     2A    -20.736666     3A    -20.736665
       4A    -14.626661     5A    -11.656700     6A    -11.656653
       7A    -11.656386     8A     -1.886927     9A     -1.524800
      10A     -1.524323    11A     -1.096923    12A     -1.095944
      13A     -1.093605    14A     -0.885330    15A     -0.885122
      16A     -0.774383    17A     -0.764120    18A     -0.684579
      19A     -0.684027

  @DF-RHF Final Energy:  -751.18878217394479

   => Energetics <=

    Nuclear Repulsion Energy =            100.6247934359943201
    One-Electron Energy =               -1228.3484573264038318
    Two-Electron Energy =                 376.5348817164648949
    Total Energy =                       -751.1887821739446736
 Dipole X            :         -0.0000000           -0.0000000           -0.0000000
 Dipole Y            :         -0.0000000            0.0000000           -0.0000000
 Dipole Z            :          0.0000000            0.0000000            0.0000000
 Magnitude           :                                                    0.0000000
  Basis Set: (AUG-CC-PVTZ AUX)
    Blend: AUG-CC-PVTZ-RI + DEF2-QZVPP-RI
	 Reference Energy          =    -751.1887821739447872 [Eh]
	 Singles Energy            =      -0.0000000000000000 [Eh]
	 Same-Spin Energy          =      -0.1688440873458831 [Eh]
	 Opposite-Spin Energy      =      -0.5037335736062959 [Eh]
	 Correlation Energy        =      -0.6725776609521790 [Eh]
	 Total Energy              =    -751.8613598348969163 [Eh]

	 ================> DF-SCS-MP2 Energies <==================
	-----------------------------------------------------------
	 SCS Same-Spin Scale       =       0.3333333333333333 [-]
	 SCS Opposite-Spin Scale   =       1.2000000000000000 [-]
	 SCS Same-Spin Energy      =      -0.0562813624486277 [Eh]
	 SCS Opposite-Spin Energy  =      -0.6044802883275551 [Eh]
	 SCS Correlation Energy    =      -0.6607616507761828 [Eh]
	 SCS Total Energy          =    -751.8495438247209677 [Eh]
	-----------------------------------------------------------

*** Psi4 exiting successfully. Buy a developer a beer!
