                               Psi4 1.9 release

  ==> Input File <==

--------------------------------------------------------------------------
MEMORY 60 GB

molecule dimer {
1 1
K          0.000000     0.000000     0.000000
Gh(O)      2.777715     0.000000     0.000000
Gh(H)      3.370886     0.755912     0.000000
Gh(H)      3.370886    -0.755912     0.000000
Gh(O)     -2.777715     0.000000     0.000000
Gh(H)     -3.370886    -0.755912     0.000000
Gh(H)     -3.370886     0.755912     0.000000

units ang
no_reorient
no_com
symmetry c1
}

set {
basis        aug-cc-pVTZ
scf_type     df
}

energy("mp2")
--------------------------------------------------------------------------

    Molecular point group: c1

    Geometry (in Angstrom), charge = 1, multiplicity = 1:

       Center              X                  Y                   Z               Mass
    ------------   -----------------  -----------------  -----------------  -----------------
         K            0.000000000000     0.000000000000     0.000000000000    38.963706486400
      Gh(O)           2.777715000000     0.000000000000     0.000000000000    15.994914619570
      Gh(H)           3.370886000000     0.755912000000     0.000000000000     1.007825032230
      Gh(H)           3.370886000000    -0.755912000000     0.000000000000     1.007825032230
      Gh(O)          -2.777715000000     0.000000000000     0.000000000000    15.994914619570
      Gh(H)          -3.370886000000    -0.755912000000     0.000000000000     1.007825032230
      Gh(H)          -3.370886000000     0.755912000000     0.000000000000     1.007825032230

  Charge       = 1
  Multiplicity = 1
  Basis Set: AUG-CC-PVTZ
    Blend: AUG-CC-PVTZ
  Basis Set: (AUG-CC-PVTZ AUX)
    Blend: AUG-CC-PVTZ-JKFIT + DEF2-UNIVERSAL-JKFIT

    Orbital Energies [Eh]
    ---------------------

    Doubly Occupied:

       1A   -133.753493     2A    -14.708990     3A    -11.739059
       4A    -11.739056     5A    -11.739055     6A     -1.964242
       7A     -1.170940     8A     -1.170839     9A     -1.170829

  @DF-RHF Final Energy:  -599.01751035154825

   => Energetics <=

    Nuclear Repulsion Energy =              0.0000000000000000
    One-Electron Energy =                -819.7220135604738971
    Two-Electron Energy =                 220.7045032089257006
    Total Energy =                       -599.0175103515482533
 Dipole X            :          0.0000000            0.0000000            0.0000000
 Dipole Y            :         -0.0000000            0.0000000           -0.0000000
 Dipole Z            :          0.0000000            0.0000000            0.0000000
 Magnitude           :                                                    0.0000000
  Basis Set: (AUG-CC-PVTZ AUX)
    Blend: AUG-CC-PVTZ-RI + DEF2-QZVPP-RI
	 Reference Energy          =    -599.0175103515482533 [Eh]
	 Singles Energy            =      -0.0000000000000000 [Eh]
	 Same-Spin Energy          =      -0.0297035009717627 [Eh]
	 Opposite-Spin Energy      =      -0.0706417137430497 [Eh]
	 Correlation Energy        =      -0.1003452147148124 [Eh]
	 Total Energy              =    -599.1178555662630743 [Eh]

	 ================> DF-SCS-MP2 Energies <==================
	-----------------------------------------------------------
	 SCS Same-Spin Scale       =       0.3333333333333333 [-]
	 SCS Opposite-Spin Scale   =       1.2000000000000000 [-]
	 SCS Same-Spin Energy      =      -0.0099011669905876 [Eh]
	 SCS Opposite-Spin Energy  =      -0.0847700564916596 [Eh]
	 SCS Correlation Energy    =      -0.0946712234822472 [Eh]
	 SCS Total Energy          =    -599.1121815750304904 [Eh]
	-----------------------------------------------------------

*** Psi4 exiting successfully. Buy a developer a beer!
