                               Psi4 1.9 release

  ==> Input File <==

--------------------------------------------------------------------------
MEMORY 60 GB

molecule dimer {
1 1
K      0.000000     0.000000     0.000000
--
0 1
O      3.282754     0.000000     0.000000
H      3.875924     0.755912     0.000000
H      3.875924    -0.755912     0.000000
--
0 1
O     -3.282754     0.000000     0.000000
H     -3.875924    -0.755912     0.000000
H     -3.875924     0.755912     0.000000

units ang
no_reorient
no_com
symmetry c1
}

set {
basis        aug-cc-pVTZ
scf_type     df
}

energy("mp2", bsse_type="cp")
--------------------------------------------------------------------------

                               Psi4 1.9 release
    Molecular point group: c1
  Charge       = 1
  Multiplicity = 1
  Basis Set: AUG-CC-PVTZ
    Blend: AUG-CC-PVTZ
  Basis Set: (AUG-CC-PVTZ AUX)
    Blend: AUG-CC-PVTZ-JKFIT + DEF2-UNIVERSAL-JKFIT
  @DF-RHF Final Energy:  -599.01750896226872
    Total Energy =                       -599.0175089622687210
 Dipole X            :          0.0000000            0.0000000            0.0000000
 Dipole Y            :         -0.0000000            0.0000000           -0.0000000
 Dipole Z            :          0.0000000            0.0000000            0.0000000
 Magnitude           :                                                    0.0000000
  Basis Set: (AUG-CC-PVTZ AUX)
    Blend: AUG-CC-PVTZ-RI + DEF2-QZVPP-RI
	 Reference Energy          =    -599.0175089622687210 [Eh]
	 Singles Energy            =      -0.0000000000000000 [Eh]
	 Same-Spin Energy          =      -0.0273639911977622 [Eh]
	 Opposite-Spin Energy      =      -0.0635556192038216 [Eh]
	 Correlation Energy        =      -0.0909196104015838 [Eh]
	 Total Energy              =    -599.1084285726702774 [Eh]
	 SCS Total Energy          =    -599.1028970357125445 [Eh]
                               Psi4 1.9 release
    Molecular point group: c1
  Basis Set: AUG-CC-PVTZ
    Blend: AUG-CC-PVTZ
  Basis Set: (AUG-CC-PVTZ AUX)
    Blend: AUG-CC-PVTZ-JKFIT + DEF2-UNIVERSAL-JKFIT
  @DF-RHF Final Energy:   -76.06029777600733
    Total Energy =                        -76.0602977760073458
  Basis Set: (AUG-CC-PVTZ AUX)
                               Psi4 1.9 release
  @DF-RHF Final Energy:  -152.11999958813260
    Total Energy =                       -152.1199995881326004
                               Psi4 1.9 release
  @DF-RHF Final Energy:  -675.09903909098307
    Total Energy =                       -675.0990390909830694
                               Psi4 1.9 release
  @DF-RHF Final Energy:  -675.09903909096045
    Total Energy =                       -675.0990390909604457
                               Psi4 1.9 release
  Multiplicity = 1
  @DF-RHF Final Energy:   -76.06029777601994
    Total Energy =                        -76.0602977760199224
	 Singles Energy            =      -0.0000000000000000 [Eh]
	 Same-Spin Energy          =      -0.0684326669725309 [Eh]
	 Opposite-Spin Energy      =      -0.2155174515182335 [Eh]
	 Correlation Energy        =      -0.2839501184907643 [Eh]
	 Total Energy              =     -76.3442478945107013 [Eh]
	 SCS Total Energy          =     -76.3417296068326579 [Eh]
                               Psi4 1.9 release
    Molecular point group: c1

    Geometry (in Bohr), charge = 1, multiplicity = 1:

       Center              X                  Y                   Z               Mass
    ------------   -----------------  -----------------  -----------------  -----------------
         K            0.000000000000     0.000000000000     0.000000000000    38.963706486400
         O            6.203505997251     0.000000000000     0.000000000000    15.994914619570
         H            7.324434843089     1.428466654947     0.000000000000     1.007825032230
         H            7.324434843089    -1.428466654947     0.000000000000     1.007825032230
         O           -6.203505997251     0.000000000000     0.000000000000    15.994914619570
         H           -7.324434843089    -1.428466654947     0.000000000000     1.007825032230
         H           -7.324434843089     1.428466654947     0.000000000000     1.007825032230

  Charge       = 1
  Multiplicity = 1
  Basis Set: AUG-CC-PVTZ
    Blend: AUG-CC-PVTZ
  Basis Set: (AUG-CC-PVTZ AUX)
    Blend: AUG-CC-PVTZ-JKFIT + DEF2-UNIVERSAL-JKFIT

    Orbital Energies [Eh]
    ---------------------

    Doubly Occupied:

       1A   -133.703753     2A    -20.712568     3A    -20.712568
       4A    -14.659492     5A    -11.689592     6A    -11.689576
       7A    -11.689428     8A     -1.915449     9A     -1.497268
      10A     -1.497250    11A     -1.123712    12A     -1.123315
      13A     -1.119743    14A     -0.859006    15A     -0.858998
      16A     -0.739801    17A     -0.738802    18A     -0.657119
      19A     -0.657081

  @DF-RHF Final Energy:  -751.17932092419323

   => Energetics <=

    Nuclear Repulsion Energy =             85.2936885101601661
    One-Electron Energy =               -1197.6569735644072807
    Two-Electron Energy =                 361.1839641300539370
    Total Energy =                       -751.1793209241932345
 Dipole X            :         -0.0000000           -0.0000000           -0.0000000
 Dipole Y            :          0.0000000            0.0000000            0.0000000
 Dipole Z            :         -0.0000000            0.0000000           -0.0000000
 Magnitude           :                                                    0.0000000
  Basis Set: (AUG-CC-PVTZ AUX)
    Blend: AUG-CC-PVTZ-RI + DEF2-QZVPP-RI
	 Reference Energy          =    -751.1793209241932345 [Eh]
	 Singles Energy            =      -0.0000000000000000 [Eh]
	 Same-Spin Energy          =      -0.1644957876059568 [Eh]
	 Opposite-Spin Energy      =      -0.4937813740349569 [Eh]
	 Correlation Energy        =      -0.6582771616409138 [Eh]
	 Total Energy              =    -751.8375980858342018 [Eh]

	 ================> DF-SCS-MP2 Energies <==================
	-----------------------------------------------------------
	 SCS Same-Spin Scale       =       0.3333333333333333 [-]
	 SCS Opposite-Spin Scale   =       1.2000000000000000 [-]
	 SCS Same-Spin Energy      =      -0.0548319292019856 [Eh]
	 SCS Opposite-Spin Energy  =      -0.5925376488419483 [Eh]
	 SCS Correlation Energy    =      -0.6473695780439339 [Eh]
	 SCS Total Energy          =    -751.8266905022371702 [Eh]
	-----------------------------------------------------------

*** Psi4 exiting successfully. Buy a developer a beer!
