                               Psi4 1.9 release

  ==> Input File <==

--------------------------------------------------------------------------
MEMORY 60 GB

molecule dimer {
1 1
K          0.000000     0.000000     0.000000
O          5.050390     0.000000     0.000000
H          5.643561     0.755912     0.000000
H          5.643561    -0.755912     0.000000
O         -5.050390     0.000000     0.000000
H         -5.643561    -0.755912     0.000000
H         -5.643561     0.755912     0.000000

units ang
no_reorient
no_com
symmetry c1
}

set {
basis        aug-cc-pVTZ
scf_type     df
}

energy("mp2")
--------------------------------------------------------------------------

    Molecular point group: c1

    Geometry (in Angstrom), charge = 1, multiplicity = 1:

       Center              X                  Y                   Z               Mass
    ------------   -----------------  -----------------  -----------------  -----------------
         K            0.000000000000     0.000000000000     0.000000000000    38.963706486400
         O            5.050390000000     0.000000000000     0.000000000000    15.994914619570
         H            5.643561000000     0.755912000000     0.000000000000     1.007825032230
         H            5.643561000000    -0.755912000000     0.000000000000     1.007825032230
         O           -5.050390000000     0.000000000000     0.000000000000    15.994914619570
         H           -5.643561000000    -0.755912000000     0.000000000000     1.007825032230
         H           -5.643561000000     0.755912000000     0.000000000000     1.007825032230

  Charge       = 1
  Multiplicity = 1
  Basis Set: AUG-CC-PVTZ
    Blend: AUG-CC-PVTZ
  Basis Set: (AUG-CC-PVTZ AUX)
    Blend: AUG-CC-PVTZ-JKFIT + DEF2-UNIVERSAL-JKFIT

    Orbital Energies [Eh]
    ---------------------

    Doubly Occupied:

       1A   -133.735344     2A    -20.665742     3A    -20.665742
       4A    -14.690769     5A    -11.720840     6A    -11.720838
       7A    -11.720815     8A     -1.945874     9A     -1.450174
      10A     -1.450174    11A     -1.152721    12A     -1.152666
      13A     -1.151944    14A     -0.812291    15A     -0.812291
      16A     -0.687063    17A     -0.687063    18A     -0.609127
      19A     -0.609127

  @DF-RHF Final Energy:  -751.15547080492638

   => Energetics <=

    Nuclear Repulsion Energy =             62.3588037826931725
    One-Electron Energy =               -1152.1473347921239565
    Two-Electron Energy =                 338.6330602045043747
    Total Energy =                       -751.1554708049263809
 Dipole X            :          0.0000000           -0.0000000            0.0000000
 Dipole Y            :         -0.0000000            0.0000000           -0.0000000
 Dipole Z            :         -0.0000000            0.0000000           -0.0000000
 Magnitude           :                                                    0.0000000
  Basis Set: (AUG-CC-PVTZ AUX)
    Blend: AUG-CC-PVTZ-RI + DEF2-QZVPP-RI
	 Reference Energy          =    -751.1554708049263809 [Eh]
	 Singles Energy            =      -0.0000000000000000 [Eh]
	 Same-Spin Energy          =      -0.1625533377567179 [Eh]
	 Opposite-Spin Energy      =      -0.4895520738906329 [Eh]
	 Correlation Energy        =      -0.6521054116473508 [Eh]
	 Total Energy              =    -751.8075762165736933 [Eh]

	 ================> DF-SCS-MP2 Energies <==================
	-----------------------------------------------------------
	 SCS Same-Spin Scale       =       0.3333333333333333 [-]
	 SCS Opposite-Spin Scale   =       1.2000000000000000 [-]
	 SCS Same-Spin Energy      =      -0.0541844459189060 [Eh]
	 SCS Opposite-Spin Energy  =      -0.5874624886687594 [Eh]
	 SCS Correlation Energy    =      -0.6416469345876654 [Eh]
	 SCS Total Energy          =    -751.7971177395140785 [Eh]
	-----------------------------------------------------------

*** Psi4 exiting successfully. Buy a developer a beer!
