                               Psi4 1.9 release

  ==> Input File <==

--------------------------------------------------------------------------
MEMORY 60 GB

molecule dimer {
1 1
K          0.000000     0.000000     0.000000
Gh(O)      2.525195     0.000000     0.000000
Gh(H)      3.118366     0.755912     0.000000
Gh(H)      3.118366    -0.755912     0.000000
Gh(O)     -2.525195     0.000000     0.000000
Gh(H)     -3.118366    -0.755912     0.000000
Gh(H)     -3.118366     0.755912     0.000000

units ang
no_reorient
no_com
symmetry c1
}

set {
basis        aug-cc-pVTZ
scf_type     df
}

energy("mp2")
--------------------------------------------------------------------------

    Molecular point group: c1

    Geometry (in Angstrom), charge = 1, multiplicity = 1:

       Center              X                  Y                   Z               Mass
    ------------   -----------------  -----------------  -----------------  -----------------
         K            0.000000000000     0.000000000000     0.000000000000    38.963706486400
      Gh(O)           2.525195000000     0.000000000000     0.000000000000    15.994914619570
      Gh(H)           3.118366000000     0.755912000000     0.000000000000     1.007825032230
      Gh(H)           3.118366000000    -0.755912000000     0.000000000000     1.007825032230
      Gh(O)          -2.525195000000     0.000000000000     0.000000000000    15.994914619570
      Gh(H)          -3.118366000000    -0.755912000000     0.000000000000     1.007825032230
      Gh(H)          -3.118366000000     0.755912000000     0.000000000000     1.007825032230

  Charge       = 1
  Multiplicity = 1
  Basis Set: AUG-CC-PVTZ
    Blend: AUG-CC-PVTZ
  Basis Set: (AUG-CC-PVTZ AUX)
    Blend: AUG-CC-PVTZ-JKFIT + DEF2-UNIVERSAL-JKFIT

    Orbital Energies [Eh]
    ---------------------

    Doubly Occupied:

       1A   -133.753360     2A    -14.708884     3A    -11.738954
       4A    -11.738951     5A    -11.738950     6A     -1.964193
       7A     -1.170914     8A     -1.170804     9A     -1.170787

  @DF-RHF Final Energy:  -599.01751115039474

   => Energetics <=

    Nuclear Repulsion Energy =              0.0000000000000000
    One-Electron Energy =                -819.7234305468199409
    Two-Electron Energy =                 220.7059193964251165
    Total Energy =                       -599.0175111503948528
 Dipole X            :         -0.0000000            0.0000000           -0.0000000
 Dipole Y            :         -0.0000000            0.0000000           -0.0000000
 Dipole Z            :         -0.0000000            0.0000000           -0.0000000
 Magnitude           :                                                    0.0000000
  Basis Set: (AUG-CC-PVTZ AUX)
    Blend: AUG-CC-PVTZ-RI + DEF2-QZVPP-RI
	 Reference Energy          =    -599.0175111503947392 [Eh]
	 Singles Energy            =      -0.0000000000000000 [Eh]
	 Same-Spin Energy          =      -0.0314102609781455 [Eh]
	 Opposite-Spin Energy      =      -0.0755610320064560 [Eh]
	 Correlation Energy        =      -0.1069712929846015 [Eh]
	 Total Energy              =    -599.1244824433792928 [Eh]

	 ================> DF-SCS-MP2 Energies <==================
	-----------------------------------------------------------
	 SCS Same-Spin Scale       =       0.3333333333333333 [-]
	 SCS Opposite-Spin Scale   =       1.2000000000000000 [-]
	 SCS Same-Spin Energy      =      -0.0104700869927152 [Eh]
	 SCS Opposite-Spin Energy  =      -0.0906732384077472 [Eh]
	 SCS Correlation Energy    =      -0.1011433254004623 [Eh]
	 SCS Total Energy          =    -599.1186544757952106 [Eh]
	-----------------------------------------------------------

*** Psi4 exiting successfully. Buy a developer a beer!
