                               Psi4 1.9 release

  ==> Input File <==

--------------------------------------------------------------------------
MEMORY 60 GB

molecule dimer {
0 1
Gh(K)      0.000000     0.000000     0.000000
O          3.535273     0.000000     0.000000
H          4.128444     0.755912     0.000000
H          4.128444    -0.755912     0.000000
Gh(O)     -3.535273     0.000000     0.000000
Gh(H)     -4.128444    -0.755912     0.000000
Gh(H)     -4.128444     0.755912     0.000000

units ang
no_reorient
no_com
symmetry c1
}

set {
basis        aug-cc-pVTZ
scf_type     df
}

energy("mp2")
--------------------------------------------------------------------------

    Molecular point group: c1

    Geometry (in Angstrom), charge = 0, multiplicity = 1:

       Center              X                  Y                   Z               Mass
    ------------   -----------------  -----------------  -----------------  -----------------
      Gh(K)           0.000000000000     0.000000000000     0.000000000000    38.963706486400
         O            3.535273000000     0.000000000000     0.000000000000    15.994914619570
         H            4.128444000000     0.755912000000     0.000000000000     1.007825032230
         H            4.128444000000    -0.755912000000     0.000000000000     1.007825032230
      Gh(O)          -3.535273000000     0.000000000000     0.000000000000    15.994914619570
      Gh(H)          -4.128444000000    -0.755912000000     0.000000000000     1.007825032230
      Gh(H)          -4.128444000000     0.755912000000     0.000000000000     1.007825032230

  Charge       = 0
  Multiplicity = 1
  Basis Set: AUG-CC-PVTZ
    Blend: AUG-CC-PVTZ
  Basis Set: (AUG-CC-PVTZ AUX)
    Blend: AUG-CC-PVTZ-JKFIT + DEF2-UNIVERSAL-JKFIT

    Orbital Energies [Eh]
    ---------------------

    Doubly Occupied:

       1A    -20.568183     2A     -1.352291     3A     -0.714402
       4A     -0.585740     5A     -0.510287

  @DF-RHF Final Energy:   -76.06029378705443

   => Energetics <=

    Nuclear Repulsion Energy =              9.1617384230614540
    One-Electron Energy =                -122.9822563918842917
    Two-Electron Energy =                  37.7602241817684074
    Total Energy =                        -76.0602937870544338
 Dipole X            :        -68.2622931           69.0488390            0.7865458
 Dipole Y            :          0.0000000            0.0000000            0.0000000
 Dipole Z            :          0.0000000            0.0000000            0.0000000
 Magnitude           :                                                    0.7865458
  Basis Set: (AUG-CC-PVTZ AUX)
    Blend: AUG-CC-PVTZ-RI + DEF2-QZVPP-RI
	 Reference Energy          =     -76.0602937870544338 [Eh]
	 Singles Energy            =      -0.0000000000000000 [Eh]
	 Same-Spin Energy          =      -0.0684289173774911 [Eh]
	 Opposite-Spin Energy      =      -0.2154867039947960 [Eh]
	 Correlation Energy        =      -0.2839156213722870 [Eh]
	 Total Energy              =     -76.3442094084267211 [Eh]

	 ================> DF-SCS-MP2 Energies <==================
	-----------------------------------------------------------
	 SCS Same-Spin Scale       =       0.3333333333333333 [-]
	 SCS Opposite-Spin Scale   =       1.2000000000000000 [-]
	 SCS Same-Spin Energy      =      -0.0228096391258304 [Eh]
	 SCS Opposite-Spin Energy  =      -0.2585840447937551 [Eh]
	 SCS Correlation Energy    =      -0.2813936839195855 [Eh]
	 SCS Total Energy          =     -76.3416874709740227 [Eh]
	-----------------------------------------------------------

*** Psi4 exiting successfully. Buy a developer a beer!
