                               Psi4 1.9 release

  ==> Input File <==

--------------------------------------------------------------------------
MEMORY 60 GB

molecule dimer {
1 1
K          0.000000     0.000000     0.000000
Gh(O)      3.030234     0.000000     0.000000
Gh(H)      3.623405     0.755912     0.000000
Gh(H)      3.623405    -0.755912     0.000000
Gh(O)     -3.030234     0.000000     0.000000
Gh(H)     -3.623405    -0.755912     0.000000
Gh(H)     -3.623405     0.755912     0.000000

units ang
no_reorient
no_com
symmetry c1
}

set {
basis        aug-cc-pVTZ
scf_type     df
}

energy("mp2")
--------------------------------------------------------------------------

    Molecular point group: c1

    Geometry (in Angstrom), charge = 1, multiplicity = 1:

       Center              X                  Y                   Z               Mass
    ------------   -----------------  -----------------  -----------------  -----------------
         K            0.000000000000     0.000000000000     0.000000000000    38.963706486400
      Gh(O)           3.030234000000     0.000000000000     0.000000000000    15.994914619570
      Gh(H)           3.623405000000     0.755912000000     0.000000000000     1.007825032230
      Gh(H)           3.623405000000    -0.755912000000     0.000000000000     1.007825032230
      Gh(O)          -3.030234000000     0.000000000000     0.000000000000    15.994914619570
      Gh(H)          -3.623405000000    -0.755912000000     0.000000000000     1.007825032230
      Gh(H)          -3.623405000000     0.755912000000     0.000000000000     1.007825032230

  Charge       = 1
  Multiplicity = 1
  Basis Set: AUG-CC-PVTZ
    Blend: AUG-CC-PVTZ
  Basis Set: (AUG-CC-PVTZ AUX)
    Blend: AUG-CC-PVTZ-JKFIT + DEF2-UNIVERSAL-JKFIT

    Orbital Energies [Eh]
    ---------------------

    Doubly Occupied:

       1A   -133.753535     2A    -14.709027     3A    -11.739092
       4A    -11.739088     5A    -11.739087     6A     -1.964271
       7A     -1.170940     8A     -1.170853     9A     -1.170848

  @DF-RHF Final Energy:  -599.01750955929606

   => Energetics <=

    Nuclear Repulsion Energy =              0.0000000000000000
    One-Electron Energy =                -819.7215368772981492
    Two-Electron Energy =                 220.7040273180022041
    Total Energy =                       -599.0175095592959451
 Dipole X            :          0.0000000            0.0000000            0.0000000
 Dipole Y            :          0.0000000            0.0000000            0.0000000
 Dipole Z            :          0.0000000            0.0000000            0.0000000
 Magnitude           :                                                    0.0000000
  Basis Set: (AUG-CC-PVTZ AUX)
    Blend: AUG-CC-PVTZ-RI + DEF2-QZVPP-RI
	 Reference Energy          =    -599.0175095592960588 [Eh]
	 Singles Energy            =      -0.0000000000000000 [Eh]
	 Same-Spin Energy          =      -0.0283335416931777 [Eh]
	 Opposite-Spin Energy      =      -0.0664639212941991 [Eh]
	 Correlation Energy        =      -0.0947974629873768 [Eh]
	 Total Energy              =    -599.1123070222834031 [Eh]

	 ================> DF-SCS-MP2 Energies <==================
	-----------------------------------------------------------
	 SCS Same-Spin Scale       =       0.3333333333333333 [-]
	 SCS Opposite-Spin Scale   =       1.2000000000000000 [-]
	 SCS Same-Spin Energy      =      -0.0094445138977259 [Eh]
	 SCS Opposite-Spin Energy  =      -0.0797567055530390 [Eh]
	 SCS Correlation Energy    =      -0.0892012194507649 [Eh]
	 SCS Total Energy          =    -599.1067107787467876 [Eh]
	-----------------------------------------------------------

*** Psi4 exiting successfully. Buy a developer a beer!
