                               Psi4 1.9 release

  ==> Input File <==

--------------------------------------------------------------------------
MEMORY 60 GB

molecule dimer {
1 1
K      0.000000     0.000000     0.000000
--
0 1
O      2.272676     0.000000     0.000000
H      2.865846     0.755912     0.000000
H      2.865846    -0.755912     0.000000
--
0 1
O     -2.272676     0.000000     0.000000
H     -2.865846    -0.755912     0.000000
H     -2.865846     0.755912     0.000000

units ang
no_reorient
no_com
symmetry c1
}

set {
basis        aug-cc-pVTZ
scf_type     df
}

energy("mp2", bsse_type="cp")
--------------------------------------------------------------------------

                               Psi4 1.9 release
    Molecular point group: c1
  Charge       = 1
  Multiplicity = 1
  Basis Set: AUG-CC-PVTZ
    Blend: AUG-CC-PVTZ
  Basis Set: (AUG-CC-PVTZ AUX)
    Blend: AUG-CC-PVTZ-JKFIT + DEF2-UNIVERSAL-JKFIT
  @DF-RHF Final Energy:  -599.01751198499596
    Total Energy =                       -599.0175119849959628
 Dipole X            :          0.0000000            0.0000000            0.0000000
 Dipole Y            :         -0.0000000            0.0000000           -0.0000000
 Dipole Z            :          0.0000000            0.0000000            0.0000000
 Magnitude           :                                                    0.0000000
  Basis Set: (AUG-CC-PVTZ AUX)
    Blend: AUG-CC-PVTZ-RI + DEF2-QZVPP-RI
	 Reference Energy          =    -599.0175119849959628 [Eh]
	 Singles Energy            =      -0.0000000000000000 [Eh]
	 Same-Spin Energy          =      -0.0335381155240754 [Eh]
	 Opposite-Spin Energy      =      -0.0817158512076085 [Eh]
	 Correlation Energy        =      -0.1152539667316840 [Eh]
	 Total Energy              =    -599.1327659517276061 [Eh]
	 SCS Total Energy          =    -599.1267503782864878 [Eh]
                               Psi4 1.9 release
    Molecular point group: c1
  Basis Set: AUG-CC-PVTZ
    Blend: AUG-CC-PVTZ
  Basis Set: (AUG-CC-PVTZ AUX)
    Blend: AUG-CC-PVTZ-JKFIT + DEF2-UNIVERSAL-JKFIT
  @DF-RHF Final Energy:   -76.06033322586448
    Total Energy =                        -76.0603332258644969
  Basis Set: (AUG-CC-PVTZ AUX)
                               Psi4 1.9 release
  @DF-RHF Final Energy:  -152.11898491888206
    Total Energy =                       -152.1189849188820347
                               Psi4 1.9 release
  @DF-RHF Final Energy:  -675.09448876768715
    Total Energy =                       -675.0944887676870394
                               Psi4 1.9 release
  @DF-RHF Final Energy:  -675.09448876770909
    Total Energy =                       -675.0944887677089810
                               Psi4 1.9 release
  Multiplicity = 1
  @DF-RHF Final Energy:   -76.06033322585544
    Total Energy =                        -76.0603332258554445
	 Singles Energy            =      -0.0000000000000000 [Eh]
	 Same-Spin Energy          =      -0.0684431481758459 [Eh]
	 Opposite-Spin Energy      =      -0.2156483368110833 [Eh]
	 Correlation Energy        =      -0.2840914849869292 [Eh]
	 Total Energy              =     -76.3444247108423752 [Eh]
	 SCS Total Energy          =     -76.3419256127540251 [Eh]
                               Psi4 1.9 release
    Molecular point group: c1

    Geometry (in Bohr), charge = 1, multiplicity = 1:

       Center              X                  Y                   Z               Mass
    ------------   -----------------  -----------------  -----------------  -----------------
         K            0.000000000000     0.000000000000     0.000000000000    38.963706486400
         O            4.294735211901     0.000000000000     0.000000000000    15.994914619570
         H            5.415664057739     1.428466654947     0.000000000000     1.007825032230
         H            5.415664057739    -1.428466654947     0.000000000000     1.007825032230
         O           -4.294735211901     0.000000000000     0.000000000000    15.994914619570
         H           -5.415664057739    -1.428466654947     0.000000000000     1.007825032230
         H           -5.415664057739     1.428466654947     0.000000000000     1.007825032230

  Charge       = 1
  Multiplicity = 1
  Basis Set: AUG-CC-PVTZ
    Blend: AUG-CC-PVTZ
  Basis Set: (AUG-CC-PVTZ AUX)
    Blend: AUG-CC-PVTZ-JKFIT + DEF2-UNIVERSAL-JKFIT

    Orbital Energies [Eh]
    ---------------------

    Doubly Occupied:

       1A   -133.628551     2A    -20.748523     3A    -20.748523
       4A    -14.589580     5A    -11.619243     6A    -11.619143
       7A    -11.619019     8A     -1.862575     9A     -1.546598
      10A     -1.543160    11A     -1.084907    12A     -1.073220
      13A     -1.071364    14A     -0.903765    15A     -0.902198
      16A     -0.801500    17A     -0.759956    18A     -0.704547
      19A     -0.701723

  @DF-RHF Final Energy:  -751.16387364002344

   => Energetics <=

    Nuclear Repulsion Energy =            113.7516314290683965
    One-Electron Energy =               -1254.7748144521904123
    Two-Electron Energy =                 389.8593093830986618
    Total Energy =                       -751.1638736400234393
 Dipole X            :         -0.0000000            0.0000000           -0.0000000
 Dipole Y            :         -0.0000000            0.0000000           -0.0000000
 Dipole Z            :         -0.0000000            0.0000000           -0.0000000
 Magnitude           :                                                    0.0000000
  Basis Set: (AUG-CC-PVTZ AUX)
    Blend: AUG-CC-PVTZ-RI + DEF2-QZVPP-RI
	 Reference Energy          =    -751.1638736400234393 [Eh]
	 Singles Energy            =      -0.0000000000000000 [Eh]
	 Same-Spin Energy          =      -0.1740730228144171 [Eh]
	 Opposite-Spin Energy      =      -0.5135791386268957 [Eh]
	 Correlation Energy        =      -0.6876521614413129 [Eh]
	 Total Energy              =    -751.8515258014647316 [Eh]

	 ================> DF-SCS-MP2 Energies <==================
	-----------------------------------------------------------
	 SCS Same-Spin Scale       =       0.3333333333333333 [-]
	 SCS Opposite-Spin Scale   =       1.2000000000000000 [-]
	 SCS Same-Spin Energy      =      -0.0580243409381390 [Eh]
	 SCS Opposite-Spin Energy  =      -0.6162949663522749 [Eh]
	 SCS Correlation Energy    =      -0.6743193072904139 [Eh]
	 SCS Total Energy          =    -751.8381929473138143 [Eh]
	-----------------------------------------------------------

*** Psi4 exiting successfully. Buy a developer a beer!
