                               Psi4 1.9 release

  ==> Input File <==

--------------------------------------------------------------------------
MEMORY 60 GB

molecule dimer {
1 1
K      0.000000     0.000000     0.000000
--
0 1
O      2.777715     0.000000     0.000000
H      3.370886     0.755912     0.000000
H      3.370886    -0.755912     0.000000
O     -2.777715     0.000000     0.000000
H     -3.370886    -0.755912     0.000000
H     -3.370886     0.755912     0.000000

units ang
no_reorient
no_com
symmetry c1
}

set {
basis        aug-cc-pVTZ
scf_type     df
}

energy("mp2", bsse_type="cp")
--------------------------------------------------------------------------

                               Psi4 1.9 release
    Molecular point group: c1
  Charge       = 0
  Multiplicity = 1
  Basis Set: AUG-CC-PVTZ
    Blend: AUG-CC-PVTZ
  Basis Set: (AUG-CC-PVTZ AUX)
    Blend: AUG-CC-PVTZ-JKFIT + DEF2-UNIVERSAL-JKFIT
  @DF-RHF Final Energy:  -152.11966035492904
    Total Energy =                       -152.1196603549290103
 Dipole X            :         -0.0000000            0.0000000           -0.0000000
 Dipole Y            :         -0.0000000            0.0000000           -0.0000000
 Dipole Z            :          0.0000000            0.0000000            0.0000000
 Magnitude           :                                                    0.0000000
  Basis Set: (AUG-CC-PVTZ AUX)
    Blend: AUG-CC-PVTZ-RI + DEF2-QZVPP-RI
	 Reference Energy          =    -152.1196603549290387 [Eh]
	 Singles Energy            =      -0.0000000000000000 [Eh]
	 Same-Spin Energy          =      -0.1369189249301191 [Eh]
	 Opposite-Spin Energy      =      -0.4312702097660579 [Eh]
	 Correlation Energy        =      -0.5681891346961769 [Eh]
	 Total Energy              =    -152.6878494896252221 [Eh]
	 SCS Total Energy          =    -152.6828242482916949 [Eh]
                               Psi4 1.9 release
    Molecular point group: c1
  Multiplicity = 1
  Basis Set: AUG-CC-PVTZ
    Blend: AUG-CC-PVTZ
  Basis Set: (AUG-CC-PVTZ AUX)
    Blend: AUG-CC-PVTZ-JKFIT + DEF2-UNIVERSAL-JKFIT
  @DF-RHF Final Energy:  -599.01751035154746
    Total Energy =                       -599.0175103515474575
  Basis Set: (AUG-CC-PVTZ AUX)
	 Singles Energy            =      -0.0000000000000000 [Eh]
	 Same-Spin Energy          =      -0.0297035009719230 [Eh]
	 Opposite-Spin Energy      =      -0.0706417137432294 [Eh]
	 Correlation Energy        =      -0.1003452147151524 [Eh]
	 Total Energy              =    -599.1178555662626195 [Eh]
	 SCS Total Energy          =    -599.1121815750299220 [Eh]
                               Psi4 1.9 release
    Molecular point group: c1

    Geometry (in Bohr), charge = 1, multiplicity = 1:

       Center              X                  Y                   Z               Mass
    ------------   -----------------  -----------------  -----------------  -----------------
         K            0.000000000000     0.000000000000     0.000000000000    38.963706486400
         O            5.249120604576     0.000000000000     0.000000000000    15.994914619570
         H            6.370051340140     1.428466654947     0.000000000000     1.007825032230
         H            6.370051340140    -1.428466654947     0.000000000000     1.007825032230
         O           -5.249120604576     0.000000000000     0.000000000000    15.994914619570
         H           -6.370051340140    -1.428466654947     0.000000000000     1.007825032230
         H           -6.370051340140     1.428466654947     0.000000000000     1.007825032230

  Charge       = 1
  Multiplicity = 1
  Basis Set: AUG-CC-PVTZ
    Blend: AUG-CC-PVTZ
  Basis Set: (AUG-CC-PVTZ AUX)
    Blend: AUG-CC-PVTZ-JKFIT + DEF2-UNIVERSAL-JKFIT

    Orbital Energies [Eh]
    ---------------------

    Doubly Occupied:

       1A   -133.678823     2A    -20.731908     3A    -20.731908
       4A    -14.635399     5A    -11.665476     6A    -11.665438
       7A    -11.665188     8A     -1.893938     9A     -1.518665
      10A     -1.518417    11A     -1.103533    12A     -1.102722
      13A     -1.099105    14A     -0.879641    15A     -0.879533
      16A     -0.766410    17A     -0.759980    18A     -0.678587
      19A     -0.678261

  @DF-RHF Final Energy:  -751.18871109541203

   => Energetics <=

    Nuclear Repulsion Energy =             97.0195606394448475
    One-Electron Energy =               -1221.1106773268334109
    Two-Electron Energy =                 372.9024055919766738
    Total Energy =                       -751.1887110954119180
 Dipole X            :          0.0000000            0.0000000            0.0000000
 Dipole Y            :         -0.0000000            0.0000000           -0.0000000
 Dipole Z            :          0.0000000            0.0000000            0.0000000
 Magnitude           :                                                    0.0000000
  Basis Set: (AUG-CC-PVTZ AUX)
    Blend: AUG-CC-PVTZ-RI + DEF2-QZVPP-RI
	 Reference Energy          =    -751.1887110954120317 [Eh]
	 Singles Energy            =      -0.0000000000000000 [Eh]
	 Same-Spin Energy          =      -0.1676506252324380 [Eh]
	 Opposite-Spin Energy      =      -0.5012326490289183 [Eh]
	 Correlation Energy        =      -0.6688832742613563 [Eh]
	 Total Energy              =    -751.8575943696733930 [Eh]

	 ================> DF-SCS-MP2 Energies <==================
	-----------------------------------------------------------
	 SCS Same-Spin Scale       =       0.3333333333333333 [-]
	 SCS Opposite-Spin Scale   =       1.2000000000000000 [-]
	 SCS Same-Spin Energy      =      -0.0558835417441460 [Eh]
	 SCS Opposite-Spin Energy  =      -0.6014791788347019 [Eh]
	 SCS Correlation Energy    =      -0.6573627205788479 [Eh]
	 SCS Total Energy          =    -751.8460738159908487 [Eh]
	-----------------------------------------------------------

*** Psi4 exiting successfully. Buy a developer a beer!
