                               Psi4 1.9 release

  ==> Input File <==

--------------------------------------------------------------------------
MEMORY 60 GB

molecule dimer {
0 1
Gh(K)      0.000000     0.000000     0.000000
Gh(O)      3.282754     0.000000     0.000000
Gh(H)      3.875924     0.755912     0.000000
Gh(H)      3.875924    -0.755912     0.000000
O         -3.282754     0.000000     0.000000
H         -3.875924    -0.755912     0.000000
H         -3.875924     0.755912     0.000000

units ang
no_reorient
no_com
symmetry c1
}

set {
basis        aug-cc-pVTZ
scf_type     df
}

energy("mp2")
--------------------------------------------------------------------------

    Molecular point group: c1

    Geometry (in Angstrom), charge = 0, multiplicity = 1:

       Center              X                  Y                   Z               Mass
    ------------   -----------------  -----------------  -----------------  -----------------
      Gh(K)           0.000000000000     0.000000000000     0.000000000000    38.963706486400
      Gh(O)           3.282754000000     0.000000000000     0.000000000000    15.994914619570
      Gh(H)           3.875924000000     0.755912000000     0.000000000000     1.007825032230
      Gh(H)           3.875924000000    -0.755912000000     0.000000000000     1.007825032230
         O           -3.282754000000     0.000000000000     0.000000000000    15.994914619570
         H           -3.875924000000    -0.755912000000     0.000000000000     1.007825032230
         H           -3.875924000000     0.755912000000     0.000000000000     1.007825032230

  Charge       = 0
  Multiplicity = 1
  Basis Set: AUG-CC-PVTZ
    Blend: AUG-CC-PVTZ
  Basis Set: (AUG-CC-PVTZ AUX)
    Blend: AUG-CC-PVTZ-JKFIT + DEF2-UNIVERSAL-JKFIT

    Orbital Energies [Eh]
    ---------------------

    Doubly Occupied:

       1A    -20.568173     2A     -1.352285     3A     -0.714398
       4A     -0.585738     5A     -0.510281

  @DF-RHF Final Energy:   -76.06029777602015

   => Energetics <=

    Nuclear Repulsion Energy =              9.1617440843947833
    One-Electron Energy =                -122.9823318840676336
    Two-Electron Energy =                  37.7602900236527148
    Total Energy =                        -76.0602977760201355
 Dipole X            :         63.4904942          -64.2769177           -0.7864235
 Dipole Y            :          0.0000000            0.0000000            0.0000000
 Dipole Z            :         -0.0000000            0.0000000           -0.0000000
 Magnitude           :                                                    0.7864235
  Basis Set: (AUG-CC-PVTZ AUX)
    Blend: AUG-CC-PVTZ-RI + DEF2-QZVPP-RI
	 Reference Energy          =     -76.0602977760201497 [Eh]
	 Singles Energy            =      -0.0000000000000000 [Eh]
	 Same-Spin Energy          =      -0.0684326669725308 [Eh]
	 Opposite-Spin Energy      =      -0.2155174515182341 [Eh]
	 Correlation Energy        =      -0.2839501184907648 [Eh]
	 Total Energy              =     -76.3442478945109144 [Eh]

	 ================> DF-SCS-MP2 Energies <==================
	-----------------------------------------------------------
	 SCS Same-Spin Scale       =       0.3333333333333333 [-]
	 SCS Opposite-Spin Scale   =       1.2000000000000000 [-]
	 SCS Same-Spin Energy      =      -0.0228108889908436 [Eh]
	 SCS Opposite-Spin Energy  =      -0.2586209418218809 [Eh]
	 SCS Correlation Energy    =      -0.2814318308127245 [Eh]
	 SCS Total Energy          =     -76.3417296068328710 [Eh]
	-----------------------------------------------------------

*** Psi4 exiting successfully. Buy a developer a beer!
