                               Psi4 1.9 release

  ==> Input File <==

--------------------------------------------------------------------------
MEMORY 60 GB

molecule dimer {
1 1
K      0.000000     0.000000     0.000000
--
0 1
O      2.398935     0.000000     0.000000
H      2.992106     0.755912     0.000000
H      2.992106    -0.755912     0.000000
--
0 1
O     -2.398935     0.000000     0.000000
H     -2.992106    -0.755912     0.000000
H     -2.992106     0.755912     0.000000

units ang
no_reorient
no_com
symmetry c1
}

set {
basis        aug-cc-pVTZ
scf_type     df
}

energy("mp2", bsse_type="cp")
--------------------------------------------------------------------------

                               Psi4 1.9 release
    Molecular point group: c1
  Charge       = 1
  Multiplicity = 1
  Basis Set: AUG-CC-PVTZ
    Blend: AUG-CC-PVTZ
  Basis Set: (AUG-CC-PVTZ AUX)
    Blend: AUG-CC-PVTZ-JKFIT + DEF2-UNIVERSAL-JKFIT
  @DF-RHF Final Energy:  -599.01751154924716
    Total Energy =                       -599.0175115492472742
 Dipole X            :          0.0000000            0.0000000            0.0000000
 Dipole Y            :         -0.0000000            0.0000000           -0.0000000
 Dipole Z            :         -0.0000000            0.0000000           -0.0000000
 Magnitude           :                                                    0.0000000
  Basis Set: (AUG-CC-PVTZ AUX)
    Blend: AUG-CC-PVTZ-RI + DEF2-QZVPP-RI
	 Reference Energy          =    -599.0175115492471605 [Eh]
	 Singles Energy            =      -0.0000000000000000 [Eh]
	 Same-Spin Energy          =      -0.0324159115896958 [Eh]
	 Opposite-Spin Energy      =      -0.0784490240084887 [Eh]
	 Correlation Energy        =      -0.1108649355981845 [Eh]
	 Total Energy              =    -599.1283764848453757 [Eh]
	 SCS Total Energy          =    -599.1224556819205418 [Eh]
                               Psi4 1.9 release
    Molecular point group: c1
  Basis Set: AUG-CC-PVTZ
    Blend: AUG-CC-PVTZ
  Basis Set: (AUG-CC-PVTZ AUX)
    Blend: AUG-CC-PVTZ-JKFIT + DEF2-UNIVERSAL-JKFIT
  @DF-RHF Final Energy:   -76.06032659351192
    Total Energy =                        -76.0603265935119168
  Basis Set: (AUG-CC-PVTZ AUX)
                               Psi4 1.9 release
  @DF-RHF Final Energy:  -152.11920661575516
    Total Energy =                       -152.1192066157551608
                               Psi4 1.9 release
  @DF-RHF Final Energy:  -675.10099109041380
    Total Energy =                       -675.1009910904137996
                               Psi4 1.9 release
  @DF-RHF Final Energy:  -675.10099109040084
    Total Energy =                       -675.1009910904008393
                               Psi4 1.9 release
  Multiplicity = 1
  @DF-RHF Final Energy:   -76.06032659352391
    Total Energy =                        -76.0603265935239108
	 Singles Energy            =      -0.0000000000000000 [Eh]
	 Same-Spin Energy          =      -0.0684418420256715 [Eh]
	 Opposite-Spin Energy      =      -0.2156299178566094 [Eh]
	 Correlation Energy        =      -0.2840717598822809 [Eh]
	 Total Energy              =     -76.3443983534061914 [Eh]
	 SCS Total Energy          =     -76.3418964422937307 [Eh]
                               Psi4 1.9 release
    Molecular point group: c1

    Geometry (in Bohr), charge = 1, multiplicity = 1:

       Center              X                  Y                   Z               Mass
    ------------   -----------------  -----------------  -----------------  -----------------
         K            0.000000000000     0.000000000000     0.000000000000    38.963706486400
         O            4.533330142775     0.000000000000     0.000000000000    15.994914619570
         H            5.654260878339     1.428466654947     0.000000000000     1.007825032230
         H            5.654260878339    -1.428466654947     0.000000000000     1.007825032230
         O           -4.533330142775     0.000000000000     0.000000000000    15.994914619570
         H           -5.654260878339    -1.428466654947     0.000000000000     1.007825032230
         H           -5.654260878339     1.428466654947     0.000000000000     1.007825032230

  Charge       = 1
  Multiplicity = 1
  Basis Set: AUG-CC-PVTZ
    Blend: AUG-CC-PVTZ
  Basis Set: (AUG-CC-PVTZ AUX)
    Blend: AUG-CC-PVTZ-JKFIT + DEF2-UNIVERSAL-JKFIT

    Orbital Energies [Eh]
    ---------------------

    Doubly Occupied:

       1A   -133.644890     2A    -20.745165     3A    -20.745165
       4A    -14.604112     5A    -11.633965     6A    -11.633888
       7A    -11.633661     8A     -1.871037     9A     -1.538537
      10A     -1.536763    11A     -1.085412    12A     -1.081675
      13A     -1.080212    14A     -0.897348    15A     -0.896560
      16A     -0.792003    17A     -0.765842    18A     -0.697464
      19A     -0.695840

  @DF-RHF Final Energy:  -751.17887374863801

   => Energetics <=

    Nuclear Repulsion Energy =            108.9319001694124012
    One-Electron Energy =               -1245.0624705764266764
    Two-Electron Energy =                 384.9516966583763065
    Total Energy =                       -751.1788737486381251
 Dipole X            :          0.0000000            0.0000000            0.0000000
 Dipole Y            :         -0.0000000            0.0000000           -0.0000000
 Dipole Z            :         -0.0000000            0.0000000           -0.0000000
 Magnitude           :                                                    0.0000000
  Basis Set: (AUG-CC-PVTZ AUX)
    Blend: AUG-CC-PVTZ-RI + DEF2-QZVPP-RI
	 Reference Energy          =    -751.1788737486380114 [Eh]
	 Singles Energy            =      -0.0000000000000000 [Eh]
	 Same-Spin Energy          =      -0.1719753703590718 [Eh]
	 Opposite-Spin Energy      =      -0.5097728909361671 [Eh]
	 Correlation Energy        =      -0.6817482612952388 [Eh]
	 Total Energy              =    -751.8606220099331949 [Eh]

	 ================> DF-SCS-MP2 Energies <==================
	-----------------------------------------------------------
	 SCS Same-Spin Scale       =       0.3333333333333333 [-]
	 SCS Opposite-Spin Scale   =       1.2000000000000000 [-]
	 SCS Same-Spin Energy      =      -0.0573251234530239 [Eh]
	 SCS Opposite-Spin Energy  =      -0.6117274691234005 [Eh]
	 SCS Correlation Energy    =      -0.6690525925764244 [Eh]
	 SCS Total Energy          =    -751.8479263412144746 [Eh]
	-----------------------------------------------------------

*** Psi4 exiting successfully. Buy a developer a beer!
