                               Psi4 1.9 release

  ==> Input File <==

--------------------------------------------------------------------------
MEMORY 60 GB

molecule dimer {
1 1
K      0.000000     0.000000     0.000000
--
0 1
O      2.525195     0.000000     0.000000
H      3.118366     0.755912     0.000000
H      3.118366    -0.755912     0.000000
O     -2.525195     0.000000     0.000000
H     -3.118366    -0.755912     0.000000
H     -3.118366     0.755912     0.000000

units ang
no_reorient
no_com
symmetry c1
}

set {
basis        aug-cc-pVTZ
scf_type     df
}

energy("mp2", bsse_type="cp")
--------------------------------------------------------------------------

                               Psi4 1.9 release
    Molecular point group: c1
  Charge       = 0
  Multiplicity = 1
  Basis Set: AUG-CC-PVTZ
    Blend: AUG-CC-PVTZ
  Basis Set: (AUG-CC-PVTZ AUX)
    Blend: AUG-CC-PVTZ-JKFIT + DEF2-UNIVERSAL-JKFIT
  @DF-RHF Final Energy:  -152.11938656976125
    Total Energy =                       -152.1193865697612466
 Dipole X            :         -0.0000000           -0.0000000           -0.0000000
 Dipole Y            :         -0.0000000            0.0000000           -0.0000000
 Dipole Z            :         -0.0000000            0.0000000           -0.0000000
 Magnitude           :                                                    0.0000000
  Basis Set: (AUG-CC-PVTZ AUX)
    Blend: AUG-CC-PVTZ-RI + DEF2-QZVPP-RI
	 Reference Energy          =    -152.1193865697612466 [Eh]
	 Singles Energy            =      -0.0000000000000000 [Eh]
	 Same-Spin Energy          =      -0.1369425588839674 [Eh]
	 Opposite-Spin Energy      =      -0.4313735639183901 [Eh]
	 Correlation Energy        =      -0.5683161228023575 [Eh]
	 Total Energy              =    -152.6877026925635903 [Eh]
	 SCS Total Energy          =    -152.6826823660913135 [Eh]
                               Psi4 1.9 release
    Molecular point group: c1
  Multiplicity = 1
  Basis Set: AUG-CC-PVTZ
    Blend: AUG-CC-PVTZ
  Basis Set: (AUG-CC-PVTZ AUX)
    Blend: AUG-CC-PVTZ-JKFIT + DEF2-UNIVERSAL-JKFIT
  @DF-RHF Final Energy:  -599.01751115039440
    Total Energy =                       -599.0175111503943981
  Basis Set: (AUG-CC-PVTZ AUX)
	 Singles Energy            =      -0.0000000000000000 [Eh]
	 Same-Spin Energy          =      -0.0314102609782482 [Eh]
	 Opposite-Spin Energy      =      -0.0755610320065804 [Eh]
	 Correlation Energy        =      -0.1069712929848286 [Eh]
	 Total Energy              =    -599.1244824433791791 [Eh]
	 SCS Total Energy          =    -599.1186544757950969 [Eh]
                               Psi4 1.9 release
    Molecular point group: c1

    Geometry (in Bohr), charge = 1, multiplicity = 1:

       Center              X                  Y                   Z               Mass
    ------------   -----------------  -----------------  -----------------  -----------------
         K            0.000000000000     0.000000000000     0.000000000000    38.963706486400
         O            4.771926963375     0.000000000000     0.000000000000    15.994914619570
         H            5.892857698939     1.428466654947     0.000000000000     1.007825032230
         H            5.892857698939    -1.428466654947     0.000000000000     1.007825032230
         O           -4.771926963375     0.000000000000     0.000000000000    15.994914619570
         H           -5.892857698939    -1.428466654947     0.000000000000     1.007825032230
         H           -5.892857698939     1.428466654947     0.000000000000     1.007825032230

  Charge       = 1
  Multiplicity = 1
  Basis Set: AUG-CC-PVTZ
    Blend: AUG-CC-PVTZ
  Basis Set: (AUG-CC-PVTZ AUX)
    Blend: AUG-CC-PVTZ-JKFIT + DEF2-UNIVERSAL-JKFIT

    Orbital Energies [Eh]
    ---------------------

    Doubly Occupied:

       1A   -133.658371     2A    -20.741145     3A    -20.741144
       4A    -14.616346     5A    -11.646316     6A    -11.646256
       7A    -11.645991     8A     -1.879255     9A     -1.531370
      10A     -1.530452    11A     -1.089626    12A     -1.088748
      13A     -1.088438    14A     -0.891225    15A     -0.890823
      16A     -0.782926    17A     -0.766533    18A     -0.690851
      19A     -0.689908

  @DF-RHF Final Energy:  -751.18614707222901

   => Energetics <=

    Nuclear Repulsion Energy =            104.5778433138805354
    One-Electron Energy =               -1236.2965334783209528
    Two-Electron Energy =                 380.5325430922113696
    Total Energy =                       -751.1861470722290051
 Dipole X            :         -0.0000000           -0.0000000           -0.0000000
 Dipole Y            :         -0.0000000            0.0000000           -0.0000000
 Dipole Z            :         -0.0000000            0.0000000           -0.0000000
 Magnitude           :                                                    0.0000000
  Basis Set: (AUG-CC-PVTZ AUX)
    Blend: AUG-CC-PVTZ-RI + DEF2-QZVPP-RI
	 Reference Energy          =    -751.1861470722290051 [Eh]
	 Singles Energy            =      -0.0000000000000000 [Eh]
	 Same-Spin Energy          =      -0.1702636371604639 [Eh]
	 Opposite-Spin Energy      =      -0.5065414582265999 [Eh]
	 Correlation Energy        =      -0.6768050953870639 [Eh]
	 Total Energy              =    -751.8629521676160721 [Eh]

	 ================> DF-SCS-MP2 Energies <==================
	-----------------------------------------------------------
	 SCS Same-Spin Scale       =       0.3333333333333333 [-]
	 SCS Opposite-Spin Scale   =       1.2000000000000000 [-]
	 SCS Same-Spin Energy      =      -0.0567545457201546 [Eh]
	 SCS Opposite-Spin Energy  =      -0.6078497498719199 [Eh]
	 SCS Correlation Energy    =      -0.6646042955920746 [Eh]
	 SCS Total Energy          =    -751.8507513678210898 [Eh]
	-----------------------------------------------------------

*** Psi4 exiting successfully. Buy a developer a beer!
