                               Psi4 1.9 release

  ==> Input File <==

--------------------------------------------------------------------------
MEMORY 60 GB

molecule dimer {
1 1
K          0.000000     0.000000     0.000000
O          2.272676     0.000000     0.000000
H          2.865846     0.755912     0.000000
H          2.865846    -0.755912     0.000000
O         -2.272676     0.000000     0.000000
H         -2.865846    -0.755912     0.000000
H         -2.865846     0.755912     0.000000

units ang
no_reorient
no_com
symmetry c1
}

set {
basis        aug-cc-pVTZ
scf_type     df
}

energy("mp2")
--------------------------------------------------------------------------

    Molecular point group: c1

    Geometry (in Angstrom), charge = 1, multiplicity = 1:

       Center              X                  Y                   Z               Mass
    ------------   -----------------  -----------------  -----------------  -----------------
         K            0.000000000000     0.000000000000     0.000000000000    38.963706486400
         O            2.272676000000     0.000000000000     0.000000000000    15.994914619570
         H            2.865846000000     0.755912000000     0.000000000000     1.007825032230
         H            2.865846000000    -0.755912000000     0.000000000000     1.007825032230
         O           -2.272676000000     0.000000000000     0.000000000000    15.994914619570
         H           -2.865846000000    -0.755912000000     0.000000000000     1.007825032230
         H           -2.865846000000     0.755912000000     0.000000000000     1.007825032230

  Charge       = 1
  Multiplicity = 1
  Basis Set: AUG-CC-PVTZ
    Blend: AUG-CC-PVTZ
  Basis Set: (AUG-CC-PVTZ AUX)
    Blend: AUG-CC-PVTZ-JKFIT + DEF2-UNIVERSAL-JKFIT

    Orbital Energies [Eh]
    ---------------------

    Doubly Occupied:

       1A   -133.628551     2A    -20.748523     3A    -20.748523
       4A    -14.589580     5A    -11.619243     6A    -11.619143
       7A    -11.619019     8A     -1.862575     9A     -1.546598
      10A     -1.543160    11A     -1.084907    12A     -1.073220
      13A     -1.071364    14A     -0.903765    15A     -0.902198
      16A     -0.801500    17A     -0.759956    18A     -0.704547
      19A     -0.701723

  @DF-RHF Final Energy:  -751.16387364002298

   => Energetics <=

    Nuclear Repulsion Energy =            113.7516314290683965
    One-Electron Energy =               -1254.7748144521942777
    Two-Electron Energy =                 389.8593093831029250
    Total Energy =                       -751.1638736400229845
 Dipole X            :         -0.0000000            0.0000000           -0.0000000
 Dipole Y            :         -0.0000000            0.0000000           -0.0000000
 Dipole Z            :         -0.0000000            0.0000000           -0.0000000
 Magnitude           :                                                    0.0000000
  Basis Set: (AUG-CC-PVTZ AUX)
    Blend: AUG-CC-PVTZ-RI + DEF2-QZVPP-RI
	 Reference Energy          =    -751.1638736400229845 [Eh]
	 Singles Energy            =      -0.0000000000000000 [Eh]
	 Same-Spin Energy          =      -0.1740730228144166 [Eh]
	 Opposite-Spin Energy      =      -0.5135791386268838 [Eh]
	 Correlation Energy        =      -0.6876521614413004 [Eh]
	 Total Energy              =    -751.8515258014642768 [Eh]

	 ================> DF-SCS-MP2 Energies <==================
	-----------------------------------------------------------
	 SCS Same-Spin Scale       =       0.3333333333333333 [-]
	 SCS Opposite-Spin Scale   =       1.2000000000000000 [-]
	 SCS Same-Spin Energy      =      -0.0580243409381389 [Eh]
	 SCS Opposite-Spin Energy  =      -0.6162949663522604 [Eh]
	 SCS Correlation Energy    =      -0.6743193072903994 [Eh]
	 SCS Total Energy          =    -751.8381929473133596 [Eh]
	-----------------------------------------------------------

*** Psi4 exiting successfully. Buy a developer a beer!
