                               Psi4 1.9 release

  ==> Input File <==

--------------------------------------------------------------------------
MEMORY 60 GB

molecule dimer {
1 1
K      0.000000     0.000000     0.000000
--
0 1
O      3.030234     0.000000     0.000000
H      3.623405     0.755912     0.000000
H      3.623405    -0.755912     0.000000
--
0 1
O     -3.030234     0.000000     0.000000
H     -3.623405    -0.755912     0.000000
H     -3.623405     0.755912     0.000000

units ang
no_reorient
no_com
symmetry c1
}

set {
basis        aug-cc-pVTZ
scf_type     df
}

energy("mp2", bsse_type="cp")
--------------------------------------------------------------------------

                               Psi4 1.9 release
    Molecular point group: c1
  Charge       = 1
  Multiplicity = 1
  Basis Set: AUG-CC-PVTZ
    Blend: AUG-CC-PVTZ
  Basis Set: (AUG-CC-PVTZ AUX)
    Blend: AUG-CC-PVTZ-JKFIT + DEF2-UNIVERSAL-JKFIT
  @DF-RHF Final Energy:  -599.01750955929538
    Total Energy =                       -599.0175095592953767
 Dipole X            :          0.0000000            0.0000000            0.0000000
 Dipole Y            :          0.0000000            0.0000000            0.0000000
 Dipole Z            :          0.0000000            0.0000000            0.0000000
 Magnitude           :                                                    0.0000000
  Basis Set: (AUG-CC-PVTZ AUX)
    Blend: AUG-CC-PVTZ-RI + DEF2-QZVPP-RI
	 Reference Energy          =    -599.0175095592953767 [Eh]
	 Singles Energy            =      -0.0000000000000000 [Eh]
	 Same-Spin Energy          =      -0.0283335416931769 [Eh]
	 Opposite-Spin Energy      =      -0.0664639212941944 [Eh]
	 Correlation Energy        =      -0.0947974629873713 [Eh]
	 Total Energy              =    -599.1123070222827209 [Eh]
	 SCS Total Energy          =    -599.1067107787461055 [Eh]
                               Psi4 1.9 release
    Molecular point group: c1
  Basis Set: AUG-CC-PVTZ
    Blend: AUG-CC-PVTZ
  Basis Set: (AUG-CC-PVTZ AUX)
    Blend: AUG-CC-PVTZ-JKFIT + DEF2-UNIVERSAL-JKFIT
  @DF-RHF Final Energy:   -76.06030303443460
    Total Energy =                        -76.0603030344345967
  Basis Set: (AUG-CC-PVTZ AUX)
                               Psi4 1.9 release
  @DF-RHF Final Energy:  -152.11985691601734
    Total Energy =                       -152.1198569160173406
                               Psi4 1.9 release
  @DF-RHF Final Energy:  -675.10203012838349
    Total Energy =                       -675.1020301283836034
                               Psi4 1.9 release
  @DF-RHF Final Energy:  -675.10203012838269
    Total Energy =                       -675.1020301283828076
                               Psi4 1.9 release
  Multiplicity = 1
  @DF-RHF Final Energy:   -76.06030303443467
    Total Energy =                        -76.0603030344346678
	 Singles Energy            =      -0.0000000000000000 [Eh]
	 Same-Spin Energy          =      -0.0684362820304897 [Eh]
	 Opposite-Spin Energy      =      -0.2155507553187347 [Eh]
	 Correlation Energy        =      -0.2839870373492244 [Eh]
	 Total Energy              =     -76.3442900717838882 [Eh]
	 SCS Total Energy          =     -76.3417760348273191 [Eh]
                               Psi4 1.9 release
    Molecular point group: c1

    Geometry (in Bohr), charge = 1, multiplicity = 1:

       Center              X                  Y                   Z               Mass
    ------------   -----------------  -----------------  -----------------  -----------------
         K            0.000000000000     0.000000000000     0.000000000000    38.963706486400
         O            5.726312356051     0.000000000000     0.000000000000    15.994914619570
         H            6.847243091615     1.428466654947     0.000000000000     1.007825032230
         H            6.847243091615    -1.428466654947     0.000000000000     1.007825032230
         O           -5.726312356051     0.000000000000     0.000000000000    15.994914619570
         H           -6.847243091615    -1.428466654947     0.000000000000     1.007825032230
         H           -6.847243091615     1.428466654947     0.000000000000     1.007825032230

  Charge       = 1
  Multiplicity = 1
  Basis Set: AUG-CC-PVTZ
    Blend: AUG-CC-PVTZ
  Basis Set: (AUG-CC-PVTZ AUX)
    Blend: AUG-CC-PVTZ-JKFIT + DEF2-UNIVERSAL-JKFIT

    Orbital Energies [Eh]
    ---------------------

    Doubly Occupied:

       1A   -133.693226     2A    -20.722113     3A    -20.722113
       4A    -14.649214     5A    -11.679315     6A    -11.679291
       7A    -11.679093     8A     -1.905925     9A     -1.507399
      10A     -1.507332    11A     -1.114777    12A     -1.114213
      13A     -1.110103    14A     -0.868883    15A     -0.868853
      16A     -0.752118    17A     -0.749588    18A     -0.667358
      19A     -0.667244

  @DF-RHF Final Energy:  -751.18477575732675

   => Energetics <=

    Nuclear Repulsion Energy =             90.6831831640969455
    One-Electron Energy =               -1208.4195949546806332
    Two-Electron Energy =                 366.5516360332568411
    Total Energy =                       -751.1847757573267472
 Dipole X            :         -0.0000000            0.0000000           -0.0000000
 Dipole Y            :         -0.0000000            0.0000000           -0.0000000
 Dipole Z            :          0.0000000            0.0000000            0.0000000
 Magnitude           :                                                    0.0000000
  Basis Set: (AUG-CC-PVTZ AUX)
    Blend: AUG-CC-PVTZ-RI + DEF2-QZVPP-RI
	 Reference Energy          =    -751.1847757573267472 [Eh]
	 Singles Energy            =      -0.0000000000000000 [Eh]
	 Same-Spin Energy          =      -0.1657632452387595 [Eh]
	 Opposite-Spin Energy      =      -0.4968351810314288 [Eh]
	 Correlation Energy        =      -0.6625984262701883 [Eh]
	 Total Energy              =    -751.8473741835969122 [Eh]

	 ================> DF-SCS-MP2 Energies <==================
	-----------------------------------------------------------
	 SCS Same-Spin Scale       =       0.3333333333333333 [-]
	 SCS Opposite-Spin Scale   =       1.2000000000000000 [-]
	 SCS Same-Spin Energy      =      -0.0552544150795865 [Eh]
	 SCS Opposite-Spin Energy  =      -0.5962022172377146 [Eh]
	 SCS Correlation Energy    =      -0.6514566323173011 [Eh]
	 SCS Total Energy          =    -751.8362323896440103 [Eh]
	-----------------------------------------------------------

*** Psi4 exiting successfully. Buy a developer a beer!
