                               Psi4 1.9 release

  ==> Input File <==

--------------------------------------------------------------------------
MEMORY 60 GB

molecule dimer {
1 1
K      0.000000     0.000000     0.000000
--
0 1
O      3.787793     0.000000     0.000000
H      4.380964     0.755912     0.000000
H      4.380964    -0.755912     0.000000
--
0 1
O     -3.787793     0.000000     0.000000
H     -4.380964    -0.755912     0.000000
H     -4.380964     0.755912     0.000000

units ang
no_reorient
no_com
symmetry c1
}

set {
basis        aug-cc-pVTZ
scf_type     df
}

energy("mp2", bsse_type="cp")
--------------------------------------------------------------------------

                               Psi4 1.9 release
    Molecular point group: c1
  Charge       = 1
  Multiplicity = 1
  Basis Set: AUG-CC-PVTZ
    Blend: AUG-CC-PVTZ
  Basis Set: (AUG-CC-PVTZ AUX)
    Blend: AUG-CC-PVTZ-JKFIT + DEF2-UNIVERSAL-JKFIT
  @DF-RHF Final Energy:  -599.01750841020123
    Total Energy =                       -599.0175084102011169
 Dipole X            :          0.0000000            0.0000000            0.0000000
 Dipole Y            :          0.0000000            0.0000000            0.0000000
 Dipole Z            :         -0.0000000            0.0000000           -0.0000000
 Magnitude           :                                                    0.0000000
  Basis Set: (AUG-CC-PVTZ AUX)
    Blend: AUG-CC-PVTZ-RI + DEF2-QZVPP-RI
	 Reference Energy          =    -599.0175084102012306 [Eh]
	 Singles Energy            =      -0.0000000000000000 [Eh]
	 Same-Spin Energy          =      -0.0264447874029388 [Eh]
	 Opposite-Spin Energy      =      -0.0611905610969416 [Eh]
	 Correlation Energy        =      -0.0876353484998804 [Eh]
	 Total Energy              =    -599.1051437587011606 [Eh]
	 SCS Total Energy          =    -599.0997520126518339 [Eh]
                               Psi4 1.9 release
    Molecular point group: c1
  Basis Set: AUG-CC-PVTZ
    Blend: AUG-CC-PVTZ
  Basis Set: (AUG-CC-PVTZ AUX)
    Blend: AUG-CC-PVTZ-JKFIT + DEF2-UNIVERSAL-JKFIT
  @DF-RHF Final Energy:   -76.06029161089764
    Total Energy =                        -76.0602916108976217
  Basis Set: (AUG-CC-PVTZ AUX)
                               Psi4 1.9 release
  @DF-RHF Final Energy:  -152.12018856420775
    Total Energy =                       -152.1201885642077514
                               Psi4 1.9 release
  @DF-RHF Final Energy:  -675.09383616408422
    Total Energy =                       -675.0938361640842231
                               Psi4 1.9 release
  @DF-RHF Final Energy:  -675.09383616407638
    Total Energy =                       -675.0938361640764924
                               Psi4 1.9 release
  Multiplicity = 1
  @DF-RHF Final Energy:   -76.06029161089864
    Total Energy =                        -76.0602916108986449
	 Singles Energy            =      -0.0000000000000000 [Eh]
	 Same-Spin Energy          =      -0.0684258546947813 [Eh]
	 Opposite-Spin Energy      =      -0.2154634511808086 [Eh]
	 Correlation Energy        =      -0.2838893058755900 [Eh]
	 Total Energy              =     -76.3441809167742349 [Eh]
	 SCS Total Energy          =     -76.3416563705472129 [Eh]
                               Psi4 1.9 release
    Molecular point group: c1

    Geometry (in Bohr), charge = 1, multiplicity = 1:

       Center              X                  Y                   Z               Mass
    ------------   -----------------  -----------------  -----------------  -----------------
         K            0.000000000000     0.000000000000     0.000000000000    38.963706486400
         O            7.157891389926     0.000000000000     0.000000000000    15.994914619570
         H            8.278822125490     1.428466654947     0.000000000000     1.007825032230
         H            8.278822125490    -1.428466654947     0.000000000000     1.007825032230
         O           -7.157891389926     0.000000000000     0.000000000000    15.994914619570
         H           -8.278822125490    -1.428466654947     0.000000000000     1.007825032230
         H           -8.278822125490     1.428466654947     0.000000000000     1.007825032230

  Charge       = 1
  Multiplicity = 1
  Basis Set: AUG-CC-PVTZ
    Blend: AUG-CC-PVTZ
  Basis Set: (AUG-CC-PVTZ AUX)
    Blend: AUG-CC-PVTZ-JKFIT + DEF2-UNIVERSAL-JKFIT

    Orbital Energies [Eh]
    ---------------------

    Doubly Occupied:

       1A   -133.718135     2A    -20.695569     3A    -20.695568
       4A    -14.673663     5A    -11.703754     6A    -11.703747
       7A    -11.703664     8A     -1.929046     9A     -1.480003
      10A     -1.480002    11A     -1.136567    12A     -1.136358
      13A     -1.134121    14A     -0.841966    15A     -0.841966
      16A     -0.719839    17A     -0.719686    18A     -0.639545
      19A     -0.639544

  @DF-RHF Final Energy:  -751.16947602043172

   => Energetics <=

    Nuclear Repulsion Energy =             76.6150324807536691
    One-Electron Energy =               -1180.3835227740198661
    Two-Electron Energy =                 352.5990142728345518
    Total Energy =                       -751.1694760204317163
 Dipole X            :          0.0000000           -0.0000000            0.0000000
 Dipole Y            :          0.0000000            0.0000000            0.0000000
 Dipole Z            :         -0.0000000            0.0000000           -0.0000000
 Magnitude           :                                                    0.0000000
  Basis Set: (AUG-CC-PVTZ AUX)
    Blend: AUG-CC-PVTZ-RI + DEF2-QZVPP-RI
	 Reference Energy          =    -751.1694760204317163 [Eh]
	 Singles Energy            =      -0.0000000000000000 [Eh]
	 Same-Spin Energy          =      -0.1632845889018602 [Eh]
	 Opposite-Spin Energy      =      -0.4912711847321185 [Eh]
	 Correlation Energy        =      -0.6545557736339787 [Eh]
	 Total Energy              =    -751.8240317940657178 [Eh]

	 ================> DF-SCS-MP2 Energies <==================
	-----------------------------------------------------------
	 SCS Same-Spin Scale       =       0.3333333333333333 [-]
	 SCS Opposite-Spin Scale   =       1.2000000000000000 [-]
	 SCS Same-Spin Energy      =      -0.0544281963006201 [Eh]
	 SCS Opposite-Spin Energy  =      -0.5895254216785422 [Eh]
	 SCS Correlation Energy    =      -0.6439536179791622 [Eh]
	 SCS Total Energy          =    -751.8134296384108666 [Eh]
	-----------------------------------------------------------

*** Psi4 exiting successfully. Buy a developer a beer!
