                               Psi4 1.9 release

  ==> Input File <==

--------------------------------------------------------------------------
MEMORY 60 GB

molecule dimer {
1 1
K          0.000000     0.000000     0.000000
O          3.030234     0.000000     0.000000
H          3.623405     0.755912     0.000000
H          3.623405    -0.755912     0.000000
O         -3.030234     0.000000     0.000000
H         -3.623405    -0.755912     0.000000
H         -3.623405     0.755912     0.000000

units ang
no_reorient
no_com
symmetry c1
}

set {
basis        aug-cc-pVTZ
scf_type     df
}

energy("mp2")
--------------------------------------------------------------------------

    Molecular point group: c1

    Geometry (in Angstrom), charge = 1, multiplicity = 1:

       Center              X                  Y                   Z               Mass
    ------------   -----------------  -----------------  -----------------  -----------------
         K            0.000000000000     0.000000000000     0.000000000000    38.963706486400
         O            3.030234000000     0.000000000000     0.000000000000    15.994914619570
         H            3.623405000000     0.755912000000     0.000000000000     1.007825032230
         H            3.623405000000    -0.755912000000     0.000000000000     1.007825032230
         O           -3.030234000000     0.000000000000     0.000000000000    15.994914619570
         H           -3.623405000000    -0.755912000000     0.000000000000     1.007825032230
         H           -3.623405000000     0.755912000000     0.000000000000     1.007825032230

  Charge       = 1
  Multiplicity = 1
  Basis Set: AUG-CC-PVTZ
    Blend: AUG-CC-PVTZ
  Basis Set: (AUG-CC-PVTZ AUX)
    Blend: AUG-CC-PVTZ-JKFIT + DEF2-UNIVERSAL-JKFIT

    Orbital Energies [Eh]
    ---------------------

    Doubly Occupied:

       1A   -133.693226     2A    -20.722113     3A    -20.722113
       4A    -14.649214     5A    -11.679315     6A    -11.679291
       7A    -11.679093     8A     -1.905925     9A     -1.507399
      10A     -1.507332    11A     -1.114777    12A     -1.114213
      13A     -1.110103    14A     -0.868883    15A     -0.868853
      16A     -0.752118    17A     -0.749588    18A     -0.667358
      19A     -0.667244

  @DF-RHF Final Energy:  -751.18477575732720

   => Energetics <=

    Nuclear Repulsion Energy =             90.6831831640969455
    One-Electron Energy =               -1208.4195949543598090
    Two-Electron Energy =                 366.5516360329356189
    Total Energy =                       -751.1847757573270883
 Dipole X            :         -0.0000000            0.0000000           -0.0000000
 Dipole Y            :         -0.0000000            0.0000000           -0.0000000
 Dipole Z            :          0.0000000            0.0000000            0.0000000
 Magnitude           :                                                    0.0000000
  Basis Set: (AUG-CC-PVTZ AUX)
    Blend: AUG-CC-PVTZ-RI + DEF2-QZVPP-RI
	 Reference Energy          =    -751.1847757573272020 [Eh]
	 Singles Energy            =      -0.0000000000000000 [Eh]
	 Same-Spin Energy          =      -0.1657632452386042 [Eh]
	 Opposite-Spin Energy      =      -0.4968351810310996 [Eh]
	 Correlation Energy        =      -0.6625984262697039 [Eh]
	 Total Energy              =    -751.8473741835969122 [Eh]

	 ================> DF-SCS-MP2 Energies <==================
	-----------------------------------------------------------
	 SCS Same-Spin Scale       =       0.3333333333333333 [-]
	 SCS Opposite-Spin Scale   =       1.2000000000000000 [-]
	 SCS Same-Spin Energy      =      -0.0552544150795347 [Eh]
	 SCS Opposite-Spin Energy  =      -0.5962022172373196 [Eh]
	 SCS Correlation Energy    =      -0.6514566323168544 [Eh]
	 SCS Total Energy          =    -751.8362323896440103 [Eh]
	-----------------------------------------------------------

*** Psi4 exiting successfully. Buy a developer a beer!
