                               Psi4 1.9 release

  ==> Input File <==

--------------------------------------------------------------------------
MEMORY 60 GB

molecule dimer {
1 1
K      0.000000     0.000000     0.000000
--
0 1
O      2.272676     0.000000     0.000000
H      2.865846     0.755912     0.000000
H      2.865846    -0.755912     0.000000
O     -2.272676     0.000000     0.000000
H     -2.865846    -0.755912     0.000000
H     -2.865846     0.755912     0.000000

units ang
no_reorient
no_com
symmetry c1
}

set {
basis        aug-cc-pVTZ
scf_type     df
}

energy("mp2", bsse_type="cp")
--------------------------------------------------------------------------

                               Psi4 1.9 release
    Molecular point group: c1
  Charge       = 0
  Multiplicity = 1
  Basis Set: AUG-CC-PVTZ
    Blend: AUG-CC-PVTZ
  Basis Set: (AUG-CC-PVTZ AUX)
    Blend: AUG-CC-PVTZ-JKFIT + DEF2-UNIVERSAL-JKFIT
  @DF-RHF Final Energy:  -152.11898491888209
    Total Energy =                       -152.1189849188820915
 Dipole X            :         -0.0000000            0.0000000           -0.0000000
 Dipole Y            :          0.0000000            0.0000000            0.0000000
 Dipole Z            :         -0.0000000            0.0000000           -0.0000000
 Magnitude           :                                                    0.0000000
  Basis Set: (AUG-CC-PVTZ AUX)
    Blend: AUG-CC-PVTZ-RI + DEF2-QZVPP-RI
	 Reference Energy          =    -152.1189849188820915 [Eh]
	 Singles Energy            =      -0.0000000000000000 [Eh]
	 Same-Spin Energy          =      -0.1369825017366528 [Eh]
	 Opposite-Spin Energy      =      -0.4315089930249251 [Eh]
	 Correlation Energy        =      -0.5684914947615778 [Eh]
	 Total Energy              =    -152.6874764136436795 [Eh]
	 SCS Total Energy          =    -152.6824565444242126 [Eh]
                               Psi4 1.9 release
    Molecular point group: c1
  Multiplicity = 1
  Basis Set: AUG-CC-PVTZ
    Blend: AUG-CC-PVTZ
  Basis Set: (AUG-CC-PVTZ AUX)
    Blend: AUG-CC-PVTZ-JKFIT + DEF2-UNIVERSAL-JKFIT
  @DF-RHF Final Energy:  -599.01751198499574
    Total Energy =                       -599.0175119849957355
  Basis Set: (AUG-CC-PVTZ AUX)
	 Singles Energy            =      -0.0000000000000000 [Eh]
	 Same-Spin Energy          =      -0.0335381155240303 [Eh]
	 Opposite-Spin Energy      =      -0.0817158512075731 [Eh]
	 Correlation Energy        =      -0.1152539667316033 [Eh]
	 Total Energy              =    -599.1327659517273787 [Eh]
	 SCS Total Energy          =    -599.1267503782861468 [Eh]
                               Psi4 1.9 release
    Molecular point group: c1

    Geometry (in Bohr), charge = 1, multiplicity = 1:

       Center              X                  Y                   Z               Mass
    ------------   -----------------  -----------------  -----------------  -----------------
         K            0.000000000000     0.000000000000     0.000000000000    38.963706486400
         O            4.294735211901     0.000000000000     0.000000000000    15.994914619570
         H            5.415664057739     1.428466654947     0.000000000000     1.007825032230
         H            5.415664057739    -1.428466654947     0.000000000000     1.007825032230
         O           -4.294735211901     0.000000000000     0.000000000000    15.994914619570
         H           -5.415664057739    -1.428466654947     0.000000000000     1.007825032230
         H           -5.415664057739     1.428466654947     0.000000000000     1.007825032230

  Charge       = 1
  Multiplicity = 1
  Basis Set: AUG-CC-PVTZ
    Blend: AUG-CC-PVTZ
  Basis Set: (AUG-CC-PVTZ AUX)
    Blend: AUG-CC-PVTZ-JKFIT + DEF2-UNIVERSAL-JKFIT

    Orbital Energies [Eh]
    ---------------------

    Doubly Occupied:

       1A   -133.628551     2A    -20.748523     3A    -20.748523
       4A    -14.589580     5A    -11.619243     6A    -11.619143
       7A    -11.619019     8A     -1.862575     9A     -1.546598
      10A     -1.543160    11A     -1.084907    12A     -1.073220
      13A     -1.071364    14A     -0.903765    15A     -0.902198
      16A     -0.801500    17A     -0.759956    18A     -0.704547
      19A     -0.701723

  @DF-RHF Final Energy:  -751.16387364002287

   => Energetics <=

    Nuclear Repulsion Energy =            113.7516314290683965
    One-Electron Energy =               -1254.7748144522709026
    Two-Electron Energy =                 389.8593093831797773
    Total Energy =                       -751.1638736400227572
 Dipole X            :         -0.0000000            0.0000000           -0.0000000
 Dipole Y            :         -0.0000000            0.0000000           -0.0000000
 Dipole Z            :         -0.0000000            0.0000000           -0.0000000
 Magnitude           :                                                    0.0000000
  Basis Set: (AUG-CC-PVTZ AUX)
    Blend: AUG-CC-PVTZ-RI + DEF2-QZVPP-RI
	 Reference Energy          =    -751.1638736400228709 [Eh]
	 Singles Energy            =      -0.0000000000000000 [Eh]
	 Same-Spin Energy          =      -0.1740730228144756 [Eh]
	 Opposite-Spin Energy      =      -0.5135791386270055 [Eh]
	 Correlation Energy        =      -0.6876521614414812 [Eh]
	 Total Energy              =    -751.8515258014643905 [Eh]

	 ================> DF-SCS-MP2 Energies <==================
	-----------------------------------------------------------
	 SCS Same-Spin Scale       =       0.3333333333333333 [-]
	 SCS Opposite-Spin Scale   =       1.2000000000000000 [-]
	 SCS Same-Spin Energy      =      -0.0580243409381585 [Eh]
	 SCS Opposite-Spin Energy  =      -0.6162949663524067 [Eh]
	 SCS Correlation Energy    =      -0.6743193072905652 [Eh]
	 SCS Total Energy          =    -751.8381929473134733 [Eh]
	-----------------------------------------------------------

*** Psi4 exiting successfully. Buy a developer a beer!
