                               Psi4 1.9 release

  ==> Input File <==

--------------------------------------------------------------------------
MEMORY 60 GB

molecule dimer {
1 1
K          0.000000     0.000000     0.000000
Gh(O)      2.651455     0.000000     0.000000
Gh(H)      3.244626     0.755912     0.000000
Gh(H)      3.244626    -0.755912     0.000000
Gh(O)     -2.651455     0.000000     0.000000
Gh(H)     -3.244626    -0.755912     0.000000
Gh(H)     -3.244626     0.755912     0.000000

units ang
no_reorient
no_com
symmetry c1
}

set {
basis        aug-cc-pVTZ
scf_type     df
}

energy("mp2")
--------------------------------------------------------------------------

    Molecular point group: c1

    Geometry (in Angstrom), charge = 1, multiplicity = 1:

       Center              X                  Y                   Z               Mass
    ------------   -----------------  -----------------  -----------------  -----------------
         K            0.000000000000     0.000000000000     0.000000000000    38.963706486400
      Gh(O)           2.651455000000     0.000000000000     0.000000000000    15.994914619570
      Gh(H)           3.244626000000     0.755912000000     0.000000000000     1.007825032230
      Gh(H)           3.244626000000    -0.755912000000     0.000000000000     1.007825032230
      Gh(O)          -2.651455000000     0.000000000000     0.000000000000    15.994914619570
      Gh(H)          -3.244626000000    -0.755912000000     0.000000000000     1.007825032230
      Gh(H)          -3.244626000000     0.755912000000     0.000000000000     1.007825032230

  Charge       = 1
  Multiplicity = 1
  Basis Set: AUG-CC-PVTZ
    Blend: AUG-CC-PVTZ
  Basis Set: (AUG-CC-PVTZ AUX)
    Blend: AUG-CC-PVTZ-JKFIT + DEF2-UNIVERSAL-JKFIT

    Orbital Energies [Eh]
    ---------------------

    Doubly Occupied:

       1A   -133.753435     2A    -14.708944     3A    -11.739013
       4A    -11.739010     5A    -11.739010     6A     -1.964219
       7A     -1.170930     8A     -1.170823     9A     -1.170810

  @DF-RHF Final Energy:  -599.01751075260290

   => Energetics <=

    Nuclear Repulsion Energy =              0.0000000000000000
    One-Electron Energy =                -819.7226352188615692
    Two-Electron Energy =                 220.7051244662586384
    Total Energy =                       -599.0175107526029024
 Dipole X            :         -0.0000000            0.0000000           -0.0000000
 Dipole Y            :          0.0000000            0.0000000            0.0000000
 Dipole Z            :          0.0000000            0.0000000            0.0000000
 Magnitude           :                                                    0.0000000
  Basis Set: (AUG-CC-PVTZ AUX)
    Blend: AUG-CC-PVTZ-RI + DEF2-QZVPP-RI
	 Reference Energy          =    -599.0175107526029024 [Eh]
	 Singles Energy            =      -0.0000000000000000 [Eh]
	 Same-Spin Energy          =      -0.0305094948654934 [Eh]
	 Opposite-Spin Energy      =      -0.0729813438305896 [Eh]
	 Correlation Energy        =      -0.1034908386960830 [Eh]
	 Total Energy              =    -599.1210015912989775 [Eh]

	 ================> DF-SCS-MP2 Energies <==================
	-----------------------------------------------------------
	 SCS Same-Spin Scale       =       0.3333333333333333 [-]
	 SCS Opposite-Spin Scale   =       1.2000000000000000 [-]
	 SCS Same-Spin Energy      =      -0.0101698316218311 [Eh]
	 SCS Opposite-Spin Energy  =      -0.0875776125967075 [Eh]
	 SCS Correlation Energy    =      -0.0977474442185386 [Eh]
	 SCS Total Energy          =    -599.1152581968214008 [Eh]
	-----------------------------------------------------------

*** Psi4 exiting successfully. Buy a developer a beer!
