                               Psi4 1.9 release

  ==> Input File <==

--------------------------------------------------------------------------
MEMORY 60 GB

molecule dimer {
0 1
Gh(K)      0.000000     0.000000     0.000000
O          2.272676     0.000000     0.000000
H          2.865846     0.755912     0.000000
H          2.865846    -0.755912     0.000000
Gh(O)     -2.272676     0.000000     0.000000
Gh(H)     -2.865846    -0.755912     0.000000
Gh(H)     -2.865846     0.755912     0.000000

units ang
no_reorient
no_com
symmetry c1
}

set {
basis        aug-cc-pVTZ
scf_type     df
}

energy("mp2")
--------------------------------------------------------------------------

    Molecular point group: c1

    Geometry (in Angstrom), charge = 0, multiplicity = 1:

       Center              X                  Y                   Z               Mass
    ------------   -----------------  -----------------  -----------------  -----------------
      Gh(K)           0.000000000000     0.000000000000     0.000000000000    38.963706486400
         O            2.272676000000     0.000000000000     0.000000000000    15.994914619570
         H            2.865846000000     0.755912000000     0.000000000000     1.007825032230
         H            2.865846000000    -0.755912000000     0.000000000000     1.007825032230
      Gh(O)          -2.272676000000     0.000000000000     0.000000000000    15.994914619570
      Gh(H)          -2.865846000000    -0.755912000000     0.000000000000     1.007825032230
      Gh(H)          -2.865846000000     0.755912000000     0.000000000000     1.007825032230

  Charge       = 0
  Multiplicity = 1
  Basis Set: AUG-CC-PVTZ
    Blend: AUG-CC-PVTZ
  Basis Set: (AUG-CC-PVTZ AUX)
    Blend: AUG-CC-PVTZ-JKFIT + DEF2-UNIVERSAL-JKFIT

    Orbital Energies [Eh]
    ---------------------

    Doubly Occupied:

       1A    -20.568099     2A     -1.352235     3A     -0.714350
       4A     -0.585706     5A     -0.510249

  @DF-RHF Final Energy:   -76.06033322586477

   => Energetics <=

    Nuclear Repulsion Energy =              9.1617440843947833
    One-Electron Energy =                -122.9828753433700257
    Two-Electron Energy =                  37.7607980331104827
    Total Energy =                        -76.0603332258647526
 Dipole X            :        -44.4035305           45.1892098            0.7856793
 Dipole Y            :          0.0000000            0.0000000            0.0000000
 Dipole Z            :         -0.0000000            0.0000000           -0.0000000
 Magnitude           :                                                    0.7856793
  Basis Set: (AUG-CC-PVTZ AUX)
    Blend: AUG-CC-PVTZ-RI + DEF2-QZVPP-RI
	 Reference Energy          =     -76.0603332258647669 [Eh]
	 Singles Energy            =      -0.0000000000000000 [Eh]
	 Same-Spin Energy          =      -0.0684431481758503 [Eh]
	 Opposite-Spin Energy      =      -0.2156483368111316 [Eh]
	 Correlation Energy        =      -0.2840914849869819 [Eh]
	 Total Energy              =     -76.3444247108517544 [Eh]

	 ================> DF-SCS-MP2 Energies <==================
	-----------------------------------------------------------
	 SCS Same-Spin Scale       =       0.3333333333333333 [-]
	 SCS Opposite-Spin Scale   =       1.2000000000000000 [-]
	 SCS Same-Spin Energy      =      -0.0228143827252834 [Eh]
	 SCS Opposite-Spin Energy  =      -0.2587780041733579 [Eh]
	 SCS Correlation Energy    =      -0.2815923868986414 [Eh]
	 SCS Total Energy          =     -76.3419256127634043 [Eh]
	-----------------------------------------------------------

*** Psi4 exiting successfully. Buy a developer a beer!
