                               Psi4 1.9 release

  ==> Input File <==

--------------------------------------------------------------------------
MEMORY 60 GB

molecule dimer {
1 1
K      0.000000     0.000000     0.000000
--
0 1
O      2.398935     0.000000     0.000000
H      2.992106     0.755912     0.000000
H      2.992106    -0.755912     0.000000
O     -2.398935     0.000000     0.000000
H     -2.992106    -0.755912     0.000000
H     -2.992106     0.755912     0.000000

units ang
no_reorient
no_com
symmetry c1
}

set {
basis        aug-cc-pVTZ
scf_type     df
}

energy("mp2", bsse_type="cp")
--------------------------------------------------------------------------

                               Psi4 1.9 release
    Molecular point group: c1
  Charge       = 0
  Multiplicity = 1
  Basis Set: AUG-CC-PVTZ
    Blend: AUG-CC-PVTZ
  Basis Set: (AUG-CC-PVTZ AUX)
    Blend: AUG-CC-PVTZ-JKFIT + DEF2-UNIVERSAL-JKFIT
  @DF-RHF Final Energy:  -152.11920661575510
    Total Energy =                       -152.1192066157551039
 Dipole X            :         -0.0000000            0.0000000           -0.0000000
 Dipole Y            :          0.0000000            0.0000000            0.0000000
 Dipole Z            :         -0.0000000            0.0000000           -0.0000000
 Magnitude           :                                                    0.0000000
  Basis Set: (AUG-CC-PVTZ AUX)
    Blend: AUG-CC-PVTZ-RI + DEF2-QZVPP-RI
	 Reference Energy          =    -152.1192066157551039 [Eh]
	 Singles Energy            =      -0.0000000000000000 [Eh]
	 Same-Spin Energy          =      -0.1369595012778128 [Eh]
	 Opposite-Spin Energy      =      -0.4314359179899067 [Eh]
	 Correlation Energy        =      -0.5683954192677195 [Eh]
	 Total Energy              =    -152.6876020350228202 [Eh]
	 SCS Total Energy          =    -152.6825828844355897 [Eh]
                               Psi4 1.9 release
    Molecular point group: c1
  Multiplicity = 1
  Basis Set: AUG-CC-PVTZ
    Blend: AUG-CC-PVTZ
  Basis Set: (AUG-CC-PVTZ AUX)
    Blend: AUG-CC-PVTZ-JKFIT + DEF2-UNIVERSAL-JKFIT
  @DF-RHF Final Energy:  -599.01751154924659
    Total Energy =                       -599.0175115492465920
  Basis Set: (AUG-CC-PVTZ AUX)
	 Singles Energy            =      -0.0000000000000000 [Eh]
	 Same-Spin Energy          =      -0.0324159115896114 [Eh]
	 Opposite-Spin Energy      =      -0.0784490240083904 [Eh]
	 Correlation Energy        =      -0.1108649355980018 [Eh]
	 Total Energy              =    -599.1283764848445799 [Eh]
	 SCS Total Energy          =    -599.1224556819198597 [Eh]
                               Psi4 1.9 release
    Molecular point group: c1

    Geometry (in Bohr), charge = 1, multiplicity = 1:

       Center              X                  Y                   Z               Mass
    ------------   -----------------  -----------------  -----------------  -----------------
         K            0.000000000000     0.000000000000     0.000000000000    38.963706486400
         O            4.533330142775     0.000000000000     0.000000000000    15.994914619570
         H            5.654260878339     1.428466654947     0.000000000000     1.007825032230
         H            5.654260878339    -1.428466654947     0.000000000000     1.007825032230
         O           -4.533330142775     0.000000000000     0.000000000000    15.994914619570
         H           -5.654260878339    -1.428466654947     0.000000000000     1.007825032230
         H           -5.654260878339     1.428466654947     0.000000000000     1.007825032230

  Charge       = 1
  Multiplicity = 1
  Basis Set: AUG-CC-PVTZ
    Blend: AUG-CC-PVTZ
  Basis Set: (AUG-CC-PVTZ AUX)
    Blend: AUG-CC-PVTZ-JKFIT + DEF2-UNIVERSAL-JKFIT

    Orbital Energies [Eh]
    ---------------------

    Doubly Occupied:

       1A   -133.644890     2A    -20.745165     3A    -20.745165
       4A    -14.604112     5A    -11.633965     6A    -11.633888
       7A    -11.633661     8A     -1.871037     9A     -1.538537
      10A     -1.536763    11A     -1.085412    12A     -1.081675
      13A     -1.080212    14A     -0.897348    15A     -0.896560
      16A     -0.792003    17A     -0.765842    18A     -0.697464
      19A     -0.695840

  @DF-RHF Final Energy:  -751.17887374863801

   => Energetics <=

    Nuclear Repulsion Energy =            108.9319001694124012
    One-Electron Energy =               -1245.0624705765744693
    Two-Electron Energy =                 384.9516966585241562
    Total Energy =                       -751.1788737486380114
 Dipole X            :          0.0000000            0.0000000            0.0000000
 Dipole Y            :          0.0000000            0.0000000            0.0000000
 Dipole Z            :         -0.0000000            0.0000000           -0.0000000
 Magnitude           :                                                    0.0000000
  Basis Set: (AUG-CC-PVTZ AUX)
    Blend: AUG-CC-PVTZ-RI + DEF2-QZVPP-RI
	 Reference Energy          =    -751.1788737486380114 [Eh]
	 Singles Energy            =      -0.0000000000000000 [Eh]
	 Same-Spin Energy          =      -0.1719753703592134 [Eh]
	 Opposite-Spin Energy      =      -0.5097728909364421 [Eh]
	 Correlation Energy        =      -0.6817482612956555 [Eh]
	 Total Energy              =    -751.8606220099336497 [Eh]

	 ================> DF-SCS-MP2 Energies <==================
	-----------------------------------------------------------
	 SCS Same-Spin Scale       =       0.3333333333333333 [-]
	 SCS Opposite-Spin Scale   =       1.2000000000000000 [-]
	 SCS Same-Spin Energy      =      -0.0573251234530711 [Eh]
	 SCS Opposite-Spin Energy  =      -0.6117274691237304 [Eh]
	 SCS Correlation Energy    =      -0.6690525925768016 [Eh]
	 SCS Total Energy          =    -751.8479263412148157 [Eh]
	-----------------------------------------------------------

*** Psi4 exiting successfully. Buy a developer a beer!
