                               Psi4 1.9 release

  ==> Input File <==

--------------------------------------------------------------------------
MEMORY 60 GB

molecule dimer {
1 1
K      0.000000     0.000000     0.000000
--
0 1
O      2.777715     0.000000     0.000000
H      3.370886     0.755912     0.000000
H      3.370886    -0.755912     0.000000
--
0 1
O     -2.777715     0.000000     0.000000
H     -3.370886    -0.755912     0.000000
H     -3.370886     0.755912     0.000000

units ang
no_reorient
no_com
symmetry c1
}

set {
basis        aug-cc-pVTZ
scf_type     df
}

energy("mp2", bsse_type="cp")
--------------------------------------------------------------------------

                               Psi4 1.9 release
    Molecular point group: c1
  Charge       = 1
  Multiplicity = 1
  Basis Set: AUG-CC-PVTZ
    Blend: AUG-CC-PVTZ
  Basis Set: (AUG-CC-PVTZ AUX)
    Blend: AUG-CC-PVTZ-JKFIT + DEF2-UNIVERSAL-JKFIT
  @DF-RHF Final Energy:  -599.01751035154700
    Total Energy =                       -599.0175103515470028
 Dipole X            :          0.0000000            0.0000000            0.0000000
 Dipole Y            :         -0.0000000            0.0000000           -0.0000000
 Dipole Z            :          0.0000000            0.0000000            0.0000000
 Magnitude           :                                                    0.0000000
  Basis Set: (AUG-CC-PVTZ AUX)
    Blend: AUG-CC-PVTZ-RI + DEF2-QZVPP-RI
	 Reference Energy          =    -599.0175103515470028 [Eh]
	 Singles Energy            =      -0.0000000000000000 [Eh]
	 Same-Spin Energy          =      -0.0297035009720294 [Eh]
	 Opposite-Spin Energy      =      -0.0706417137433605 [Eh]
	 Correlation Energy        =      -0.1003452147153899 [Eh]
	 Total Energy              =    -599.1178555662623921 [Eh]
	 SCS Total Energy          =    -599.1121815750296946 [Eh]
                               Psi4 1.9 release
    Molecular point group: c1
  Basis Set: AUG-CC-PVTZ
    Blend: AUG-CC-PVTZ
  Basis Set: (AUG-CC-PVTZ AUX)
    Blend: AUG-CC-PVTZ-JKFIT + DEF2-UNIVERSAL-JKFIT
  @DF-RHF Final Energy:   -76.06030964038324
    Total Energy =                        -76.0603096403832382
  Basis Set: (AUG-CC-PVTZ AUX)
                               Psi4 1.9 release
  @DF-RHF Final Energy:  -152.11966035492912
    Total Energy =                       -152.1196603549291240
                               Psi4 1.9 release
  @DF-RHF Final Energy:  -675.10444126949426
    Total Energy =                       -675.1044412694942594
                               Psi4 1.9 release
  @DF-RHF Final Energy:  -675.10444126947698
    Total Energy =                       -675.1044412694769790
                               Psi4 1.9 release
  Multiplicity = 1
  @DF-RHF Final Energy:   -76.06030964039388
    Total Energy =                        -76.0603096403938821
	 Singles Energy            =      -0.0000000000000000 [Eh]
	 Same-Spin Energy          =      -0.0684388333797698 [Eh]
	 Opposite-Spin Energy      =      -0.2155810360586958 [Eh]
	 Correlation Energy        =      -0.2840198694384656 [Eh]
	 Total Energy              =     -76.3443295098323489 [Eh]
	 SCS Total Energy          =     -76.3418198281242439 [Eh]
                               Psi4 1.9 release
    Molecular point group: c1

    Geometry (in Bohr), charge = 1, multiplicity = 1:

       Center              X                  Y                   Z               Mass
    ------------   -----------------  -----------------  -----------------  -----------------
         K            0.000000000000     0.000000000000     0.000000000000    38.963706486400
         O            5.249120604576     0.000000000000     0.000000000000    15.994914619570
         H            6.370051340140     1.428466654947     0.000000000000     1.007825032230
         H            6.370051340140    -1.428466654947     0.000000000000     1.007825032230
         O           -5.249120604576     0.000000000000     0.000000000000    15.994914619570
         H           -6.370051340140    -1.428466654947     0.000000000000     1.007825032230
         H           -6.370051340140     1.428466654947     0.000000000000     1.007825032230

  Charge       = 1
  Multiplicity = 1
  Basis Set: AUG-CC-PVTZ
    Blend: AUG-CC-PVTZ
  Basis Set: (AUG-CC-PVTZ AUX)
    Blend: AUG-CC-PVTZ-JKFIT + DEF2-UNIVERSAL-JKFIT

    Orbital Energies [Eh]
    ---------------------

    Doubly Occupied:

       1A   -133.678823     2A    -20.731908     3A    -20.731908
       4A    -14.635399     5A    -11.665476     6A    -11.665438
       7A    -11.665188     8A     -1.893938     9A     -1.518665
      10A     -1.518417    11A     -1.103533    12A     -1.102722
      13A     -1.099105    14A     -0.879641    15A     -0.879533
      16A     -0.766410    17A     -0.759980    18A     -0.678587
      19A     -0.678261

  @DF-RHF Final Energy:  -751.18871109541055

   => Energetics <=

    Nuclear Repulsion Energy =             97.0195606394448475
    One-Electron Energy =               -1221.1106773264812091
    Two-Electron Energy =                 372.9024055916257794
    Total Energy =                       -751.1887110954106674
 Dipole X            :          0.0000000            0.0000000            0.0000000
 Dipole Y            :         -0.0000000            0.0000000           -0.0000000
 Dipole Z            :          0.0000000            0.0000000            0.0000000
 Magnitude           :                                                    0.0000000
  Basis Set: (AUG-CC-PVTZ AUX)
    Blend: AUG-CC-PVTZ-RI + DEF2-QZVPP-RI
	 Reference Energy          =    -751.1887110954105538 [Eh]
	 Singles Energy            =      -0.0000000000000000 [Eh]
	 Same-Spin Energy          =      -0.1676506252322507 [Eh]
	 Opposite-Spin Energy      =      -0.5012326490285284 [Eh]
	 Correlation Energy        =      -0.6688832742607791 [Eh]
	 Total Energy              =    -751.8575943696713466 [Eh]

	 ================> DF-SCS-MP2 Energies <==================
	-----------------------------------------------------------
	 SCS Same-Spin Scale       =       0.3333333333333333 [-]
	 SCS Opposite-Spin Scale   =       1.2000000000000000 [-]
	 SCS Same-Spin Energy      =      -0.0558835417440836 [Eh]
	 SCS Opposite-Spin Energy  =      -0.6014791788342341 [Eh]
	 SCS Correlation Energy    =      -0.6573627205783177 [Eh]
	 SCS Total Energy          =    -751.8460738159889161 [Eh]
	-----------------------------------------------------------

*** Psi4 exiting successfully. Buy a developer a beer!
