                               Psi4 1.9 release

  ==> Input File <==

--------------------------------------------------------------------------
MEMORY 60 GB

molecule dimer {
1 1
K      0.000000     0.000000     0.000000
--
0 1
O      3.282754     0.000000     0.000000
H      3.875924     0.755912     0.000000
H      3.875924    -0.755912     0.000000
O     -3.282754     0.000000     0.000000
H     -3.875924    -0.755912     0.000000
H     -3.875924     0.755912     0.000000

units ang
no_reorient
no_com
symmetry c1
}

set {
basis        aug-cc-pVTZ
scf_type     df
}

energy("mp2", bsse_type="cp")
--------------------------------------------------------------------------

                               Psi4 1.9 release
    Molecular point group: c1
  Charge       = 0
  Multiplicity = 1
  Basis Set: AUG-CC-PVTZ
    Blend: AUG-CC-PVTZ
  Basis Set: (AUG-CC-PVTZ AUX)
    Blend: AUG-CC-PVTZ-JKFIT + DEF2-UNIVERSAL-JKFIT
  @DF-RHF Final Energy:  -152.11999958813269
    Total Energy =                       -152.1199995881326572
 Dipole X            :         -0.0000000           -0.0000000           -0.0000000
 Dipole Y            :          0.0000000            0.0000000            0.0000000
 Dipole Z            :         -0.0000000            0.0000000           -0.0000000
 Magnitude           :                                                    0.0000000
  Basis Set: (AUG-CC-PVTZ AUX)
    Blend: AUG-CC-PVTZ-RI + DEF2-QZVPP-RI
	 Reference Energy          =    -152.1199995881326856 [Eh]
	 Singles Energy            =      -0.0000000000000000 [Eh]
	 Same-Spin Energy          =      -0.1368872886446930 [Eh]
	 Opposite-Spin Energy      =      -0.4310986566706760 [Eh]
	 Correlation Energy        =      -0.5679859453153689 [Eh]
	 Total Energy              =    -152.6879855334480567 [Eh]
	 SCS Total Energy          =    -152.6829470723523912 [Eh]
                               Psi4 1.9 release
    Molecular point group: c1
  Multiplicity = 1
  Basis Set: AUG-CC-PVTZ
    Blend: AUG-CC-PVTZ
  Basis Set: (AUG-CC-PVTZ AUX)
    Blend: AUG-CC-PVTZ-JKFIT + DEF2-UNIVERSAL-JKFIT
  @DF-RHF Final Energy:  -599.01750896226906
    Total Energy =                       -599.0175089622691758
  Basis Set: (AUG-CC-PVTZ AUX)
	 Singles Energy            =      -0.0000000000000000 [Eh]
	 Same-Spin Energy          =      -0.0273639911977373 [Eh]
	 Opposite-Spin Energy      =      -0.0635556192037894 [Eh]
	 Correlation Energy        =      -0.0909196104015267 [Eh]
	 Total Energy              =    -599.1084285726706185 [Eh]
	 SCS Total Energy          =    -599.1028970357128856 [Eh]
                               Psi4 1.9 release
    Molecular point group: c1

    Geometry (in Bohr), charge = 1, multiplicity = 1:

       Center              X                  Y                   Z               Mass
    ------------   -----------------  -----------------  -----------------  -----------------
         K            0.000000000000     0.000000000000     0.000000000000    38.963706486400
         O            6.203505997251     0.000000000000     0.000000000000    15.994914619570
         H            7.324434843089     1.428466654947     0.000000000000     1.007825032230
         H            7.324434843089    -1.428466654947     0.000000000000     1.007825032230
         O           -6.203505997251     0.000000000000     0.000000000000    15.994914619570
         H           -7.324434843089    -1.428466654947     0.000000000000     1.007825032230
         H           -7.324434843089     1.428466654947     0.000000000000     1.007825032230

  Charge       = 1
  Multiplicity = 1
  Basis Set: AUG-CC-PVTZ
    Blend: AUG-CC-PVTZ
  Basis Set: (AUG-CC-PVTZ AUX)
    Blend: AUG-CC-PVTZ-JKFIT + DEF2-UNIVERSAL-JKFIT

    Orbital Energies [Eh]
    ---------------------

    Doubly Occupied:

       1A   -133.703753     2A    -20.712568     3A    -20.712568
       4A    -14.659492     5A    -11.689592     6A    -11.689576
       7A    -11.689428     8A     -1.915449     9A     -1.497268
      10A     -1.497250    11A     -1.123712    12A     -1.123315
      13A     -1.119743    14A     -0.859006    15A     -0.858998
      16A     -0.739801    17A     -0.738802    18A     -0.657119
      19A     -0.657081

  @DF-RHF Final Energy:  -751.17932092419301

   => Energetics <=

    Nuclear Repulsion Energy =             85.2936885101601661
    One-Electron Energy =               -1197.6569735641760417
    Two-Electron Energy =                 361.1839641298229822
    Total Energy =                       -751.1793209241930072
 Dipole X            :         -0.0000000           -0.0000000           -0.0000000
 Dipole Y            :          0.0000000            0.0000000            0.0000000
 Dipole Z            :         -0.0000000            0.0000000           -0.0000000
 Magnitude           :                                                    0.0000000
  Basis Set: (AUG-CC-PVTZ AUX)
    Blend: AUG-CC-PVTZ-RI + DEF2-QZVPP-RI
	 Reference Energy          =    -751.1793209241930072 [Eh]
	 Singles Energy            =      -0.0000000000000000 [Eh]
	 Same-Spin Energy          =      -0.1644957876058722 [Eh]
	 Opposite-Spin Energy      =      -0.4937813740347656 [Eh]
	 Correlation Energy        =      -0.6582771616406379 [Eh]
	 Total Energy              =    -751.8375980858336334 [Eh]

	 ================> DF-SCS-MP2 Energies <==================
	-----------------------------------------------------------
	 SCS Same-Spin Scale       =       0.3333333333333333 [-]
	 SCS Opposite-Spin Scale   =       1.2000000000000000 [-]
	 SCS Same-Spin Energy      =      -0.0548319292019574 [Eh]
	 SCS Opposite-Spin Energy  =      -0.5925376488417188 [Eh]
	 SCS Correlation Energy    =      -0.6473695780436762 [Eh]
	 SCS Total Energy          =    -751.8266905022367155 [Eh]
	-----------------------------------------------------------

*** Psi4 exiting successfully. Buy a developer a beer!
