                               Psi4 1.8.2 release

  ==> Input File <==

--------------------------------------------------------------------------
MEMORY 60 GB

molecule dimer {
-1 1
F          1.828163     0.000000     0.000000
Gh(O)      0.000000    -0.007351     1.810088
Gh(H)     -0.603559     0.630161     1.426970
Gh(H)      0.742517    -0.027506     1.118978
Gh(O)      0.000000     0.007351    -1.810088
Gh(H)     -0.603559    -0.630161    -1.426970
Gh(H)      0.742517     0.027506    -1.118978

units ang
no_reorient
no_com
symmetry c1
}

set {
basis        aug-cc-pVTZ
scf_type     df
}

energy("mp2")
--------------------------------------------------------------------------

    Molecular point group: c1

    Geometry (in Angstrom), charge = -1, multiplicity = 1:

       Center              X                  Y                   Z               Mass
    ------------   -----------------  -----------------  -----------------  -----------------
         F            1.828163000000     0.000000000000     0.000000000000    18.998403162730
      Gh(O)           0.000000000000    -0.007351000000     1.810088000000    15.994914619570
      Gh(H)          -0.603559000000     0.630161000000     1.426970000000     1.007825032230
      Gh(H)           0.742517000000    -0.027506000000     1.118978000000     1.007825032230
      Gh(O)           0.000000000000     0.007351000000    -1.810088000000    15.994914619570
      Gh(H)          -0.603559000000    -0.630161000000    -1.426970000000     1.007825032230
      Gh(H)           0.742517000000     0.027506000000    -1.118978000000     1.007825032230

  Charge       = -1
  Multiplicity = 1
  Basis Set: AUG-CC-PVTZ
    Blend: AUG-CC-PVTZ
  Basis Set: (AUG-CC-PVTZ AUX)
    Blend: AUG-CC-PVTZ-JKFIT

    Orbital Energies [Eh]
    ---------------------

    Doubly Occupied:

       1A    -25.833770     2A     -1.075984     3A     -0.180986
       4A     -0.180981     5A     -0.180907

  @DF-RHF Final Energy:   -99.45098203386793

   => Energetics <=

    Nuclear Repulsion Energy =              0.0000000000000000
    One-Electron Energy =                -143.9967084596506766
    Two-Electron Energy =                  44.5457264257827461
    Total Energy =                        -99.4509820338679305
 Dipole X            :        -34.5471488           31.0925464           -3.4546024
 Dipole Y            :          0.0000000            0.0000000            0.0000000
 Dipole Z            :          0.0000000            0.0000000            0.0000000
 Magnitude           :                                                    3.4546024
  Basis Set: (AUG-CC-PVTZ AUX)
    Blend: AUG-CC-PVTZ-RI
	 Reference Energy          =     -99.4509820338679305 [Eh]
	 Singles Energy            =      -0.0000000000000000 [Eh]
	 Same-Spin Energy          =      -0.0818804630470256 [Eh]
	 Opposite-Spin Energy      =      -0.2290982693369440 [Eh]
	 Correlation Energy        =      -0.3109787323839697 [Eh]
	 Total Energy              =     -99.7619607662519030 [Eh]

	 ================> DF-SCS-MP2 Energies <==================
	-----------------------------------------------------------
	 SCS Same-Spin Scale       =       0.3333333333333333 [-]
	 SCS Opposite-Spin Scale   =       1.2000000000000000 [-]
	 SCS Same-Spin Energy      =      -0.0272934876823419 [Eh]
	 SCS Opposite-Spin Energy  =      -0.2749179232043328 [Eh]
	 SCS Correlation Energy    =      -0.3022114108866747 [Eh]
	 SCS Total Energy          =     -99.7531934447546007 [Eh]
	-----------------------------------------------------------

*** Psi4 exiting successfully. Buy a developer a beer!
