                               Psi4 1.8.2 release

  ==> Input File <==

--------------------------------------------------------------------------
MEMORY 60 GB

molecule dimer {
-1 1
F          2.611662     0.000000     0.000000
O          0.000000    -0.007351     1.810088
H         -0.603559     0.630161     1.426970
H          0.742517    -0.027506     1.118978
O          0.000000     0.007351    -1.810088
H         -0.603559    -0.630161    -1.426970
H          0.742517     0.027506    -1.118978

units ang
no_reorient
no_com
symmetry c1
}

set {
basis        aug-cc-pVTZ
scf_type     df
}

energy("mp2")
--------------------------------------------------------------------------

    Molecular point group: c1

    Geometry (in Angstrom), charge = -1, multiplicity = 1:

       Center              X                  Y                   Z               Mass
    ------------   -----------------  -----------------  -----------------  -----------------
         F            2.611662000000     0.000000000000     0.000000000000    18.998403162730
         O            0.000000000000    -0.007351000000     1.810088000000    15.994914619570
         H           -0.603559000000     0.630161000000     1.426970000000     1.007825032230
         H            0.742517000000    -0.027506000000     1.118978000000     1.007825032230
         O            0.000000000000     0.007351000000    -1.810088000000    15.994914619570
         H           -0.603559000000    -0.630161000000    -1.426970000000     1.007825032230
         H            0.742517000000     0.027506000000    -1.118978000000     1.007825032230

  Charge       = -1
  Multiplicity = 1
  Basis Set: AUG-CC-PVTZ
    Blend: AUG-CC-PVTZ
  Basis Set: (AUG-CC-PVTZ AUX)
    Blend: AUG-CC-PVTZ-JKFIT

    Orbital Energies [Eh]
    ---------------------

    Doubly Occupied:

       1A    -25.892903     2A    -20.407117     3A    -20.407116
       4A     -1.180368     5A     -1.177762     6A     -1.138001
       7A     -0.535581     8A     -0.531428     9A     -0.432052
      10A     -0.419974    11A     -0.348886    12A     -0.345235
      13A     -0.242554    14A     -0.242521    15A     -0.241967

  @DF-RHF Final Energy:  -251.61172196591986

   => Energetics <=

    Nuclear Repulsion Energy =             64.3437530358285841
    One-Electron Energy =                -484.8240177677027987
    Two-Electron Energy =                 168.8685427659543734
    Total Energy =                       -251.6117219659198554
 Dipole X            :        -49.0533005           44.9431183           -4.1101821
 Dipole Y            :          0.0000000            0.0000000            0.0000000
 Dipole Z            :          0.0000000            0.0000000            0.0000000
 Magnitude           :                                                    4.1101821
  Basis Set: (AUG-CC-PVTZ AUX)
    Blend: AUG-CC-PVTZ-RI
	 Reference Energy          =    -251.6117219659198554 [Eh]
	 Singles Energy            =      -0.0000000000000000 [Eh]
	 Same-Spin Energy          =      -0.2217782426753081 [Eh]
	 Opposite-Spin Energy      =      -0.6626967516129973 [Eh]
	 Correlation Energy        =      -0.8844749942883054 [Eh]
	 Total Energy              =    -252.4961969602081524 [Eh]

	 ================> DF-SCS-MP2 Energies <==================
	-----------------------------------------------------------
	 SCS Same-Spin Scale       =       0.3333333333333333 [-]
	 SCS Opposite-Spin Scale   =       1.2000000000000000 [-]
	 SCS Same-Spin Energy      =      -0.0739260808917694 [Eh]
	 SCS Opposite-Spin Energy  =      -0.7952361019355968 [Eh]
	 SCS Correlation Energy    =      -0.8691621828273661 [Eh]
	 SCS Total Energy          =    -252.4808841487472080 [Eh]
	-----------------------------------------------------------

*** Psi4 exiting successfully. Buy a developer a beer!
