                               Psi4 1.8.2 release

  ==> Input File <==

--------------------------------------------------------------------------
MEMORY 60 GB

molecule dimer {
-1 1
F          3.482216     0.000000     0.000000
O          0.000000    -0.007351     1.810088
H         -0.603559     0.630161     1.426970
H          0.742517    -0.027506     1.118978
O          0.000000     0.007351    -1.810088
H         -0.603559    -0.630161    -1.426970
H          0.742517     0.027506    -1.118978

units ang
no_reorient
no_com
symmetry c1
}

set {
basis        aug-cc-pVTZ
scf_type     df
}

energy("mp2")
--------------------------------------------------------------------------

    Molecular point group: c1

    Geometry (in Angstrom), charge = -1, multiplicity = 1:

       Center              X                  Y                   Z               Mass
    ------------   -----------------  -----------------  -----------------  -----------------
         F            3.482216000000     0.000000000000     0.000000000000    18.998403162730
         O            0.000000000000    -0.007351000000     1.810088000000    15.994914619570
         H           -0.603559000000     0.630161000000     1.426970000000     1.007825032230
         H            0.742517000000    -0.027506000000     1.118978000000     1.007825032230
         O            0.000000000000     0.007351000000    -1.810088000000    15.994914619570
         H           -0.603559000000    -0.630161000000    -1.426970000000     1.007825032230
         H            0.742517000000     0.027506000000    -1.118978000000     1.007825032230

  Charge       = -1
  Multiplicity = 1
  Basis Set: AUG-CC-PVTZ
    Blend: AUG-CC-PVTZ
  Basis Set: (AUG-CC-PVTZ AUX)
    Blend: AUG-CC-PVTZ-JKFIT

    Orbital Energies [Eh]
    ---------------------

    Doubly Occupied:

       1A    -25.864258     2A    -20.445633     3A    -20.445632
       4A     -1.216705     5A     -1.214276     6A     -1.106704
       7A     -0.572028     8A     -0.567420     9A     -0.466566
      10A     -0.454046    11A     -0.384946    12A     -0.381183
      13A     -0.211784    14A     -0.211670    15A     -0.211450

  @DF-RHF Final Energy:  -251.58638521334032

   => Energetics <=

    Nuclear Repulsion Energy =             58.1385558889033192
    One-Electron Energy =                -471.9412773437779265
    Two-Electron Energy =                 162.2163362415342647
    Total Energy =                       -251.5863852133403213
 Dipole X            :        -65.7716469           59.7490961           -6.0225509
 Dipole Y            :         -0.0000000            0.0000000           -0.0000000
 Dipole Z            :         -0.0000000            0.0000000           -0.0000000
 Magnitude           :                                                    6.0225509
  Basis Set: (AUG-CC-PVTZ AUX)
    Blend: AUG-CC-PVTZ-RI
	 Reference Energy          =    -251.5863852133403213 [Eh]
	 Singles Energy            =      -0.0000000000000000 [Eh]
	 Same-Spin Energy          =      -0.2205288620843903 [Eh]
	 Opposite-Spin Energy      =      -0.6613424323907171 [Eh]
	 Correlation Energy        =      -0.8818712944751074 [Eh]
	 Total Energy              =    -252.4682565078154255 [Eh]

	 ================> DF-SCS-MP2 Energies <==================
	-----------------------------------------------------------
	 SCS Same-Spin Scale       =       0.3333333333333333 [-]
	 SCS Opposite-Spin Scale   =       1.2000000000000000 [-]
	 SCS Same-Spin Energy      =      -0.0735096206947968 [Eh]
	 SCS Opposite-Spin Energy  =      -0.7936109188688605 [Eh]
	 SCS Correlation Energy    =      -0.8671205395636572 [Eh]
	 SCS Total Energy          =    -252.4535057529039648 [Eh]
	-----------------------------------------------------------

*** Psi4 exiting successfully. Buy a developer a beer!
