                               Psi4 1.8.2 release

  ==> Input File <==

--------------------------------------------------------------------------
MEMORY 60 GB

molecule dimer {
-1 1
F      1.654053     0.000000     0.000000
--
0 1
O      0.000000    -0.007351     1.810088
H     -0.603559     0.630161     1.426970
H      0.742517    -0.027506     1.118978
--
0 1
O      0.000000     0.007351    -1.810088
H     -0.603559    -0.630161    -1.426970
H      0.742517     0.027506    -1.118978

units ang
no_reorient
no_com
symmetry c1
}

set {
basis        aug-cc-pVTZ
scf_type     df
}

energy("mp2", bsse_type="cp")
--------------------------------------------------------------------------

                               Psi4 1.8.2 release
    Molecular point group: c1
  Charge       = -1
  Multiplicity = 1
  Basis Set: AUG-CC-PVTZ
    Blend: AUG-CC-PVTZ
  Basis Set: (AUG-CC-PVTZ AUX)
    Blend: AUG-CC-PVTZ-JKFIT
  @DF-RHF Final Energy:   -99.45100637605599
    Total Energy =                        -99.4510063760559859
 Dipole X            :        -31.2566936           28.1313645           -3.1253291
 Dipole Y            :         -0.0000000            0.0000000           -0.0000000
 Dipole Z            :          0.0000000            0.0000000            0.0000000
 Magnitude           :                                                    3.1253291
  Basis Set: (AUG-CC-PVTZ AUX)
    Blend: AUG-CC-PVTZ-RI
	 Reference Energy          =     -99.4510063760559859 [Eh]
	 Singles Energy            =      -0.0000000000000000 [Eh]
	 Same-Spin Energy          =      -0.0819253028878477 [Eh]
	 Opposite-Spin Energy      =      -0.2296540379290741 [Eh]
	 Correlation Energy        =      -0.3115793408169218 [Eh]
	 Total Energy              =     -99.7625857168729056 [Eh]
	 SCS Total Energy          =     -99.7538996558668174 [Eh]
                               Psi4 1.8.2 release
    Molecular point group: c1
  Basis Set: AUG-CC-PVTZ
    Blend: AUG-CC-PVTZ
  Basis Set: (AUG-CC-PVTZ AUX)
    Blend: AUG-CC-PVTZ-JKFIT
  @DF-RHF Final Energy:   -76.05565616098653
    Total Energy =                        -76.0556561609865298
  Basis Set: (AUG-CC-PVTZ AUX)
                               Psi4 1.8.2 release
  @DF-RHF Final Energy:  -152.10873910646737
    Total Energy =                       -152.1087391064673398
                               Psi4 1.8.2 release
  @DF-RHF Final Energy:  -175.54923331092621
    Total Energy =                       -175.5492333109262120
                               Psi4 1.8.2 release
  @DF-RHF Final Energy:  -175.54923331092039
    Total Energy =                       -175.5492333109203571
                               Psi4 1.8.2 release
  Multiplicity = 1
  @DF-RHF Final Energy:   -76.05565616099226
    Total Energy =                        -76.0556561609922710
	 Singles Energy            =      -0.0000000000000000 [Eh]
	 Same-Spin Energy          =      -0.0689605283276795 [Eh]
	 Opposite-Spin Energy      =      -0.2177171882231317 [Eh]
	 Correlation Energy        =      -0.2866777165508113 [Eh]
	 Total Energy              =     -76.3423338775430693 [Eh]
	 SCS Total Energy          =     -76.3399036296359128 [Eh]
                               Psi4 1.8.2 release
    Molecular point group: c1

    Geometry (in Bohr), charge = -1, multiplicity = 1:

       Center              X                  Y                   Z               Mass
    ------------   -----------------  -----------------  -----------------  -----------------
         F            3.125707166992     0.000000000000     0.000000000000    18.998403162730
         O            0.000000000000    -0.013891376748     3.420570582978    15.994914619570
         H           -1.140561210555     1.190831704945     2.696582489245     1.007825032230
         H            1.403153773497    -0.051978806807     2.114561960413     1.007825032230
         O            0.000000000000     0.013891376748    -3.420570582978    15.994914619570
         H           -1.140561210555    -1.190831704945    -2.696582489245     1.007825032230
         H            1.403153773497     0.051978806807    -2.114561960413     1.007825032230

  Charge       = -1
  Multiplicity = 1
  Basis Set: AUG-CC-PVTZ
    Blend: AUG-CC-PVTZ
  Basis Set: (AUG-CC-PVTZ AUX)
    Blend: AUG-CC-PVTZ-JKFIT

    Orbital Energies [Eh]
    ---------------------

    Doubly Occupied:

       1A    -25.951517     2A    -20.341671     3A    -20.341670
       4A     -1.231412     5A     -1.123040     6A     -1.118437
       7A     -0.502553     8A     -0.487881     9A     -0.396503
      10A     -0.390081    11A     -0.318772    12A     -0.298045
      13A     -0.290134    14A     -0.284956    15A     -0.282305

  @DF-RHF Final Energy:  -251.63702507219378

   => Energetics <=

    Nuclear Repulsion Energy =             74.4724456735097817
    One-Electron Energy =                -505.5009802190313621
    Two-Electron Energy =                 179.3915094733277726
    Total Energy =                       -251.6370250721937794
 Dipole X            :        -30.5831177           28.6565496           -1.9265681
 Dipole Y            :         -0.0000000            0.0000000           -0.0000000
 Dipole Z            :         -0.0000000            0.0000000           -0.0000000
 Magnitude           :                                                    1.9265681
  Basis Set: (AUG-CC-PVTZ AUX)
    Blend: AUG-CC-PVTZ-RI
	 Reference Energy          =    -251.6370250721937794 [Eh]
	 Singles Energy            =      -0.0000000000000000 [Eh]
	 Same-Spin Energy          =      -0.2249056329607798 [Eh]
	 Opposite-Spin Energy      =      -0.6640240870518208 [Eh]
	 Correlation Energy        =      -0.8889297200126006 [Eh]
	 Total Energy              =    -252.5259547922063916 [Eh]

	 ================> DF-SCS-MP2 Energies <==================
	-----------------------------------------------------------
	 SCS Same-Spin Scale       =       0.3333333333333333 [-]
	 SCS Opposite-Spin Scale   =       1.2000000000000000 [-]
	 SCS Same-Spin Energy      =      -0.0749685443202599 [Eh]
	 SCS Opposite-Spin Energy  =      -0.7968289044621849 [Eh]
	 SCS Correlation Energy    =      -0.8717974487824448 [Eh]
	 SCS Total Energy          =    -252.5088225209762243 [Eh]
	-----------------------------------------------------------

*** Psi4 exiting successfully. Buy a developer a beer!
