                               Psi4 1.8.2 release

  ==> Input File <==

--------------------------------------------------------------------------
MEMORY 60 GB

molecule dimer {
-1 1
F      1.566997     0.000000     0.000000
--
0 1
O      0.000000    -0.007351     1.810088
H     -0.603559     0.630161     1.426970
H      0.742517    -0.027506     1.118978
--
0 1
O      0.000000     0.007351    -1.810088
H     -0.603559    -0.630161    -1.426970
H      0.742517     0.027506    -1.118978

units ang
no_reorient
no_com
symmetry c1
}

set {
basis        aug-cc-pVTZ
scf_type     df
}

energy("mp2", bsse_type="cp")
--------------------------------------------------------------------------

                               Psi4 1.8.2 release
    Molecular point group: c1
  Charge       = -1
  Multiplicity = 1
  Basis Set: AUG-CC-PVTZ
    Blend: AUG-CC-PVTZ
  Basis Set: (AUG-CC-PVTZ AUX)
    Blend: AUG-CC-PVTZ-JKFIT
  @DF-RHF Final Energy:   -99.45101863843324
    Total Energy =                        -99.4510186384332400
 Dipole X            :        -29.6114566           26.6507565           -2.9607000
 Dipole Y            :         -0.0000000            0.0000000           -0.0000000
 Dipole Z            :          0.0000000            0.0000000            0.0000000
 Magnitude           :                                                    2.9607000
  Basis Set: (AUG-CC-PVTZ AUX)
    Blend: AUG-CC-PVTZ-RI
	 Reference Energy          =     -99.4510186384332400 [Eh]
	 Singles Energy            =      -0.0000000000000000 [Eh]
	 Same-Spin Energy          =      -0.0819568127393244 [Eh]
	 Opposite-Spin Energy      =      -0.2299549191593735 [Eh]
	 Correlation Energy        =      -0.3119117318986978 [Eh]
	 Total Energy              =     -99.7629303703319437 [Eh]
	 SCS Total Energy          =     -99.7542834790042576 [Eh]
                               Psi4 1.8.2 release
    Molecular point group: c1
  Basis Set: AUG-CC-PVTZ
    Blend: AUG-CC-PVTZ
  Basis Set: (AUG-CC-PVTZ AUX)
    Blend: AUG-CC-PVTZ-JKFIT
  @DF-RHF Final Energy:   -76.05565897374477
    Total Energy =                        -76.0556589737447553
  Basis Set: (AUG-CC-PVTZ AUX)
                               Psi4 1.8.2 release
  @DF-RHF Final Energy:  -152.10874427186346
    Total Energy =                       -152.1087442718634861
                               Psi4 1.8.2 release
  @DF-RHF Final Energy:  -175.54837139921545
    Total Energy =                       -175.5483713992154549
                               Psi4 1.8.2 release
  @DF-RHF Final Energy:  -175.54837139919124
    Total Energy =                       -175.5483713991912396
                               Psi4 1.8.2 release
  Multiplicity = 1
  @DF-RHF Final Energy:   -76.05565897375926
    Total Energy =                        -76.0556589737592645
	 Singles Energy            =      -0.0000000000000000 [Eh]
	 Same-Spin Energy          =      -0.0689633605804618 [Eh]
	 Opposite-Spin Energy      =      -0.2177698871323054 [Eh]
	 Correlation Energy        =      -0.2867332477127672 [Eh]
	 Total Energy              =     -76.3423922214720250 [Eh]
	 SCS Total Energy          =     -76.3399706251781822 [Eh]
                               Psi4 1.8.2 release
    Molecular point group: c1

    Geometry (in Bohr), charge = -1, multiplicity = 1:

       Center              X                  Y                   Z               Mass
    ------------   -----------------  -----------------  -----------------  -----------------
         F            2.961195169414     0.000000000000     0.000000000000    18.998403162730
         O            0.000000000000    -0.013891376748     3.420570582978    15.994914619570
         H           -1.140561210555     1.190831704945     2.696582489245     1.007825032230
         H            1.403153773497    -0.051978806807     2.114561960413     1.007825032230
         O            0.000000000000     0.013891376748    -3.420570582978    15.994914619570
         H           -1.140561210555    -1.190831704945    -2.696582489245     1.007825032230
         H            1.403153773497     0.051978806807    -2.114561960413     1.007825032230

  Charge       = -1
  Multiplicity = 1
  Basis Set: AUG-CC-PVTZ
    Blend: AUG-CC-PVTZ
  Basis Set: (AUG-CC-PVTZ AUX)
    Blend: AUG-CC-PVTZ-JKFIT

    Orbital Energies [Eh]
    ---------------------

    Doubly Occupied:

       1A    -25.957561     2A    -20.334779     3A    -20.334778
       4A     -1.244235     5A     -1.118238     6A     -1.112310
       7A     -0.507250     8A     -0.483667     9A     -0.395920
      10A     -0.391252    11A     -0.326767    12A     -0.297943
      13A     -0.287233    14A     -0.281146    15A     -0.278286

  @DF-RHF Final Energy:  -251.63418473707077

   => Energetics <=

    Nuclear Repulsion Energy =             75.5690884976383472
    One-Electron Energy =                -507.7038120679823692
    Two-Electron Energy =                 180.5005388332732537
    Total Energy =                       -251.6341847370707683
 Dipole X            :        -28.9174464           27.1759417           -1.7415047
 Dipole Y            :          0.0000000            0.0000000            0.0000000
 Dipole Z            :          0.0000000            0.0000000            0.0000000
 Magnitude           :                                                    1.7415047
  Basis Set: (AUG-CC-PVTZ AUX)
    Blend: AUG-CC-PVTZ-RI
	 Reference Energy          =    -251.6341847370707683 [Eh]
	 Singles Energy            =      -0.0000000000000000 [Eh]
	 Same-Spin Energy          =      -0.2252652938596074 [Eh]
	 Opposite-Spin Energy      =      -0.6641092877212664 [Eh]
	 Correlation Energy        =      -0.8893745815808738 [Eh]
	 Total Energy              =    -252.5235593186516496 [Eh]

	 ================> DF-SCS-MP2 Energies <==================
	-----------------------------------------------------------
	 SCS Same-Spin Scale       =       0.3333333333333333 [-]
	 SCS Opposite-Spin Scale   =       1.2000000000000000 [-]
	 SCS Same-Spin Energy      =      -0.0750884312865358 [Eh]
	 SCS Opposite-Spin Energy  =      -0.7969311452655197 [Eh]
	 SCS Correlation Energy    =      -0.8720195765520555 [Eh]
	 SCS Total Energy          =    -252.5062043136228169 [Eh]
	-----------------------------------------------------------

*** Psi4 exiting successfully. Buy a developer a beer!
