                               Psi4 1.9 release

  ==> Input File <==

--------------------------------------------------------------------------
MEMORY 60 GB

molecule dimer {
-1 1
F      1.828163     0.000000     0.000000
--
0 1
O      0.000000    -0.007351     1.810088
H     -0.603559     0.630161     1.426970
H      0.742517    -0.027506     1.118978
O      0.000000     0.007351    -1.810088
H     -0.603559    -0.630161    -1.426970
H      0.742517     0.027506    -1.118978

units ang
no_reorient
no_com
symmetry c1
}

set {
basis        aug-cc-pVTZ
scf_type     df
}

energy("mp2", bsse_type="cp")
--------------------------------------------------------------------------

                               Psi4 1.9 release
    Molecular point group: c1
  Charge       = 0
  Multiplicity = 1
  Basis Set: AUG-CC-PVTZ
    Blend: AUG-CC-PVTZ
  Basis Set: (AUG-CC-PVTZ AUX)
    Blend: AUG-CC-PVTZ-JKFIT
  @DF-RHF Final Energy:  -152.10872539629938
    Total Energy =                       -152.1087253962993771
 Dipole X            :         -0.4046562            0.5251851            0.1205289
 Dipole Y            :          0.0000000            0.0000000            0.0000000
 Dipole Z            :         -0.0000000            0.0000000           -0.0000000
 Magnitude           :                                                    0.1205289
  Basis Set: (AUG-CC-PVTZ AUX)
    Blend: AUG-CC-PVTZ-RI
	 Reference Energy          =    -152.1087253962993771 [Eh]
	 Singles Energy            =      -0.0000000000000000 [Eh]
	 Same-Spin Energy          =      -0.1384196966140784 [Eh]
	 Opposite-Spin Energy      =      -0.4359799589620624 [Eh]
	 Correlation Energy        =      -0.5743996555761408 [Eh]
	 Total Energy              =    -152.6831250518755212 [Eh]
	 SCS Total Energy          =    -152.6780412459252148 [Eh]
                               Psi4 1.9 release
    Molecular point group: c1
  Multiplicity = 1
  Basis Set: AUG-CC-PVTZ
    Blend: AUG-CC-PVTZ
  Basis Set: (AUG-CC-PVTZ AUX)
    Blend: AUG-CC-PVTZ-JKFIT
  @DF-RHF Final Energy:   -99.45098203386155
    Total Energy =                        -99.4509820338615498
  Basis Set: (AUG-CC-PVTZ AUX)
	 Singles Energy            =      -0.0000000000000000 [Eh]
	 Same-Spin Energy          =      -0.0818804630470329 [Eh]
	 Opposite-Spin Energy      =      -0.2290982693369455 [Eh]
	 Correlation Energy        =      -0.3109787323839784 [Eh]
	 Total Energy              =     -99.7619607662455223 [Eh]
	 SCS Total Energy          =     -99.7531934447482342 [Eh]
                               Psi4 1.9 release
    Molecular point group: c1

    Geometry (in Bohr), charge = -1, multiplicity = 1:

       Center              X                  Y                   Z               Mass
    ------------   -----------------  -----------------  -----------------  -----------------
         F            3.454727382695     0.000000000000     0.000000000000    18.998403162730
         O            0.000000000000    -0.013891376748     3.420570582978    15.994914619570
         H           -1.140561210555     1.190831704945     2.696582489245     1.007825032230
         H            1.403153773497    -0.051978806807     2.114561960413     1.007825032230
         O            0.000000000000     0.013891376748    -3.420570582978    15.994914619570
         H           -1.140561210555    -1.190831704945    -2.696582489245     1.007825032230
         H            1.403153773497     0.051978806807    -2.114561960413     1.007825032230

  Charge       = -1
  Multiplicity = 1
  Basis Set: AUG-CC-PVTZ
    Blend: AUG-CC-PVTZ
  Basis Set: (AUG-CC-PVTZ AUX)
    Blend: AUG-CC-PVTZ-JKFIT

    Orbital Energies [Eh]
    ---------------------

    Doubly Occupied:

       1A    -25.939128     2A    -20.355300     3A    -20.355298
       4A     -1.207996     5A     -1.133235     6A     -1.130466
       7A     -0.500168     8A     -0.496246     9A     -0.399664
      10A     -0.389881    11A     -0.307974    12A     -0.304332
      13A     -0.291559    14A     -0.284252    15A     -0.284089

  @DF-RHF Final Energy:  -251.63797637301207

   => Energetics <=

    Nuclear Repulsion Energy =             72.3507178950204377
    One-Electron Energy =                -501.2182089233871238
    Two-Electron Energy =                 177.2295146553545919
    Total Energy =                       -251.6379763730120658
 Dipole X            :        -33.9298507           31.6177316           -2.3121192
 Dipole Y            :          0.0000000            0.0000000            0.0000000
 Dipole Z            :         -0.0000000            0.0000000           -0.0000000
 Magnitude           :                                                    2.3121192
  Basis Set: (AUG-CC-PVTZ AUX)
    Blend: AUG-CC-PVTZ-RI
	 Reference Energy          =    -251.6379763730120658 [Eh]
	 Singles Energy            =      -0.0000000000000000 [Eh]
	 Same-Spin Energy          =      -0.2242107708740649 [Eh]
	 Opposite-Spin Energy      =      -0.6638764743577741 [Eh]
	 Correlation Energy        =      -0.8880872452318390 [Eh]
	 Total Energy              =    -252.5260636182439100 [Eh]

	 ================> DF-SCS-MP2 Energies <==================
	-----------------------------------------------------------
	 SCS Same-Spin Scale       =       0.3333333333333333 [-]
	 SCS Opposite-Spin Scale   =       1.2000000000000000 [-]
	 SCS Same-Spin Energy      =      -0.0747369236246883 [Eh]
	 SCS Opposite-Spin Energy  =      -0.7966517692293289 [Eh]
	 SCS Correlation Energy    =      -0.8713886928540172 [Eh]
	 SCS Total Energy          =    -252.5093650658660920 [Eh]
	-----------------------------------------------------------

*** Psi4 exiting successfully. Buy a developer a beer!
