                               Psi4 1.9 release

  ==> Input File <==

--------------------------------------------------------------------------
MEMORY 60 GB

molecule dimer {
-1 1
F      2.089330     0.000000     0.000000
--
0 1
O      0.000000    -0.007351     1.810088
H     -0.603559     0.630161     1.426970
H      0.742517    -0.027506     1.118978
O      0.000000     0.007351    -1.810088
H     -0.603559    -0.630161    -1.426970
H      0.742517     0.027506    -1.118978

units ang
no_reorient
no_com
symmetry c1
}

set {
basis        aug-cc-pVTZ
scf_type     df
}

energy("mp2", bsse_type="cp")
--------------------------------------------------------------------------

                               Psi4 1.9 release
    Molecular point group: c1
  Charge       = 0
  Multiplicity = 1
  Basis Set: AUG-CC-PVTZ
    Blend: AUG-CC-PVTZ
  Basis Set: (AUG-CC-PVTZ AUX)
    Blend: AUG-CC-PVTZ-JKFIT
  @DF-RHF Final Energy:  -152.10870073641428
    Total Energy =                       -152.1087007364142778
 Dipole X            :         -0.4047121            0.5251851            0.1204730
 Dipole Y            :          0.0000000            0.0000000            0.0000000
 Dipole Z            :         -0.0000000            0.0000000           -0.0000000
 Magnitude           :                                                    0.1204730
  Basis Set: (AUG-CC-PVTZ AUX)
    Blend: AUG-CC-PVTZ-RI
	 Reference Energy          =    -152.1087007364142778 [Eh]
	 Singles Energy            =      -0.0000000000000000 [Eh]
	 Same-Spin Energy          =      -0.1384056755768003 [Eh]
	 Opposite-Spin Energy      =      -0.4358650397811152 [Eh]
	 Correlation Energy        =      -0.5742707153579155 [Eh]
	 Total Energy              =    -152.6829714517722039 [Eh]
	 SCS Total Energy          =    -152.6778740093438955 [Eh]
                               Psi4 1.9 release
    Molecular point group: c1
  Multiplicity = 1
  Basis Set: AUG-CC-PVTZ
    Blend: AUG-CC-PVTZ
  Basis Set: (AUG-CC-PVTZ AUX)
    Blend: AUG-CC-PVTZ-JKFIT
  @DF-RHF Final Energy:   -99.45094055909725
    Total Energy =                        -99.4509405590972477
  Basis Set: (AUG-CC-PVTZ AUX)
	 Singles Energy            =      -0.0000000000000000 [Eh]
	 Same-Spin Energy          =      -0.0818316490470229 [Eh]
	 Opposite-Spin Energy      =      -0.2284133293733638 [Eh]
	 Correlation Energy        =      -0.3102449784203867 [Eh]
	 Total Energy              =     -99.7611855375176333 [Eh]
	 SCS Total Energy          =     -99.7523137706942862 [Eh]
                               Psi4 1.9 release
    Molecular point group: c1

    Geometry (in Bohr), charge = -1, multiplicity = 1:

       Center              X                  Y                   Z               Mass
    ------------   -----------------  -----------------  -----------------  -----------------
         F            3.948261485703     0.000000000000     0.000000000000    18.998403162730
         O            0.000000000000    -0.013891376748     3.420570582978    15.994914619570
         H           -1.140561210555     1.190831704945     2.696582489245     1.007825032230
         H            1.403153773497    -0.051978806807     2.114561960413     1.007825032230
         O            0.000000000000     0.013891376748    -3.420570582978    15.994914619570
         H           -1.140561210555    -1.190831704945    -2.696582489245     1.007825032230
         H            1.403153773497     0.051978806807    -2.114561960413     1.007825032230

  Charge       = -1
  Multiplicity = 1
  Basis Set: AUG-CC-PVTZ
    Blend: AUG-CC-PVTZ
  Basis Set: (AUG-CC-PVTZ AUX)
    Blend: AUG-CC-PVTZ-JKFIT

    Orbital Energies [Eh]
    ---------------------

    Doubly Occupied:

       1A    -25.921401     2A    -20.374572     3A    -20.374571
       4A     -1.179870     5A     -1.148906     6A     -1.146944
       7A     -0.509260     8A     -0.507117     9A     -0.408538
      10A     -0.396625    11A     -0.319903    12A     -0.317306
      13A     -0.274779    14A     -0.272629    15A     -0.271592

  @DF-RHF Final Energy:  -251.63190756857938

   => Energetics <=

    Nuclear Repulsion Energy =             69.3910522496732085
    One-Electron Energy =                -495.1978950819000147
    Two-Electron Energy =                 174.1749352636474555
    Total Energy =                       -251.6319075685793791
 Dipole X            :        -38.9699130           36.0595385           -2.9103745
 Dipole Y            :          0.0000000            0.0000000            0.0000000
 Dipole Z            :         -0.0000000            0.0000000           -0.0000000
 Magnitude           :                                                    2.9103745
  Basis Set: (AUG-CC-PVTZ AUX)
    Blend: AUG-CC-PVTZ-RI
	 Reference Energy          =    -251.6319075685793791 [Eh]
	 Singles Energy            =      -0.0000000000000000 [Eh]
	 Same-Spin Energy          =      -0.2232532294240598 [Eh]
	 Opposite-Spin Energy      =      -0.6636423031790429 [Eh]
	 Correlation Energy        =      -0.8868955326031027 [Eh]
	 Total Energy              =    -252.5188031011824705 [Eh]

	 ================> DF-SCS-MP2 Energies <==================
	-----------------------------------------------------------
	 SCS Same-Spin Scale       =       0.3333333333333333 [-]
	 SCS Opposite-Spin Scale   =       1.2000000000000000 [-]
	 SCS Same-Spin Energy      =      -0.0744177431413533 [Eh]
	 SCS Opposite-Spin Energy  =      -0.7963707638148515 [Eh]
	 SCS Correlation Energy    =      -0.8707885069562048 [Eh]
	 SCS Total Energy          =    -252.5026960755355958 [Eh]
	-----------------------------------------------------------

*** Psi4 exiting successfully. Buy a developer a beer!
