                               Psi4 1.8.2 release

  ==> Input File <==

--------------------------------------------------------------------------
MEMORY 60 GB

molecule dimer {
0 1
Gh(F)      3.482216     0.000000     0.000000
O          0.000000    -0.007351     1.810088
H         -0.603559     0.630161     1.426970
H          0.742517    -0.027506     1.118978
Gh(O)      0.000000     0.007351    -1.810088
Gh(H)     -0.603559    -0.630161    -1.426970
Gh(H)      0.742517     0.027506    -1.118978

units ang
no_reorient
no_com
symmetry c1
}

set {
basis        aug-cc-pVTZ
scf_type     df
}

energy("mp2")
--------------------------------------------------------------------------

    Molecular point group: c1

    Geometry (in Angstrom), charge = 0, multiplicity = 1:

       Center              X                  Y                   Z               Mass
    ------------   -----------------  -----------------  -----------------  -----------------
      Gh(F)           3.482216000000     0.000000000000     0.000000000000    18.998403162730
         O            0.000000000000    -0.007351000000     1.810088000000    15.994914619570
         H           -0.603559000000     0.630161000000     1.426970000000     1.007825032230
         H            0.742517000000    -0.027506000000     1.118978000000     1.007825032230
      Gh(O)           0.000000000000     0.007351000000    -1.810088000000    15.994914619570
      Gh(H)          -0.603559000000    -0.630161000000    -1.426970000000     1.007825032230
      Gh(H)           0.742517000000     0.027506000000    -1.118978000000     1.007825032230

  Charge       = 0
  Multiplicity = 1
  Basis Set: AUG-CC-PVTZ
    Blend: AUG-CC-PVTZ
  Basis Set: (AUG-CC-PVTZ AUX)
    Blend: AUG-CC-PVTZ-JKFIT

    Orbital Energies [Eh]
    ---------------------

    Doubly Occupied:

       1A    -20.573322     2A     -1.341810     3A     -0.697237
       4A     -0.584556     5A     -0.508993

  @DF-RHF Final Energy:   -76.05561930470031

   => Energetics <=

    Nuclear Repulsion Energy =              8.9382600710002649
    One-Electron Energy =                -122.5759195575469249
    Two-Electron Energy =                  37.5820401818463381
    Total Energy =                        -76.0556193047003148
 Dipole X            :         -0.1816509            0.2625926            0.0809416
 Dipole Y            :         -0.6228261            1.0277219            0.4048958
 Dipole Z            :        -32.8703714           32.1757091           -0.6946623
 Magnitude           :                                                    0.8081138
  Basis Set: (AUG-CC-PVTZ AUX)
    Blend: AUG-CC-PVTZ-RI
	 Reference Energy          =     -76.0556193047003148 [Eh]
	 Singles Energy            =      -0.0000000000000000 [Eh]
	 Same-Spin Energy          =      -0.0689227676058646 [Eh]
	 Opposite-Spin Energy      =      -0.2171627022126504 [Eh]
	 Correlation Energy        =      -0.2860854698185150 [Eh]
	 Total Energy              =     -76.3417047745188313 [Eh]

	 ================> DF-SCS-MP2 Energies <==================
	-----------------------------------------------------------
	 SCS Same-Spin Scale       =       0.3333333333333333 [-]
	 SCS Opposite-Spin Scale   =       1.2000000000000000 [-]
	 SCS Same-Spin Energy      =      -0.0229742558686215 [Eh]
	 SCS Opposite-Spin Energy  =      -0.2605952426551805 [Eh]
	 SCS Correlation Energy    =      -0.2835694985238020 [Eh]
	 SCS Total Energy          =     -76.3391888032241184 [Eh]
	-----------------------------------------------------------

*** Psi4 exiting successfully. Buy a developer a beer!
