                               Psi4 1.8.2 release

  ==> Input File <==

--------------------------------------------------------------------------
MEMORY 60 GB

molecule dimer {
-1 1
F          1.828163     0.000000     0.000000
O          0.000000    -0.007351     1.810088
H         -0.603559     0.630161     1.426970
H          0.742517    -0.027506     1.118978
O          0.000000     0.007351    -1.810088
H         -0.603559    -0.630161    -1.426970
H          0.742517     0.027506    -1.118978

units ang
no_reorient
no_com
symmetry c1
}

set {
basis        aug-cc-pVTZ
scf_type     df
}

energy("mp2")
--------------------------------------------------------------------------

    Molecular point group: c1

    Geometry (in Angstrom), charge = -1, multiplicity = 1:

       Center              X                  Y                   Z               Mass
    ------------   -----------------  -----------------  -----------------  -----------------
         F            1.828163000000     0.000000000000     0.000000000000    18.998403162730
         O            0.000000000000    -0.007351000000     1.810088000000    15.994914619570
         H           -0.603559000000     0.630161000000     1.426970000000     1.007825032230
         H            0.742517000000    -0.027506000000     1.118978000000     1.007825032230
         O            0.000000000000     0.007351000000    -1.810088000000    15.994914619570
         H           -0.603559000000    -0.630161000000    -1.426970000000     1.007825032230
         H            0.742517000000     0.027506000000    -1.118978000000     1.007825032230

  Charge       = -1
  Multiplicity = 1
  Basis Set: AUG-CC-PVTZ
    Blend: AUG-CC-PVTZ
  Basis Set: (AUG-CC-PVTZ AUX)
    Blend: AUG-CC-PVTZ-JKFIT

    Orbital Energies [Eh]
    ---------------------

    Doubly Occupied:

       1A    -25.939128     2A    -20.355300     3A    -20.355298
       4A     -1.207996     5A     -1.133235     6A     -1.130466
       7A     -0.500168     8A     -0.496246     9A     -0.399664
      10A     -0.389881    11A     -0.307974    12A     -0.304332
      13A     -0.291559    14A     -0.284252    15A     -0.284089

  @DF-RHF Final Energy:  -251.63797637302042

   => Energetics <=

    Nuclear Repulsion Energy =             72.3507178950204377
    One-Electron Energy =                -501.2182089233705256
    Two-Electron Energy =                 177.2295146553296377
    Total Energy =                       -251.6379763730204218
 Dipole X            :        -33.9298507           31.6177316           -2.3121192
 Dipole Y            :          0.0000000            0.0000000            0.0000000
 Dipole Z            :          0.0000000            0.0000000            0.0000000
 Magnitude           :                                                    2.3121192
  Basis Set: (AUG-CC-PVTZ AUX)
    Blend: AUG-CC-PVTZ-RI
	 Reference Energy          =    -251.6379763730204218 [Eh]
	 Singles Energy            =      -0.0000000000000000 [Eh]
	 Same-Spin Energy          =      -0.2242107708740045 [Eh]
	 Opposite-Spin Energy      =      -0.6638764743574221 [Eh]
	 Correlation Energy        =      -0.8880872452314266 [Eh]
	 Total Energy              =    -252.5260636182518397 [Eh]

	 ================> DF-SCS-MP2 Energies <==================
	-----------------------------------------------------------
	 SCS Same-Spin Scale       =       0.3333333333333333 [-]
	 SCS Opposite-Spin Scale   =       1.2000000000000000 [-]
	 SCS Same-Spin Energy      =      -0.0747369236246682 [Eh]
	 SCS Opposite-Spin Energy  =      -0.7966517692289066 [Eh]
	 SCS Correlation Energy    =      -0.8713886928535748 [Eh]
	 SCS Total Energy          =    -252.5093650658739932 [Eh]
	-----------------------------------------------------------

*** Psi4 exiting successfully. Buy a developer a beer!
