                               Psi4 1.8.2 release

  ==> Input File <==

--------------------------------------------------------------------------
MEMORY 60 GB

molecule dimer {
-1 1
F      2.611662     0.000000     0.000000
--
0 1
O      0.000000    -0.007351     1.810088
H     -0.603559     0.630161     1.426970
H      0.742517    -0.027506     1.118978
--
0 1
O      0.000000     0.007351    -1.810088
H     -0.603559    -0.630161    -1.426970
H      0.742517     0.027506    -1.118978

units ang
no_reorient
no_com
symmetry c1
}

set {
basis        aug-cc-pVTZ
scf_type     df
}

energy("mp2", bsse_type="cp")
--------------------------------------------------------------------------

                               Psi4 1.8.2 release
    Molecular point group: c1
  Charge       = -1
  Multiplicity = 1
  Basis Set: AUG-CC-PVTZ
    Blend: AUG-CC-PVTZ
  Basis Set: (AUG-CC-PVTZ AUX)
    Blend: AUG-CC-PVTZ-JKFIT
  @DF-RHF Final Energy:   -99.45090375333459
    Total Energy =                        -99.4509037533345719
 Dipole X            :        -49.3529317           44.4179332           -4.9349985
 Dipole Y            :         -0.0000000            0.0000000           -0.0000000
 Dipole Z            :          0.0000000            0.0000000            0.0000000
 Magnitude           :                                                    4.9349985
  Basis Set: (AUG-CC-PVTZ AUX)
    Blend: AUG-CC-PVTZ-RI
	 Reference Energy          =     -99.4509037533345861 [Eh]
	 Singles Energy            =      -0.0000000000000000 [Eh]
	 Same-Spin Energy          =      -0.0817257478075046 [Eh]
	 Opposite-Spin Energy      =      -0.2273760257253088 [Eh]
	 Correlation Energy        =      -0.3091017735328134 [Eh]
	 Total Energy              =     -99.7600055268674026 [Eh]
	 SCS Total Energy          =     -99.7509969001407910 [Eh]
                               Psi4 1.8.2 release
    Molecular point group: c1
  Basis Set: AUG-CC-PVTZ
    Blend: AUG-CC-PVTZ
  Basis Set: (AUG-CC-PVTZ AUX)
    Blend: AUG-CC-PVTZ-JKFIT
  @DF-RHF Final Energy:   -76.05562660279516
    Total Energy =                        -76.0556266027951580
  Basis Set: (AUG-CC-PVTZ AUX)
                               Psi4 1.8.2 release
  @DF-RHF Final Energy:  -152.10868198026370
    Total Energy =                       -152.1086819802636967
                               Psi4 1.8.2 release
  @DF-RHF Final Energy:  -175.53369574954178
    Total Energy =                       -175.5336957495417778
                               Psi4 1.8.2 release
  @DF-RHF Final Energy:  -175.53369574951572
    Total Energy =                       -175.5336957495157435
                               Psi4 1.8.2 release
  Multiplicity = 1
  @DF-RHF Final Energy:   -76.05562660281001
    Total Energy =                        -76.0556266028100083
	 Singles Energy            =      -0.0000000000000000 [Eh]
	 Same-Spin Energy          =      -0.0689372808917845 [Eh]
	 Opposite-Spin Energy      =      -0.2174049911407104 [Eh]
	 Correlation Energy        =      -0.2863422720324948 [Eh]
	 Total Energy              =     -76.3419688748425074 [Eh]
	 SCS Total Energy          =     -76.3394916858094490 [Eh]
                               Psi4 1.8.2 release
    Molecular point group: c1

    Geometry (in Bohr), charge = -1, multiplicity = 1:

       Center              X                  Y                   Z               Mass
    ------------   -----------------  -----------------  -----------------  -----------------
         F            4.935325912265     0.000000000000     0.000000000000    18.998403162730
         O            0.000000000000    -0.013891376748     3.420570582978    15.994914619570
         H           -1.140561210555     1.190831704945     2.696582489245     1.007825032230
         H            1.403153773497    -0.051978806807     2.114561960413     1.007825032230
         O            0.000000000000     0.013891376748    -3.420570582978    15.994914619570
         H           -1.140561210555    -1.190831704945    -2.696582489245     1.007825032230
         H            1.403153773497     0.051978806807    -2.114561960413     1.007825032230

  Charge       = -1
  Multiplicity = 1
  Basis Set: AUG-CC-PVTZ
    Blend: AUG-CC-PVTZ
  Basis Set: (AUG-CC-PVTZ AUX)
    Blend: AUG-CC-PVTZ-JKFIT

    Orbital Energies [Eh]
    ---------------------

    Doubly Occupied:

       1A    -25.892903     2A    -20.407117     3A    -20.407116
       4A     -1.180368     5A     -1.177762     6A     -1.138001
       7A     -0.535581     8A     -0.531428     9A     -0.432052
      10A     -0.419974    11A     -0.348886    12A     -0.345235
      13A     -0.242554    14A     -0.242521    15A     -0.241967

  @DF-RHF Final Energy:  -251.61172196589797

   => Energetics <=

    Nuclear Repulsion Energy =             64.3437530358285841
    One-Electron Energy =                -484.8240177676941016
    Two-Electron Energy =                 168.8685427659675611
    Total Energy =                       -251.6117219658979707
 Dipole X            :        -49.0533005           44.9431183           -4.1101821
 Dipole Y            :          0.0000000            0.0000000            0.0000000
 Dipole Z            :          0.0000000            0.0000000            0.0000000
 Magnitude           :                                                    4.1101821
  Basis Set: (AUG-CC-PVTZ AUX)
    Blend: AUG-CC-PVTZ-RI
	 Reference Energy          =    -251.6117219658979707 [Eh]
	 Singles Energy            =      -0.0000000000000000 [Eh]
	 Same-Spin Energy          =      -0.2217782426752239 [Eh]
	 Opposite-Spin Energy      =      -0.6626967516129388 [Eh]
	 Correlation Energy        =      -0.8844749942881628 [Eh]
	 Total Energy              =    -252.4961969601861256 [Eh]

	 ================> DF-SCS-MP2 Energies <==================
	-----------------------------------------------------------
	 SCS Same-Spin Scale       =       0.3333333333333333 [-]
	 SCS Opposite-Spin Scale   =       1.2000000000000000 [-]
	 SCS Same-Spin Energy      =      -0.0739260808917413 [Eh]
	 SCS Opposite-Spin Energy  =      -0.7952361019355266 [Eh]
	 SCS Correlation Energy    =      -0.8691621828272680 [Eh]
	 SCS Total Energy          =    -252.4808841487252380 [Eh]
	-----------------------------------------------------------

*** Psi4 exiting successfully. Buy a developer a beer!
