                               Psi4 1.9 release

  ==> Input File <==

--------------------------------------------------------------------------
MEMORY 60 GB

molecule dimer {
-1 1
F      1.654053     0.000000     0.000000
--
0 1
O      0.000000    -0.007351     1.810088
H     -0.603559     0.630161     1.426970
H      0.742517    -0.027506     1.118978
O      0.000000     0.007351    -1.810088
H     -0.603559    -0.630161    -1.426970
H      0.742517     0.027506    -1.118978

units ang
no_reorient
no_com
symmetry c1
}

set {
basis        aug-cc-pVTZ
scf_type     df
}

energy("mp2", bsse_type="cp")
--------------------------------------------------------------------------

                               Psi4 1.9 release
    Molecular point group: c1
  Charge       = 0
  Multiplicity = 1
  Basis Set: AUG-CC-PVTZ
    Blend: AUG-CC-PVTZ
  Basis Set: (AUG-CC-PVTZ AUX)
    Blend: AUG-CC-PVTZ-JKFIT
  @DF-RHF Final Energy:  -152.10873910642295
    Total Energy =                       -152.1087391064229166
 Dipole X            :         -0.4046484            0.5251851            0.1205368
 Dipole Y            :         -0.0000000            0.0000000           -0.0000000
 Dipole Z            :         -0.0000000            0.0000000           -0.0000000
 Magnitude           :                                                    0.1205368
  Basis Set: (AUG-CC-PVTZ AUX)
    Blend: AUG-CC-PVTZ-RI
	 Reference Energy          =    -152.1087391064229450 [Eh]
	 Singles Energy            =      -0.0000000000000000 [Eh]
	 Same-Spin Energy          =      -0.1384303752030774 [Eh]
	 Opposite-Spin Energy      =      -0.4361172403309327 [Eh]
	 Correlation Energy        =      -0.5745476155340101 [Eh]
	 Total Energy              =    -152.6832867219569607 [Eh]
	 SCS Total Energy          =    -152.6782232532210912 [Eh]
                               Psi4 1.9 release
    Molecular point group: c1
  Multiplicity = 1
  Basis Set: AUG-CC-PVTZ
    Blend: AUG-CC-PVTZ
  Basis Set: (AUG-CC-PVTZ AUX)
    Blend: AUG-CC-PVTZ-JKFIT
  @DF-RHF Final Energy:   -99.45100637605232
    Total Energy =                        -99.4510063760523337
  Basis Set: (AUG-CC-PVTZ AUX)
	 Singles Energy            =      -0.0000000000000000 [Eh]
	 Same-Spin Energy          =      -0.0819253028878584 [Eh]
	 Opposite-Spin Energy      =      -0.2296540379291120 [Eh]
	 Correlation Energy        =      -0.3115793408169703 [Eh]
	 Total Energy              =     -99.7625857168692960 [Eh]
	 SCS Total Energy          =     -99.7538996558632078 [Eh]
                               Psi4 1.9 release
    Molecular point group: c1

    Geometry (in Bohr), charge = -1, multiplicity = 1:

       Center              X                  Y                   Z               Mass
    ------------   -----------------  -----------------  -----------------  -----------------
         F            3.125707166992     0.000000000000     0.000000000000    18.998403162730
         O            0.000000000000    -0.013891376748     3.420570582978    15.994914619570
         H           -1.140561210555     1.190831704945     2.696582489245     1.007825032230
         H            1.403153773497    -0.051978806807     2.114561960413     1.007825032230
         O            0.000000000000     0.013891376748    -3.420570582978    15.994914619570
         H           -1.140561210555    -1.190831704945    -2.696582489245     1.007825032230
         H            1.403153773497     0.051978806807    -2.114561960413     1.007825032230

  Charge       = -1
  Multiplicity = 1
  Basis Set: AUG-CC-PVTZ
    Blend: AUG-CC-PVTZ
  Basis Set: (AUG-CC-PVTZ AUX)
    Blend: AUG-CC-PVTZ-JKFIT

    Orbital Energies [Eh]
    ---------------------

    Doubly Occupied:

       1A    -25.951517     2A    -20.341671     3A    -20.341670
       4A     -1.231412     5A     -1.123040     6A     -1.118437
       7A     -0.502553     8A     -0.487881     9A     -0.396503
      10A     -0.390081    11A     -0.318772    12A     -0.298045
      13A     -0.290134    14A     -0.284956    15A     -0.282305

  @DF-RHF Final Energy:  -251.63702507212065

   => Energetics <=

    Nuclear Repulsion Energy =             74.4724456735097817
    One-Electron Energy =                -505.5009802190159576
    Two-Electron Energy =                 179.3915094733855540
    Total Energy =                       -251.6370250721206503
 Dipole X            :        -30.5831177           28.6565496           -1.9265681
 Dipole Y            :         -0.0000000            0.0000000           -0.0000000
 Dipole Z            :          0.0000000            0.0000000            0.0000000
 Magnitude           :                                                    1.9265681
  Basis Set: (AUG-CC-PVTZ AUX)
    Blend: AUG-CC-PVTZ-RI
	 Reference Energy          =    -251.6370250721206503 [Eh]
	 Singles Energy            =      -0.0000000000000000 [Eh]
	 Same-Spin Energy          =      -0.2249056329607232 [Eh]
	 Opposite-Spin Energy      =      -0.6640240870517627 [Eh]
	 Correlation Energy        =      -0.8889297200124859 [Eh]
	 Total Energy              =    -252.5259547921331489 [Eh]

	 ================> DF-SCS-MP2 Energies <==================
	-----------------------------------------------------------
	 SCS Same-Spin Scale       =       0.3333333333333333 [-]
	 SCS Opposite-Spin Scale   =       1.2000000000000000 [-]
	 SCS Same-Spin Energy      =      -0.0749685443202411 [Eh]
	 SCS Opposite-Spin Energy  =      -0.7968289044621153 [Eh]
	 SCS Correlation Energy    =      -0.8717974487823563 [Eh]
	 SCS Total Energy          =    -252.5088225209030099 [Eh]
	-----------------------------------------------------------

*** Psi4 exiting successfully. Buy a developer a beer!
