                               Psi4 1.8.2 release

  ==> Input File <==

--------------------------------------------------------------------------
MEMORY 60 GB

molecule dimer {
-1 1
F          2.437551     0.000000     0.000000
O          0.000000    -0.007351     1.810088
H         -0.603559     0.630161     1.426970
H          0.742517    -0.027506     1.118978
O          0.000000     0.007351    -1.810088
H         -0.603559    -0.630161    -1.426970
H          0.742517     0.027506    -1.118978

units ang
no_reorient
no_com
symmetry c1
}

set {
basis        aug-cc-pVTZ
scf_type     df
}

energy("mp2")
--------------------------------------------------------------------------

    Molecular point group: c1

    Geometry (in Angstrom), charge = -1, multiplicity = 1:

       Center              X                  Y                   Z               Mass
    ------------   -----------------  -----------------  -----------------  -----------------
         F            2.437551000000     0.000000000000     0.000000000000    18.998403162730
         O            0.000000000000    -0.007351000000     1.810088000000    15.994914619570
         H           -0.603559000000     0.630161000000     1.426970000000     1.007825032230
         H            0.742517000000    -0.027506000000     1.118978000000     1.007825032230
         O            0.000000000000     0.007351000000    -1.810088000000    15.994914619570
         H           -0.603559000000    -0.630161000000    -1.426970000000     1.007825032230
         H            0.742517000000     0.027506000000    -1.118978000000     1.007825032230

  Charge       = -1
  Multiplicity = 1
  Basis Set: AUG-CC-PVTZ
    Blend: AUG-CC-PVTZ
  Basis Set: (AUG-CC-PVTZ AUX)
    Blend: AUG-CC-PVTZ-JKFIT

    Orbital Energies [Eh]
    ---------------------

    Doubly Occupied:

       1A    -25.901313     2A    -20.397173     3A    -20.397172
       4A     -1.172098     5A     -1.168692     6A     -1.147470
       7A     -0.526986     8A     -0.523050     9A     -0.424049
      10A     -0.411954    11A     -0.339850    12A     -0.336329
      13A     -0.251942    14A     -0.251658    15A     -0.251313

  @DF-RHF Final Energy:  -251.61856016957807

   => Energetics <=

    Nuclear Repulsion Energy =             65.8999978277238370
    One-Electron Energy =                -488.0350159331501914
    Two-Electron Energy =                 170.5164579358482797
    Total Energy =                       -251.6185601695780747
 Dipole X            :        -45.6950868           41.9819194           -3.7131674
 Dipole Y            :          0.0000000            0.0000000            0.0000000
 Dipole Z            :         -0.0000000            0.0000000           -0.0000000
 Magnitude           :                                                    3.7131674
  Basis Set: (AUG-CC-PVTZ AUX)
    Blend: AUG-CC-PVTZ-RI
	 Reference Energy          =    -251.6185601695780747 [Eh]
	 Singles Energy            =      -0.0000000000000000 [Eh]
	 Same-Spin Energy          =      -0.2221962112602715 [Eh]
	 Opposite-Spin Energy      =      -0.6630560388435760 [Eh]
	 Correlation Energy        =      -0.8852522501038476 [Eh]
	 Total Energy              =    -252.5038124196819354 [Eh]

	 ================> DF-SCS-MP2 Energies <==================
	-----------------------------------------------------------
	 SCS Same-Spin Scale       =       0.3333333333333333 [-]
	 SCS Opposite-Spin Scale   =       1.2000000000000000 [-]
	 SCS Same-Spin Energy      =      -0.0740654037534238 [Eh]
	 SCS Opposite-Spin Energy  =      -0.7956672466122912 [Eh]
	 SCS Correlation Energy    =      -0.8697326503657150 [Eh]
	 SCS Total Energy          =    -252.4882928199437799 [Eh]
	-----------------------------------------------------------

*** Psi4 exiting successfully. Buy a developer a beer!
