                               Psi4 1.8.2 release

  ==> Input File <==

--------------------------------------------------------------------------
MEMORY 60 GB

molecule dimer {
-1 1
F      2.437551     0.000000     0.000000
--
0 1
O      0.000000    -0.007351     1.810088
H     -0.603559     0.630161     1.426970
H      0.742517    -0.027506     1.118978
--
0 1
O      0.000000     0.007351    -1.810088
H     -0.603559    -0.630161    -1.426970
H      0.742517     0.027506    -1.118978

units ang
no_reorient
no_com
symmetry c1
}

set {
basis        aug-cc-pVTZ
scf_type     df
}

energy("mp2", bsse_type="cp")
--------------------------------------------------------------------------

                               Psi4 1.8.2 release
    Molecular point group: c1
  Charge       = -1
  Multiplicity = 1
  Basis Set: AUG-CC-PVTZ
    Blend: AUG-CC-PVTZ
  Basis Set: (AUG-CC-PVTZ AUX)
    Blend: AUG-CC-PVTZ-JKFIT
  @DF-RHF Final Energy:   -99.45091478439012
    Total Energy =                        -99.4509147843901360
 Dipole X            :        -46.0629679           41.4567343           -4.6062337
 Dipole Y            :          0.0000000            0.0000000            0.0000000
 Dipole Z            :         -0.0000000            0.0000000           -0.0000000
 Magnitude           :                                                    4.6062337
  Basis Set: (AUG-CC-PVTZ AUX)
    Blend: AUG-CC-PVTZ-RI
	 Reference Energy          =     -99.4509147843901218 [Eh]
	 Singles Energy            =      -0.0000000000000000 [Eh]
	 Same-Spin Energy          =      -0.0817589353271122 [Eh]
	 Opposite-Spin Energy      =      -0.2276780905525613 [Eh]
	 Correlation Energy        =      -0.3094370258796735 [Eh]
	 Total Energy              =     -99.7603518102697961 [Eh]
	 SCS Total Energy          =     -99.7513814714955629 [Eh]
                               Psi4 1.8.2 release
    Molecular point group: c1
  Basis Set: AUG-CC-PVTZ
    Blend: AUG-CC-PVTZ
  Basis Set: (AUG-CC-PVTZ AUX)
    Blend: AUG-CC-PVTZ-JKFIT
  @DF-RHF Final Energy:   -76.05562812820811
    Total Energy =                        -76.0556281282081130
  Basis Set: (AUG-CC-PVTZ AUX)
                               Psi4 1.8.2 release
  @DF-RHF Final Energy:  -152.10868486977867
    Total Energy =                       -152.1086848697786991
                               Psi4 1.8.2 release
  @DF-RHF Final Energy:  -175.53732837432722
    Total Energy =                       -175.5373283743272168
                               Psi4 1.8.2 release
  @DF-RHF Final Energy:  -175.53732837433083
    Total Energy =                       -175.5373283743308264
                               Psi4 1.8.2 release
  Multiplicity = 1
  @DF-RHF Final Energy:   -76.05562812821059
    Total Energy =                        -76.0556281282105857
	 Singles Energy            =      -0.0000000000000000 [Eh]
	 Same-Spin Energy          =      -0.0689406064949955 [Eh]
	 Opposite-Spin Energy      =      -0.2174751736229802 [Eh]
	 Correlation Energy        =      -0.2864157801179757 [Eh]
	 Total Energy              =     -76.3420439083285629 [Eh]
	 SCS Total Energy          =     -76.3395785387231598 [Eh]
                               Psi4 1.8.2 release
    Molecular point group: c1

    Geometry (in Bohr), charge = -1, multiplicity = 1:

       Center              X                  Y                   Z               Mass
    ------------   -----------------  -----------------  -----------------  -----------------
         F            4.606303806836     0.000000000000     0.000000000000    18.998403162730
         O            0.000000000000    -0.013891376748     3.420570582978    15.994914619570
         H           -1.140561210555     1.190831704945     2.696582489245     1.007825032230
         H            1.403153773497    -0.051978806807     2.114561960413     1.007825032230
         O            0.000000000000     0.013891376748    -3.420570582978    15.994914619570
         H           -1.140561210555    -1.190831704945    -2.696582489245     1.007825032230
         H            1.403153773497     0.051978806807    -2.114561960413     1.007825032230

  Charge       = -1
  Multiplicity = 1
  Basis Set: AUG-CC-PVTZ
    Blend: AUG-CC-PVTZ
  Basis Set: (AUG-CC-PVTZ AUX)
    Blend: AUG-CC-PVTZ-JKFIT

    Orbital Energies [Eh]
    ---------------------

    Doubly Occupied:

       1A    -25.901313     2A    -20.397173     3A    -20.397172
       4A     -1.172098     5A     -1.168692     6A     -1.147470
       7A     -0.526986     8A     -0.523050     9A     -0.424049
      10A     -0.411954    11A     -0.339850    12A     -0.336329
      13A     -0.251942    14A     -0.251658    15A     -0.251313

  @DF-RHF Final Energy:  -251.61856016962815

   => Energetics <=

    Nuclear Repulsion Energy =             65.8999978277238512
    One-Electron Energy =                -488.0350159331637769
    Two-Electron Energy =                 170.5164579358117862
    Total Energy =                       -251.6185601696281537
 Dipole X            :        -45.6950868           41.9819194           -3.7131674
 Dipole Y            :         -0.0000000            0.0000000           -0.0000000
 Dipole Z            :         -0.0000000            0.0000000           -0.0000000
 Magnitude           :                                                    3.7131674
  Basis Set: (AUG-CC-PVTZ AUX)
    Blend: AUG-CC-PVTZ-RI
	 Reference Energy          =    -251.6185601696281537 [Eh]
	 Singles Energy            =      -0.0000000000000000 [Eh]
	 Same-Spin Energy          =      -0.2221962112602232 [Eh]
	 Opposite-Spin Energy      =      -0.6630560388435749 [Eh]
	 Correlation Energy        =      -0.8852522501037980 [Eh]
	 Total Energy              =    -252.5038124197319576 [Eh]

	 ================> DF-SCS-MP2 Energies <==================
	-----------------------------------------------------------
	 SCS Same-Spin Scale       =       0.3333333333333333 [-]
	 SCS Opposite-Spin Scale   =       1.2000000000000000 [-]
	 SCS Same-Spin Energy      =      -0.0740654037534077 [Eh]
	 SCS Opposite-Spin Energy  =      -0.7956672466122898 [Eh]
	 SCS Correlation Energy    =      -0.8697326503656976 [Eh]
	 SCS Total Energy          =    -252.4882928199938590 [Eh]
	-----------------------------------------------------------

*** Psi4 exiting successfully. Buy a developer a beer!
