                               Psi4 1.9 release

  ==> Input File <==

--------------------------------------------------------------------------
MEMORY 60 GB

molecule dimer {
-1 1
F      3.482216     0.000000     0.000000
--
0 1
O      0.000000    -0.007351     1.810088
H     -0.603559     0.630161     1.426970
H      0.742517    -0.027506     1.118978
O      0.000000     0.007351    -1.810088
H     -0.603559    -0.630161    -1.426970
H      0.742517     0.027506    -1.118978

units ang
no_reorient
no_com
symmetry c1
}

set {
basis        aug-cc-pVTZ
scf_type     df
}

energy("mp2", bsse_type="cp")
--------------------------------------------------------------------------

                               Psi4 1.9 release
    Molecular point group: c1
  Charge       = 0
  Multiplicity = 1
  Basis Set: AUG-CC-PVTZ
    Blend: AUG-CC-PVTZ
  Basis Set: (AUG-CC-PVTZ AUX)
    Blend: AUG-CC-PVTZ-JKFIT
  @DF-RHF Final Energy:  -152.10866727026001
    Total Energy =                       -152.1086672702600140
 Dipole X            :         -0.4048472            0.5251851            0.1203380
 Dipole Y            :         -0.0000000            0.0000000           -0.0000000
 Dipole Z            :          0.0000000            0.0000000            0.0000000
 Magnitude           :                                                    0.1203380
  Basis Set: (AUG-CC-PVTZ AUX)
    Blend: AUG-CC-PVTZ-RI
	 Reference Energy          =    -152.1086672702600140 [Eh]
	 Singles Energy            =      -0.0000000000000000 [Eh]
	 Same-Spin Energy          =      -0.1383517222142855 [Eh]
	 Opposite-Spin Energy      =      -0.4350031914203997 [Eh]
	 Correlation Energy        =      -0.5733549136346852 [Eh]
	 Total Energy              =    -152.6820221838947020 [Eh]
	 SCS Total Energy          =    -152.6767883407025863 [Eh]
                               Psi4 1.9 release
    Molecular point group: c1
  Multiplicity = 1
  Basis Set: AUG-CC-PVTZ
    Blend: AUG-CC-PVTZ
  Basis Set: (AUG-CC-PVTZ AUX)
    Blend: AUG-CC-PVTZ-JKFIT
  @DF-RHF Final Energy:   -99.45083591405968
    Total Energy =                        -99.4508359140596809
  Basis Set: (AUG-CC-PVTZ AUX)
	 Singles Energy            =      -0.0000000000000000 [Eh]
	 Same-Spin Energy          =      -0.0816115499125739 [Eh]
	 Opposite-Spin Energy      =      -0.2265245395348459 [Eh]
	 Correlation Energy        =      -0.3081360894474199 [Eh]
	 Total Energy              =     -99.7589720035070968 [Eh]
	 SCS Total Energy          =     -99.7498692114723582 [Eh]
                               Psi4 1.9 release
    Molecular point group: c1

    Geometry (in Bohr), charge = -1, multiplicity = 1:

       Center              X                  Y                   Z               Mass
    ------------   -----------------  -----------------  -----------------  -----------------
         F            6.580434549687     0.000000000000     0.000000000000    18.998403162730
         O            0.000000000000    -0.013891376748     3.420570582978    15.994914619570
         H           -1.140561210555     1.190831704945     2.696582489245     1.007825032230
         H            1.403153773497    -0.051978806807     2.114561960413     1.007825032230
         O            0.000000000000     0.013891376748    -3.420570582978    15.994914619570
         H           -1.140561210555    -1.190831704945    -2.696582489245     1.007825032230
         H            1.403153773497     0.051978806807    -2.114561960413     1.007825032230

  Charge       = -1
  Multiplicity = 1
  Basis Set: AUG-CC-PVTZ
    Blend: AUG-CC-PVTZ
  Basis Set: (AUG-CC-PVTZ AUX)
    Blend: AUG-CC-PVTZ-JKFIT

    Orbital Energies [Eh]
    ---------------------

    Doubly Occupied:

       1A    -25.864258     2A    -20.445633     3A    -20.445632
       4A     -1.216705     5A     -1.214276     6A     -1.106704
       7A     -0.572028     8A     -0.567420     9A     -0.466566
      10A     -0.454046    11A     -0.384946    12A     -0.381183
      13A     -0.211784    14A     -0.211670    15A     -0.211450

  @DF-RHF Final Energy:  -251.58638521333000

   => Energetics <=

    Nuclear Repulsion Energy =             58.1385558889033263
    One-Electron Energy =                -471.9412773437697410
    Two-Electron Energy =                 162.2163362415363963
    Total Energy =                       -251.5863852133300043
 Dipole X            :        -65.7716469           59.7490961           -6.0225509
 Dipole Y            :         -0.0000000            0.0000000           -0.0000000
 Dipole Z            :         -0.0000000            0.0000000           -0.0000000
 Magnitude           :                                                    6.0225509
  Basis Set: (AUG-CC-PVTZ AUX)
    Blend: AUG-CC-PVTZ-RI
	 Reference Energy          =    -251.5863852133300043 [Eh]
	 Singles Energy            =      -0.0000000000000000 [Eh]
	 Same-Spin Energy          =      -0.2205288620844479 [Eh]
	 Opposite-Spin Energy      =      -0.6613424323908925 [Eh]
	 Correlation Energy        =      -0.8818712944753404 [Eh]
	 Total Energy              =    -252.4682565078053358 [Eh]

	 ================> DF-SCS-MP2 Energies <==================
	-----------------------------------------------------------
	 SCS Same-Spin Scale       =       0.3333333333333333 [-]
	 SCS Opposite-Spin Scale   =       1.2000000000000000 [-]
	 SCS Same-Spin Energy      =      -0.0735096206948160 [Eh]
	 SCS Opposite-Spin Energy  =      -0.7936109188690710 [Eh]
	 SCS Correlation Energy    =      -0.8671205395638869 [Eh]
	 SCS Total Energy          =    -252.4535057528939035 [Eh]
	-----------------------------------------------------------

*** Psi4 exiting successfully. Buy a developer a beer!
