                               Psi4 1.9 release

  ==> Input File <==

--------------------------------------------------------------------------
MEMORY 60 GB

molecule dimer {
-1 1
F      1.566997     0.000000     0.000000
--
0 1
O      0.000000    -0.007351     1.810088
H     -0.603559     0.630161     1.426970
H      0.742517    -0.027506     1.118978
O      0.000000     0.007351    -1.810088
H     -0.603559    -0.630161    -1.426970
H      0.742517     0.027506    -1.118978

units ang
no_reorient
no_com
symmetry c1
}

set {
basis        aug-cc-pVTZ
scf_type     df
}

energy("mp2", bsse_type="cp")
--------------------------------------------------------------------------

                               Psi4 1.9 release
    Molecular point group: c1
  Charge       = 0
  Multiplicity = 1
  Basis Set: AUG-CC-PVTZ
    Blend: AUG-CC-PVTZ
  Basis Set: (AUG-CC-PVTZ AUX)
    Blend: AUG-CC-PVTZ-JKFIT
  @DF-RHF Final Energy:  -152.10874427184919
    Total Energy =                       -152.1087442718492184
 Dipole X            :         -0.4046519            0.5251851            0.1205333
 Dipole Y            :         -0.0000000            0.0000000           -0.0000000
 Dipole Z            :          0.0000000            0.0000000            0.0000000
 Magnitude           :                                                    0.1205333
  Basis Set: (AUG-CC-PVTZ AUX)
    Blend: AUG-CC-PVTZ-RI
	 Reference Energy          =    -152.1087442718491900 [Eh]
	 Singles Energy            =      -0.0000000000000000 [Eh]
	 Same-Spin Energy          =      -0.1384363137340303 [Eh]
	 Opposite-Spin Energy      =      -0.4362233162127675 [Eh]
	 Correlation Energy        =      -0.5746596299467979 [Eh]
	 Total Energy              =    -152.6834039017959981 [Eh]
	 SCS Total Energy          =    -152.6783576892158578 [Eh]
                               Psi4 1.9 release
    Molecular point group: c1
  Multiplicity = 1
  Basis Set: AUG-CC-PVTZ
    Blend: AUG-CC-PVTZ
  Basis Set: (AUG-CC-PVTZ AUX)
    Blend: AUG-CC-PVTZ-JKFIT
  @DF-RHF Final Energy:   -99.45101863843377
    Total Energy =                        -99.4510186384337658
  Basis Set: (AUG-CC-PVTZ AUX)
	 Singles Energy            =      -0.0000000000000000 [Eh]
	 Same-Spin Energy          =      -0.0819568127393132 [Eh]
	 Opposite-Spin Energy      =      -0.2299549191592576 [Eh]
	 Correlation Energy        =      -0.3119117318985708 [Eh]
	 Total Energy              =     -99.7629303703323416 [Eh]
	 SCS Total Energy          =     -99.7542834790046413 [Eh]
                               Psi4 1.9 release
    Molecular point group: c1

    Geometry (in Bohr), charge = -1, multiplicity = 1:

       Center              X                  Y                   Z               Mass
    ------------   -----------------  -----------------  -----------------  -----------------
         F            2.961195169414     0.000000000000     0.000000000000    18.998403162730
         O            0.000000000000    -0.013891376748     3.420570582978    15.994914619570
         H           -1.140561210555     1.190831704945     2.696582489245     1.007825032230
         H            1.403153773497    -0.051978806807     2.114561960413     1.007825032230
         O            0.000000000000     0.013891376748    -3.420570582978    15.994914619570
         H           -1.140561210555    -1.190831704945    -2.696582489245     1.007825032230
         H            1.403153773497     0.051978806807    -2.114561960413     1.007825032230

  Charge       = -1
  Multiplicity = 1
  Basis Set: AUG-CC-PVTZ
    Blend: AUG-CC-PVTZ
  Basis Set: (AUG-CC-PVTZ AUX)
    Blend: AUG-CC-PVTZ-JKFIT

    Orbital Energies [Eh]
    ---------------------

    Doubly Occupied:

       1A    -25.957561     2A    -20.334779     3A    -20.334778
       4A     -1.244235     5A     -1.118238     6A     -1.112310
       7A     -0.507250     8A     -0.483667     9A     -0.395920
      10A     -0.391252    11A     -0.326767    12A     -0.297943
      13A     -0.287233    14A     -0.281146    15A     -0.278286

  @DF-RHF Final Energy:  -251.63418473704991

   => Energetics <=

    Nuclear Repulsion Energy =             75.5690884976383472
    One-Electron Energy =                -507.7038120679503095
    Two-Electron Energy =                 180.5005388332620555
    Total Energy =                       -251.6341847370499067
 Dipole X            :        -28.9174464           27.1759417           -1.7415047
 Dipole Y            :         -0.0000000            0.0000000           -0.0000000
 Dipole Z            :          0.0000000            0.0000000            0.0000000
 Magnitude           :                                                    1.7415047
  Basis Set: (AUG-CC-PVTZ AUX)
    Blend: AUG-CC-PVTZ-RI
	 Reference Energy          =    -251.6341847370499067 [Eh]
	 Singles Energy            =      -0.0000000000000000 [Eh]
	 Same-Spin Energy          =      -0.2252652938596648 [Eh]
	 Opposite-Spin Energy      =      -0.6641092877213230 [Eh]
	 Correlation Energy        =      -0.8893745815809878 [Eh]
	 Total Energy              =    -252.5235593186309018 [Eh]

	 ================> DF-SCS-MP2 Energies <==================
	-----------------------------------------------------------
	 SCS Same-Spin Scale       =       0.3333333333333333 [-]
	 SCS Opposite-Spin Scale   =       1.2000000000000000 [-]
	 SCS Same-Spin Energy      =      -0.0750884312865549 [Eh]
	 SCS Opposite-Spin Energy  =      -0.7969311452655876 [Eh]
	 SCS Correlation Energy    =      -0.8720195765521426 [Eh]
	 SCS Total Energy          =    -252.5062043136020407 [Eh]
	-----------------------------------------------------------

*** Psi4 exiting successfully. Buy a developer a beer!
