                               Psi4 1.8.2 release

  ==> Input File <==

--------------------------------------------------------------------------
MEMORY 60 GB

molecule dimer {
-1 1
F      3.482216     0.000000     0.000000
--
0 1
O      0.000000    -0.007351     1.810088
H     -0.603559     0.630161     1.426970
H      0.742517    -0.027506     1.118978
--
0 1
O      0.000000     0.007351    -1.810088
H     -0.603559    -0.630161    -1.426970
H      0.742517     0.027506    -1.118978

units ang
no_reorient
no_com
symmetry c1
}

set {
basis        aug-cc-pVTZ
scf_type     df
}

energy("mp2", bsse_type="cp")
--------------------------------------------------------------------------

                               Psi4 1.8.2 release
    Molecular point group: c1
  Charge       = -1
  Multiplicity = 1
  Basis Set: AUG-CC-PVTZ
    Blend: AUG-CC-PVTZ
  Basis Set: (AUG-CC-PVTZ AUX)
    Blend: AUG-CC-PVTZ-JKFIT
  @DF-RHF Final Energy:   -99.45083591405944
    Total Energy =                        -99.4508359140594393
 Dipole X            :        -65.8031486           59.2239109           -6.5792376
 Dipole Y            :         -0.0000000            0.0000000           -0.0000000
 Dipole Z            :          0.0000000            0.0000000            0.0000000
 Magnitude           :                                                    6.5792376
  Basis Set: (AUG-CC-PVTZ AUX)
    Blend: AUG-CC-PVTZ-RI
	 Reference Energy          =     -99.4508359140594393 [Eh]
	 Singles Energy            =      -0.0000000000000000 [Eh]
	 Same-Spin Energy          =      -0.0816115499125856 [Eh]
	 Opposite-Spin Energy      =      -0.2265245395348711 [Eh]
	 Correlation Energy        =      -0.3081360894474568 [Eh]
	 Total Energy              =     -99.7589720035068979 [Eh]
	 SCS Total Energy          =     -99.7498692114721450 [Eh]
                               Psi4 1.8.2 release
    Molecular point group: c1
  Basis Set: AUG-CC-PVTZ
    Blend: AUG-CC-PVTZ
  Basis Set: (AUG-CC-PVTZ AUX)
    Blend: AUG-CC-PVTZ-JKFIT
  @DF-RHF Final Energy:   -76.05561930471148
    Total Energy =                        -76.0556193047114846
  Basis Set: (AUG-CC-PVTZ AUX)
                               Psi4 1.8.2 release
  @DF-RHF Final Energy:  -152.10866727026399
    Total Energy =                       -152.1086672702639930
                               Psi4 1.8.2 release
  @DF-RHF Final Energy:  -175.52053776094820
    Total Energy =                       -175.5205377609482014
                               Psi4 1.8.2 release
  @DF-RHF Final Energy:  -175.52053776097205
    Total Energy =                       -175.5205377609720472
                               Psi4 1.8.2 release
  Multiplicity = 1
  @DF-RHF Final Energy:   -76.05561930469464
    Total Energy =                        -76.0556193046946305
	 Singles Energy            =      -0.0000000000000000 [Eh]
	 Same-Spin Energy          =      -0.0689227676059123 [Eh]
	 Opposite-Spin Energy      =      -0.2171627022128613 [Eh]
	 Correlation Energy        =      -0.2860854698187736 [Eh]
	 Total Energy              =     -76.3417047745134170 [Eh]
	 SCS Total Energy          =     -76.3391888032187182 [Eh]
                               Psi4 1.8.2 release
    Molecular point group: c1

    Geometry (in Bohr), charge = -1, multiplicity = 1:

       Center              X                  Y                   Z               Mass
    ------------   -----------------  -----------------  -----------------  -----------------
         F            6.580434549687     0.000000000000     0.000000000000    18.998403162730
         O            0.000000000000    -0.013891376748     3.420570582978    15.994914619570
         H           -1.140561210555     1.190831704945     2.696582489245     1.007825032230
         H            1.403153773497    -0.051978806807     2.114561960413     1.007825032230
         O            0.000000000000     0.013891376748    -3.420570582978    15.994914619570
         H           -1.140561210555    -1.190831704945    -2.696582489245     1.007825032230
         H            1.403153773497     0.051978806807    -2.114561960413     1.007825032230

  Charge       = -1
  Multiplicity = 1
  Basis Set: AUG-CC-PVTZ
    Blend: AUG-CC-PVTZ
  Basis Set: (AUG-CC-PVTZ AUX)
    Blend: AUG-CC-PVTZ-JKFIT

    Orbital Energies [Eh]
    ---------------------

    Doubly Occupied:

       1A    -25.864258     2A    -20.445633     3A    -20.445632
       4A     -1.216705     5A     -1.214276     6A     -1.106704
       7A     -0.572028     8A     -0.567420     9A     -0.466566
      10A     -0.454046    11A     -0.384946    12A     -0.381183
      13A     -0.211784    14A     -0.211670    15A     -0.211450

  @DF-RHF Final Energy:  -251.58638521333384

   => Energetics <=

    Nuclear Repulsion Energy =             58.1385558889033263
    One-Electron Energy =                -471.9412773437804844
    Two-Electron Energy =                 162.2163362415433028
    Total Energy =                       -251.5863852133338412
 Dipole X            :        -65.7716469           59.7490961           -6.0225509
 Dipole Y            :         -0.0000000            0.0000000           -0.0000000
 Dipole Z            :         -0.0000000            0.0000000           -0.0000000
 Magnitude           :                                                    6.0225509
  Basis Set: (AUG-CC-PVTZ AUX)
    Blend: AUG-CC-PVTZ-RI
	 Reference Energy          =    -251.5863852133338412 [Eh]
	 Singles Energy            =      -0.0000000000000000 [Eh]
	 Same-Spin Energy          =      -0.2205288620845330 [Eh]
	 Opposite-Spin Energy      =      -0.6613424323910878 [Eh]
	 Correlation Energy        =      -0.8818712944756208 [Eh]
	 Total Energy              =    -252.4682565078094569 [Eh]

	 ================> DF-SCS-MP2 Energies <==================
	-----------------------------------------------------------
	 SCS Same-Spin Scale       =       0.3333333333333333 [-]
	 SCS Opposite-Spin Scale   =       1.2000000000000000 [-]
	 SCS Same-Spin Energy      =      -0.0735096206948443 [Eh]
	 SCS Opposite-Spin Energy  =      -0.7936109188693053 [Eh]
	 SCS Correlation Energy    =      -0.8671205395641497 [Eh]
	 SCS Total Energy          =    -252.4535057528979962 [Eh]
	-----------------------------------------------------------

*** Psi4 exiting successfully. Buy a developer a beer!
