                               Psi4 1.8.2 release

  ==> Input File <==

--------------------------------------------------------------------------
MEMORY 60 GB

molecule dimer {
-1 1
F          2.437551     0.000000     0.000000
Gh(O)      0.000000    -0.007351     1.810088
Gh(H)     -0.603559     0.630161     1.426970
Gh(H)      0.742517    -0.027506     1.118978
Gh(O)      0.000000     0.007351    -1.810088
Gh(H)     -0.603559    -0.630161    -1.426970
Gh(H)      0.742517     0.027506    -1.118978

units ang
no_reorient
no_com
symmetry c1
}

set {
basis        aug-cc-pVTZ
scf_type     df
}

energy("mp2")
--------------------------------------------------------------------------

    Molecular point group: c1

    Geometry (in Angstrom), charge = -1, multiplicity = 1:

       Center              X                  Y                   Z               Mass
    ------------   -----------------  -----------------  -----------------  -----------------
         F            2.437551000000     0.000000000000     0.000000000000    18.998403162730
      Gh(O)           0.000000000000    -0.007351000000     1.810088000000    15.994914619570
      Gh(H)          -0.603559000000     0.630161000000     1.426970000000     1.007825032230
      Gh(H)           0.742517000000    -0.027506000000     1.118978000000     1.007825032230
      Gh(O)           0.000000000000     0.007351000000    -1.810088000000    15.994914619570
      Gh(H)          -0.603559000000    -0.630161000000    -1.426970000000     1.007825032230
      Gh(H)           0.742517000000     0.027506000000    -1.118978000000     1.007825032230

  Charge       = -1
  Multiplicity = 1
  Basis Set: AUG-CC-PVTZ
    Blend: AUG-CC-PVTZ
  Basis Set: (AUG-CC-PVTZ AUX)
    Blend: AUG-CC-PVTZ-JKFIT

    Orbital Energies [Eh]
    ---------------------

    Doubly Occupied:

       1A    -25.833742     2A     -1.076020     3A     -0.181008
       4A     -0.180976     5A     -0.180938

  @DF-RHF Final Energy:   -99.45091478438802

   => Energetics <=

    Nuclear Repulsion Energy =              0.0000000000000000
    One-Electron Energy =                -143.9964635561188970
    Two-Electron Energy =                  44.5455487717308785
    Total Energy =                        -99.4509147843880186
 Dipole X            :        -46.0629679           41.4567343           -4.6062337
 Dipole Y            :          0.0000000            0.0000000            0.0000000
 Dipole Z            :         -0.0000000            0.0000000           -0.0000000
 Magnitude           :                                                    4.6062337
  Basis Set: (AUG-CC-PVTZ AUX)
    Blend: AUG-CC-PVTZ-RI
	 Reference Energy          =     -99.4509147843880186 [Eh]
	 Singles Energy            =      -0.0000000000000000 [Eh]
	 Same-Spin Energy          =      -0.0817589353271292 [Eh]
	 Opposite-Spin Energy      =      -0.2276780905525875 [Eh]
	 Correlation Energy        =      -0.3094370258797167 [Eh]
	 Total Energy              =     -99.7603518102677356 [Eh]

	 ================> DF-SCS-MP2 Energies <==================
	-----------------------------------------------------------
	 SCS Same-Spin Scale       =       0.3333333333333333 [-]
	 SCS Opposite-Spin Scale   =       1.2000000000000000 [-]
	 SCS Same-Spin Energy      =      -0.0272529784423764 [Eh]
	 SCS Opposite-Spin Energy  =      -0.2732137086631050 [Eh]
	 SCS Correlation Energy    =      -0.3004666871054814 [Eh]
	 SCS Total Energy          =     -99.7513814714935023 [Eh]
	-----------------------------------------------------------

*** Psi4 exiting successfully. Buy a developer a beer!
