                               Psi4 1.8.2 release

  ==> Input File <==

--------------------------------------------------------------------------
MEMORY 60 GB

molecule dimer {
-1 1
F      2.263440     0.000000     0.000000
--
0 1
O      0.000000    -0.007351     1.810088
H     -0.603559     0.630161     1.426970
H      0.742517    -0.027506     1.118978
--
0 1
O      0.000000     0.007351    -1.810088
H     -0.603559    -0.630161    -1.426970
H      0.742517     0.027506    -1.118978

units ang
no_reorient
no_com
symmetry c1
}

set {
basis        aug-cc-pVTZ
scf_type     df
}

energy("mp2", bsse_type="cp")
--------------------------------------------------------------------------

                               Psi4 1.8.2 release
    Molecular point group: c1
  Charge       = -1
  Multiplicity = 1
  Basis Set: AUG-CC-PVTZ
    Blend: AUG-CC-PVTZ
  Basis Set: (AUG-CC-PVTZ AUX)
    Blend: AUG-CC-PVTZ-JKFIT
  @DF-RHF Final Energy:   -99.45092215008519
    Total Energy =                        -99.4509221500851908
 Dipole X            :        -42.7729230           38.4955353           -4.2773877
 Dipole Y            :         -0.0000000            0.0000000           -0.0000000
 Dipole Z            :         -0.0000000            0.0000000           -0.0000000
 Magnitude           :                                                    4.2773877
  Basis Set: (AUG-CC-PVTZ AUX)
    Blend: AUG-CC-PVTZ-RI
	 Reference Energy          =     -99.4509221500851908 [Eh]
	 Singles Energy            =      -0.0000000000000000 [Eh]
	 Same-Spin Energy          =      -0.0817956494500549 [Eh]
	 Opposite-Spin Energy      =      -0.2280239319700550 [Eh]
	 Correlation Energy        =      -0.3098195814201100 [Eh]
	 Total Energy              =     -99.7607417315053056 [Eh]
	 SCS Total Energy          =     -99.7518160849326136 [Eh]
                               Psi4 1.8.2 release
    Molecular point group: c1
  Basis Set: AUG-CC-PVTZ
    Blend: AUG-CC-PVTZ
  Basis Set: (AUG-CC-PVTZ AUX)
    Blend: AUG-CC-PVTZ-JKFIT
  @DF-RHF Final Energy:   -76.05563085996249
    Total Energy =                        -76.0556308599624913
  Basis Set: (AUG-CC-PVTZ AUX)
                               Psi4 1.8.2 release
  @DF-RHF Final Energy:  -152.10869001049542
    Total Energy =                       -152.1086900104954225
                               Psi4 1.8.2 release
  @DF-RHF Final Energy:  -175.54110266216145
    Total Energy =                       -175.5411026621614496
                               Psi4 1.8.2 release
  @DF-RHF Final Energy:  -175.54110266216790
    Total Energy =                       -175.5411026621679014
                               Psi4 1.8.2 release
  Multiplicity = 1
  @DF-RHF Final Energy:   -76.05563085995963
    Total Energy =                        -76.0556308599596349
	 Singles Energy            =      -0.0000000000000000 [Eh]
	 Same-Spin Energy          =      -0.0689446190413539 [Eh]
	 Opposite-Spin Energy      =      -0.2175417720601610 [Eh]
	 Correlation Energy        =      -0.2864863911015149 [Eh]
	 Total Energy              =     -76.3421172510611541 [Eh]
	 SCS Total Energy          =     -76.3396625261122779 [Eh]
                               Psi4 1.8.2 release
    Molecular point group: c1

    Geometry (in Bohr), charge = -1, multiplicity = 1:

       Center              X                  Y                   Z               Mass
    ------------   -----------------  -----------------  -----------------  -----------------
         F            4.277281701406     0.000000000000     0.000000000000    18.998403162730
         O            0.000000000000    -0.013891376748     3.420570582978    15.994914619570
         H           -1.140561210555     1.190831704945     2.696582489245     1.007825032230
         H            1.403153773497    -0.051978806807     2.114561960413     1.007825032230
         O            0.000000000000     0.013891376748    -3.420570582978    15.994914619570
         H           -1.140561210555    -1.190831704945    -2.696582489245     1.007825032230
         H            1.403153773497     0.051978806807    -2.114561960413     1.007825032230

  Charge       = -1
  Multiplicity = 1
  Basis Set: AUG-CC-PVTZ
    Blend: AUG-CC-PVTZ
  Basis Set: (AUG-CC-PVTZ AUX)
    Blend: AUG-CC-PVTZ-JKFIT

    Orbital Energies [Eh]
    ---------------------

    Doubly Occupied:

       1A    -25.910798     2A    -20.386335     3A    -20.386334
       4A     -1.168636     5A     -1.159043     6A     -1.153585
       7A     -0.518153     8A     -0.514729     9A     -0.416061
      10A     -0.403944    11A     -0.330166    12A     -0.326918
      13A     -0.262598    14A     -0.261867    15A     -0.261541

  @DF-RHF Final Energy:  -251.62550089165072

   => Energetics <=

    Nuclear Repulsion Energy =             67.5805961855643602
    One-Electron Energy =                -491.4907754397383428
    Two-Electron Energy =                 172.2846783625232376
    Total Energy =                       -251.6255008916507165
 Dipole X            :        -42.3333351           39.0207204           -3.3126147
 Dipole Y            :          0.0000000            0.0000000            0.0000000
 Dipole Z            :          0.0000000            0.0000000            0.0000000
 Magnitude           :                                                    3.3126147
  Basis Set: (AUG-CC-PVTZ AUX)
    Blend: AUG-CC-PVTZ-RI
	 Reference Energy          =    -251.6255008916507165 [Eh]
	 Singles Energy            =      -0.0000000000000000 [Eh]
	 Same-Spin Energy          =      -0.2226886913156286 [Eh]
	 Opposite-Spin Energy      =      -0.6633864260014969 [Eh]
	 Correlation Energy        =      -0.8860751173171255 [Eh]
	 Total Energy              =    -252.5115760089678361 [Eh]

	 ================> DF-SCS-MP2 Energies <==================
	-----------------------------------------------------------
	 SCS Same-Spin Scale       =       0.3333333333333333 [-]
	 SCS Opposite-Spin Scale   =       1.2000000000000000 [-]
	 SCS Same-Spin Energy      =      -0.0742295637718762 [Eh]
	 SCS Opposite-Spin Energy  =      -0.7960637112017962 [Eh]
	 SCS Correlation Energy    =      -0.8702932749736724 [Eh]
	 SCS Total Energy          =    -252.4957941666243926 [Eh]
	-----------------------------------------------------------

*** Psi4 exiting successfully. Buy a developer a beer!
