                               Psi4 1.8.2 release

  ==> Input File <==

--------------------------------------------------------------------------
MEMORY 60 GB

molecule dimer {
0 1
Gh(F)      2.089330     0.000000     0.000000
O          0.000000    -0.007351     1.810088
H         -0.603559     0.630161     1.426970
H          0.742517    -0.027506     1.118978
Gh(O)      0.000000     0.007351    -1.810088
Gh(H)     -0.603559    -0.630161    -1.426970
Gh(H)      0.742517     0.027506    -1.118978

units ang
no_reorient
no_com
symmetry c1
}

set {
basis        aug-cc-pVTZ
scf_type     df
}

energy("mp2")
--------------------------------------------------------------------------

    Molecular point group: c1

    Geometry (in Angstrom), charge = 0, multiplicity = 1:

       Center              X                  Y                   Z               Mass
    ------------   -----------------  -----------------  -----------------  -----------------
      Gh(F)           2.089330000000     0.000000000000     0.000000000000    18.998403162730
         O            0.000000000000    -0.007351000000     1.810088000000    15.994914619570
         H           -0.603559000000     0.630161000000     1.426970000000     1.007825032230
         H            0.742517000000    -0.027506000000     1.118978000000     1.007825032230
      Gh(O)           0.000000000000     0.007351000000    -1.810088000000    15.994914619570
      Gh(H)          -0.603559000000    -0.630161000000    -1.426970000000     1.007825032230
      Gh(H)           0.742517000000     0.027506000000    -1.118978000000     1.007825032230

  Charge       = 0
  Multiplicity = 1
  Basis Set: AUG-CC-PVTZ
    Blend: AUG-CC-PVTZ
  Basis Set: (AUG-CC-PVTZ AUX)
    Blend: AUG-CC-PVTZ-JKFIT

    Orbital Energies [Eh]
    ---------------------

    Doubly Occupied:

       1A    -20.573316     2A     -1.341794     3A     -0.697223
       4A     -0.584543     5A     -0.508985

  @DF-RHF Final Energy:   -76.05563644354291

   => Energetics <=

    Nuclear Repulsion Energy =              8.9382600710002649
    One-Electron Energy =                -122.5760652893120692
    Two-Electron Energy =                  37.5821687747688884
    Total Energy =                        -76.0556364435429089
 Dipole X            :         -0.1815714            0.2625926            0.0810212
 Dipole Y            :         -0.6228535            1.0277219            0.4048684
 Dipole Z            :        -32.8703386           32.1757091           -0.6946295
 Magnitude           :                                                    0.8080798
  Basis Set: (AUG-CC-PVTZ AUX)
    Blend: AUG-CC-PVTZ-RI
	 Reference Energy          =     -76.0556364435429089 [Eh]
	 Singles Energy            =      -0.0000000000000000 [Eh]
	 Same-Spin Energy          =      -0.0689489446246045 [Eh]
	 Opposite-Spin Energy      =      -0.2175924941147410 [Eh]
	 Correlation Energy        =      -0.2865414387393455 [Eh]
	 Total Energy              =     -76.3421778822822574 [Eh]

	 ================> DF-SCS-MP2 Energies <==================
	-----------------------------------------------------------
	 SCS Same-Spin Scale       =       0.3333333333333333 [-]
	 SCS Opposite-Spin Scale   =       1.2000000000000000 [-]
	 SCS Same-Spin Energy      =      -0.0229829815415348 [Eh]
	 SCS Opposite-Spin Energy  =      -0.2611109929376892 [Eh]
	 SCS Correlation Energy    =      -0.2840939744792240 [Eh]
	 SCS Total Energy          =     -76.3397304180221283 [Eh]
	-----------------------------------------------------------

*** Psi4 exiting successfully. Buy a developer a beer!
