                               Psi4 1.8.2 release

  ==> Input File <==

--------------------------------------------------------------------------
MEMORY 60 GB

molecule dimer {
0 1
Gh(F)      1.566997     0.000000     0.000000
O          0.000000    -0.007351     1.810088
H         -0.603559     0.630161     1.426970
H          0.742517    -0.027506     1.118978
Gh(O)      0.000000     0.007351    -1.810088
Gh(H)     -0.603559    -0.630161    -1.426970
Gh(H)      0.742517     0.027506    -1.118978

units ang
no_reorient
no_com
symmetry c1
}

set {
basis        aug-cc-pVTZ
scf_type     df
}

energy("mp2")
--------------------------------------------------------------------------

    Molecular point group: c1

    Geometry (in Angstrom), charge = 0, multiplicity = 1:

       Center              X                  Y                   Z               Mass
    ------------   -----------------  -----------------  -----------------  -----------------
      Gh(F)           1.566997000000     0.000000000000     0.000000000000    18.998403162730
         O            0.000000000000    -0.007351000000     1.810088000000    15.994914619570
         H           -0.603559000000     0.630161000000     1.426970000000     1.007825032230
         H            0.742517000000    -0.027506000000     1.118978000000     1.007825032230
      Gh(O)           0.000000000000     0.007351000000    -1.810088000000    15.994914619570
      Gh(H)          -0.603559000000    -0.630161000000    -1.426970000000     1.007825032230
      Gh(H)           0.742517000000     0.027506000000    -1.118978000000     1.007825032230

  Charge       = 0
  Multiplicity = 1
  Basis Set: AUG-CC-PVTZ
    Blend: AUG-CC-PVTZ
  Basis Set: (AUG-CC-PVTZ AUX)
    Blend: AUG-CC-PVTZ-JKFIT

    Orbital Energies [Eh]
    ---------------------

    Doubly Occupied:

       1A    -20.573289     2A     -1.341778     3A     -0.697214
       4A     -0.584534     5A     -0.508974

  @DF-RHF Final Energy:   -76.05565897377251

   => Energetics <=

    Nuclear Repulsion Energy =              8.9382600710002649
    One-Electron Energy =                -122.5762583367628906
    Two-Electron Energy =                  37.5823392919901309
    Total Energy =                        -76.0556589737724948
 Dipole X            :         -0.1815344            0.2625926            0.0810582
 Dipole Y            :         -0.6228421            1.0277219            0.4048798
 Dipole Z            :        -32.8703148           32.1757091           -0.6946057
 Magnitude           :                                                    0.8080687
  Basis Set: (AUG-CC-PVTZ AUX)
    Blend: AUG-CC-PVTZ-RI
	 Reference Energy          =     -76.0556589737725091 [Eh]
	 Singles Energy            =      -0.0000000000000000 [Eh]
	 Same-Spin Energy          =      -0.0689633605804550 [Eh]
	 Opposite-Spin Energy      =      -0.2177698871322601 [Eh]
	 Correlation Energy        =      -0.2867332477127151 [Eh]
	 Total Energy              =     -76.3423922214852269 [Eh]

	 ================> DF-SCS-MP2 Energies <==================
	-----------------------------------------------------------
	 SCS Same-Spin Scale       =       0.3333333333333333 [-]
	 SCS Opposite-Spin Scale   =       1.2000000000000000 [-]
	 SCS Same-Spin Energy      =      -0.0229877868601517 [Eh]
	 SCS Opposite-Spin Energy  =      -0.2613238645587121 [Eh]
	 SCS Correlation Energy    =      -0.2843116514188638 [Eh]
	 SCS Total Energy          =     -76.3399706251913699 [Eh]
	-----------------------------------------------------------

*** Psi4 exiting successfully. Buy a developer a beer!
