                               Psi4 1.8.2 release

  ==> Input File <==

--------------------------------------------------------------------------
MEMORY 60 GB

molecule dimer {
-1 1
F          1.741108     0.000000     0.000000
Gh(O)      0.000000    -0.007351     1.810088
Gh(H)     -0.603559     0.630161     1.426970
Gh(H)      0.742517    -0.027506     1.118978
Gh(O)      0.000000     0.007351    -1.810088
Gh(H)     -0.603559    -0.630161    -1.426970
Gh(H)      0.742517     0.027506    -1.118978

units ang
no_reorient
no_com
symmetry c1
}

set {
basis        aug-cc-pVTZ
scf_type     df
}

energy("mp2")
--------------------------------------------------------------------------

    Molecular point group: c1

    Geometry (in Angstrom), charge = -1, multiplicity = 1:

       Center              X                  Y                   Z               Mass
    ------------   -----------------  -----------------  -----------------  -----------------
         F            1.741108000000     0.000000000000     0.000000000000    18.998403162730
      Gh(O)           0.000000000000    -0.007351000000     1.810088000000    15.994914619570
      Gh(H)          -0.603559000000     0.630161000000     1.426970000000     1.007825032230
      Gh(H)           0.742517000000    -0.027506000000     1.118978000000     1.007825032230
      Gh(O)           0.000000000000     0.007351000000    -1.810088000000    15.994914619570
      Gh(H)          -0.603559000000    -0.630161000000    -1.426970000000     1.007825032230
      Gh(H)           0.742517000000     0.027506000000    -1.118978000000     1.007825032230

  Charge       = -1
  Multiplicity = 1
  Basis Set: AUG-CC-PVTZ
    Blend: AUG-CC-PVTZ
  Basis Set: (AUG-CC-PVTZ AUX)
    Blend: AUG-CC-PVTZ-JKFIT

    Orbital Energies [Eh]
    ---------------------

    Doubly Occupied:

       1A    -25.833754     2A     -1.075976     3A     -0.180981
       4A     -0.180980     5A     -0.180900

  @DF-RHF Final Energy:   -99.45099444692576

   => Energetics <=

    Nuclear Repulsion Energy =              0.0000000000000000
    One-Electron Energy =                -143.9968079494398125
    Two-Electron Energy =                  44.5458135025140578
    Total Energy =                        -99.4509944469257618
 Dipole X            :        -32.9019230           29.6119555           -3.2899675
 Dipole Y            :         -0.0000000            0.0000000           -0.0000000
 Dipole Z            :         -0.0000000            0.0000000           -0.0000000
 Magnitude           :                                                    3.2899675
  Basis Set: (AUG-CC-PVTZ AUX)
    Blend: AUG-CC-PVTZ-RI
	 Reference Energy          =     -99.4509944469257618 [Eh]
	 Singles Energy            =      -0.0000000000000000 [Eh]
	 Same-Spin Energy          =      -0.0819002291086931 [Eh]
	 Opposite-Spin Energy      =      -0.2293659473405313 [Eh]
	 Correlation Energy        =      -0.3112661764492244 [Eh]
	 Total Energy              =     -99.7622606233749849 [Eh]

	 ================> DF-SCS-MP2 Energies <==================
	-----------------------------------------------------------
	 SCS Same-Spin Scale       =       0.3333333333333333 [-]
	 SCS Opposite-Spin Scale   =       1.2000000000000000 [-]
	 SCS Same-Spin Energy      =      -0.0273000763695644 [Eh]
	 SCS Opposite-Spin Energy  =      -0.2752391368086376 [Eh]
	 SCS Correlation Energy    =      -0.3025392131782020 [Eh]
	 SCS Total Energy          =     -99.7535336601039688 [Eh]
	-----------------------------------------------------------

*** Psi4 exiting successfully. Buy a developer a beer!
