                               Psi4 1.8.2 release

  ==> Input File <==

--------------------------------------------------------------------------
MEMORY 60 GB

molecule dimer {
-1 1
F          2.263440     0.000000     0.000000
O          0.000000    -0.007351     1.810088
H         -0.603559     0.630161     1.426970
H          0.742517    -0.027506     1.118978
O          0.000000     0.007351    -1.810088
H         -0.603559    -0.630161    -1.426970
H          0.742517     0.027506    -1.118978

units ang
no_reorient
no_com
symmetry c1
}

set {
basis        aug-cc-pVTZ
scf_type     df
}

energy("mp2")
--------------------------------------------------------------------------

    Molecular point group: c1

    Geometry (in Angstrom), charge = -1, multiplicity = 1:

       Center              X                  Y                   Z               Mass
    ------------   -----------------  -----------------  -----------------  -----------------
         F            2.263440000000     0.000000000000     0.000000000000    18.998403162730
         O            0.000000000000    -0.007351000000     1.810088000000    15.994914619570
         H           -0.603559000000     0.630161000000     1.426970000000     1.007825032230
         H            0.742517000000    -0.027506000000     1.118978000000     1.007825032230
         O            0.000000000000     0.007351000000    -1.810088000000    15.994914619570
         H           -0.603559000000    -0.630161000000    -1.426970000000     1.007825032230
         H            0.742517000000     0.027506000000    -1.118978000000     1.007825032230

  Charge       = -1
  Multiplicity = 1
  Basis Set: AUG-CC-PVTZ
    Blend: AUG-CC-PVTZ
  Basis Set: (AUG-CC-PVTZ AUX)
    Blend: AUG-CC-PVTZ-JKFIT

    Orbital Energies [Eh]
    ---------------------

    Doubly Occupied:

       1A    -25.910798     2A    -20.386335     3A    -20.386334
       4A     -1.168636     5A     -1.159043     6A     -1.153585
       7A     -0.518153     8A     -0.514729     9A     -0.416061
      10A     -0.403944    11A     -0.330166    12A     -0.326918
      13A     -0.262598    14A     -0.261867    15A     -0.261541

  @DF-RHF Final Energy:  -251.62550089171035

   => Energetics <=

    Nuclear Repulsion Energy =             67.5805961855643460
    One-Electron Energy =                -491.4907754397671056
    Two-Electron Energy =                 172.2846783624924285
    Total Energy =                       -251.6255008917103453
 Dipole X            :        -42.3333351           39.0207204           -3.3126147
 Dipole Y            :         -0.0000000            0.0000000           -0.0000000
 Dipole Z            :          0.0000000            0.0000000            0.0000000
 Magnitude           :                                                    3.3126147
  Basis Set: (AUG-CC-PVTZ AUX)
    Blend: AUG-CC-PVTZ-RI
	 Reference Energy          =    -251.6255008917103453 [Eh]
	 Singles Energy            =      -0.0000000000000000 [Eh]
	 Same-Spin Energy          =      -0.2226886913154272 [Eh]
	 Opposite-Spin Energy      =      -0.6633864260009886 [Eh]
	 Correlation Energy        =      -0.8860751173164159 [Eh]
	 Total Energy              =    -252.5115760090267543 [Eh]

	 ================> DF-SCS-MP2 Energies <==================
	-----------------------------------------------------------
	 SCS Same-Spin Scale       =       0.3333333333333333 [-]
	 SCS Opposite-Spin Scale   =       1.2000000000000000 [-]
	 SCS Same-Spin Energy      =      -0.0742295637718091 [Eh]
	 SCS Opposite-Spin Energy  =      -0.7960637112011864 [Eh]
	 SCS Correlation Energy    =      -0.8702932749729955 [Eh]
	 SCS Total Energy          =    -252.4957941666833392 [Eh]
	-----------------------------------------------------------

*** Psi4 exiting successfully. Buy a developer a beer!
