                               Psi4 1.9 release

  ==> Input File <==

--------------------------------------------------------------------------
MEMORY 60 GB

molecule dimer {
-1 1
F      1.915219     0.000000     0.000000
--
0 1
O      0.000000    -0.007351     1.810088
H     -0.603559     0.630161     1.426970
H      0.742517    -0.027506     1.118978
O      0.000000     0.007351    -1.810088
H     -0.603559    -0.630161    -1.426970
H      0.742517     0.027506    -1.118978

units ang
no_reorient
no_com
symmetry c1
}

set {
basis        aug-cc-pVTZ
scf_type     df
}

energy("mp2", bsse_type="cp")
--------------------------------------------------------------------------

                               Psi4 1.9 release
    Molecular point group: c1
  Charge       = 0
  Multiplicity = 1
  Basis Set: AUG-CC-PVTZ
    Blend: AUG-CC-PVTZ
  Basis Set: (AUG-CC-PVTZ AUX)
    Blend: AUG-CC-PVTZ-JKFIT
  @DF-RHF Final Energy:  -152.10871693169025
    Total Energy =                       -152.1087169316902532
 Dipole X            :         -0.4046698            0.5251851            0.1205153
 Dipole Y            :          0.0000000            0.0000000            0.0000000
 Dipole Z            :         -0.0000000            0.0000000           -0.0000000
 Magnitude           :                                                    0.1205153
  Basis Set: (AUG-CC-PVTZ AUX)
    Blend: AUG-CC-PVTZ-RI
	 Reference Energy          =    -152.1087169316902532 [Eh]
	 Singles Energy            =      -0.0000000000000000 [Eh]
	 Same-Spin Energy          =      -0.1384148797894744 [Eh]
	 Opposite-Spin Energy      =      -0.4359384019960902 [Eh]
	 Correlation Energy        =      -0.5743532817855646 [Eh]
	 Total Energy              =    -152.6830702134758155 [Eh]
	 SCS Total Energy          =    -152.6779813073487162 [Eh]
                               Psi4 1.9 release
    Molecular point group: c1
  Multiplicity = 1
  Basis Set: AUG-CC-PVTZ
    Blend: AUG-CC-PVTZ
  Basis Set: (AUG-CC-PVTZ AUX)
    Blend: AUG-CC-PVTZ-JKFIT
  @DF-RHF Final Energy:   -99.45096852814729
    Total Energy =                        -99.4509685281472855
  Basis Set: (AUG-CC-PVTZ AUX)
	 Singles Energy            =      -0.0000000000000000 [Eh]
	 Same-Spin Energy          =      -0.0818638081130955 [Eh]
	 Opposite-Spin Energy      =      -0.2288524042940315 [Eh]
	 Correlation Energy        =      -0.3107162124071270 [Eh]
	 Total Energy              =     -99.7616847405544149 [Eh]
	 SCS Total Energy          =     -99.7528793493378174 [Eh]
                               Psi4 1.9 release
    Molecular point group: c1

    Geometry (in Bohr), charge = -1, multiplicity = 1:

       Center              X                  Y                   Z               Mass
    ------------   -----------------  -----------------  -----------------  -----------------
         F            3.619239380273     0.000000000000     0.000000000000    18.998403162730
         O            0.000000000000    -0.013891376748     3.420570582978    15.994914619570
         H           -1.140561210555     1.190831704945     2.696582489245     1.007825032230
         H            1.403153773497    -0.051978806807     2.114561960413     1.007825032230
         O            0.000000000000     0.013891376748    -3.420570582978    15.994914619570
         H           -1.140561210555    -1.190831704945    -2.696582489245     1.007825032230
         H            1.403153773497     0.051978806807    -2.114561960413     1.007825032230

  Charge       = -1
  Multiplicity = 1
  Basis Set: AUG-CC-PVTZ
    Blend: AUG-CC-PVTZ
  Basis Set: (AUG-CC-PVTZ AUX)
    Blend: AUG-CC-PVTZ-JKFIT

    Orbital Energies [Eh]
    ---------------------

    Doubly Occupied:

       1A    -25.933027     2A    -20.361917     3A    -20.361916
       4A     -1.197616     5A     -1.138468     6A     -1.136255
       7A     -0.501514     8A     -0.500514     9A     -0.402162
      10A     -0.391280    11A     -0.309361    12A     -0.309034
      13A     -0.287393    14A     -0.281612    15A     -0.280638

  @DF-RHF Final Energy:  -251.63669082831743

   => Energetics <=

    Nuclear Repulsion Energy =             71.3325112128171668
    One-Electron Energy =                -499.1529837110858807
    Two-Electron Energy =                 176.1837816699512871
    Total Energy =                       -251.6366908283174268
 Dipole X            :        -35.6082625           33.0983395           -2.5099229
 Dipole Y            :          0.0000000            0.0000000            0.0000000
 Dipole Z            :         -0.0000000            0.0000000           -0.0000000
 Magnitude           :                                                    2.5099229
  Basis Set: (AUG-CC-PVTZ AUX)
    Blend: AUG-CC-PVTZ-RI
	 Reference Energy          =    -251.6366908283174268 [Eh]
	 Singles Energy            =      -0.0000000000000000 [Eh]
	 Same-Spin Energy          =      -0.2238788601672084 [Eh]
	 Opposite-Spin Energy      =      -0.6638095909045050 [Eh]
	 Correlation Energy        =      -0.8876884510717133 [Eh]
	 Total Energy              =    -252.5243792793891373 [Eh]

	 ================> DF-SCS-MP2 Energies <==================
	-----------------------------------------------------------
	 SCS Same-Spin Scale       =       0.3333333333333333 [-]
	 SCS Opposite-Spin Scale   =       1.2000000000000000 [-]
	 SCS Same-Spin Energy      =      -0.0746262867224028 [Eh]
	 SCS Opposite-Spin Energy  =      -0.7965715090854060 [Eh]
	 SCS Correlation Energy    =      -0.8711977958078088 [Eh]
	 SCS Total Energy          =    -252.5078886241252292 [Eh]
	-----------------------------------------------------------

*** Psi4 exiting successfully. Buy a developer a beer!
