                               Psi4 1.8.2 release

  ==> Input File <==

--------------------------------------------------------------------------
MEMORY 60 GB

molecule dimer {
-1 1
F          1.654053     0.000000     0.000000
O          0.000000    -0.007351     1.810088
H         -0.603559     0.630161     1.426970
H          0.742517    -0.027506     1.118978
O          0.000000     0.007351    -1.810088
H         -0.603559    -0.630161    -1.426970
H          0.742517     0.027506    -1.118978

units ang
no_reorient
no_com
symmetry c1
}

set {
basis        aug-cc-pVTZ
scf_type     df
}

energy("mp2")
--------------------------------------------------------------------------

    Molecular point group: c1

    Geometry (in Angstrom), charge = -1, multiplicity = 1:

       Center              X                  Y                   Z               Mass
    ------------   -----------------  -----------------  -----------------  -----------------
         F            1.654053000000     0.000000000000     0.000000000000    18.998403162730
         O            0.000000000000    -0.007351000000     1.810088000000    15.994914619570
         H           -0.603559000000     0.630161000000     1.426970000000     1.007825032230
         H            0.742517000000    -0.027506000000     1.118978000000     1.007825032230
         O            0.000000000000     0.007351000000    -1.810088000000    15.994914619570
         H           -0.603559000000    -0.630161000000    -1.426970000000     1.007825032230
         H            0.742517000000     0.027506000000    -1.118978000000     1.007825032230

  Charge       = -1
  Multiplicity = 1
  Basis Set: AUG-CC-PVTZ
    Blend: AUG-CC-PVTZ
  Basis Set: (AUG-CC-PVTZ AUX)
    Blend: AUG-CC-PVTZ-JKFIT

    Orbital Energies [Eh]
    ---------------------

    Doubly Occupied:

       1A    -25.951517     2A    -20.341671     3A    -20.341670
       4A     -1.231412     5A     -1.123040     6A     -1.118437
       7A     -0.502553     8A     -0.487881     9A     -0.396503
      10A     -0.390081    11A     -0.318772    12A     -0.298045
      13A     -0.290134    14A     -0.284956    15A     -0.282305

  @DF-RHF Final Energy:  -251.63702507227160

   => Energetics <=

    Nuclear Repulsion Energy =             74.4724456735097817
    One-Electron Energy =                -505.5009802190662072
    Two-Electron Energy =                 179.3915094732848559
    Total Energy =                       -251.6370250722715980
 Dipole X            :        -30.5831177           28.6565496           -1.9265681
 Dipole Y            :         -0.0000000            0.0000000           -0.0000000
 Dipole Z            :         -0.0000000            0.0000000           -0.0000000
 Magnitude           :                                                    1.9265681
  Basis Set: (AUG-CC-PVTZ AUX)
    Blend: AUG-CC-PVTZ-RI
	 Reference Energy          =    -251.6370250722715980 [Eh]
	 Singles Energy            =      -0.0000000000000000 [Eh]
	 Same-Spin Energy          =      -0.2249056329605846 [Eh]
	 Opposite-Spin Energy      =      -0.6640240870515277 [Eh]
	 Correlation Energy        =      -0.8889297200121123 [Eh]
	 Total Energy              =    -252.5259547922836987 [Eh]

	 ================> DF-SCS-MP2 Energies <==================
	-----------------------------------------------------------
	 SCS Same-Spin Scale       =       0.3333333333333333 [-]
	 SCS Opposite-Spin Scale   =       1.2000000000000000 [-]
	 SCS Same-Spin Energy      =      -0.0749685443201949 [Eh]
	 SCS Opposite-Spin Energy  =      -0.7968289044618332 [Eh]
	 SCS Correlation Energy    =      -0.8717974487820280 [Eh]
	 SCS Total Energy          =    -252.5088225210536166 [Eh]
	-----------------------------------------------------------

*** Psi4 exiting successfully. Buy a developer a beer!
