                               Psi4 1.8.2 release

  ==> Input File <==

--------------------------------------------------------------------------
MEMORY 60 GB

molecule dimer {
-1 1
F          2.089330     0.000000     0.000000
O          0.000000    -0.007351     1.810088
H         -0.603559     0.630161     1.426970
H          0.742517    -0.027506     1.118978
O          0.000000     0.007351    -1.810088
H         -0.603559    -0.630161    -1.426970
H          0.742517     0.027506    -1.118978

units ang
no_reorient
no_com
symmetry c1
}

set {
basis        aug-cc-pVTZ
scf_type     df
}

energy("mp2")
--------------------------------------------------------------------------

    Molecular point group: c1

    Geometry (in Angstrom), charge = -1, multiplicity = 1:

       Center              X                  Y                   Z               Mass
    ------------   -----------------  -----------------  -----------------  -----------------
         F            2.089330000000     0.000000000000     0.000000000000    18.998403162730
         O            0.000000000000    -0.007351000000     1.810088000000    15.994914619570
         H           -0.603559000000     0.630161000000     1.426970000000     1.007825032230
         H            0.742517000000    -0.027506000000     1.118978000000     1.007825032230
         O            0.000000000000     0.007351000000    -1.810088000000    15.994914619570
         H           -0.603559000000    -0.630161000000    -1.426970000000     1.007825032230
         H            0.742517000000     0.027506000000    -1.118978000000     1.007825032230

  Charge       = -1
  Multiplicity = 1
  Basis Set: AUG-CC-PVTZ
    Blend: AUG-CC-PVTZ
  Basis Set: (AUG-CC-PVTZ AUX)
    Blend: AUG-CC-PVTZ-JKFIT

    Orbital Energies [Eh]
    ---------------------

    Doubly Occupied:

       1A    -25.921401     2A    -20.374572     3A    -20.374571
       4A     -1.179870     5A     -1.148906     6A     -1.146944
       7A     -0.509260     8A     -0.507117     9A     -0.408538
      10A     -0.396625    11A     -0.319903    12A     -0.317306
      13A     -0.274779    14A     -0.272629    15A     -0.271592

  @DF-RHF Final Energy:  -251.63190756844088

   => Energetics <=

    Nuclear Repulsion Energy =             69.3910522496732085
    One-Electron Energy =                -495.1978950818496514
    Two-Electron Energy =                 174.1749352637355912
    Total Energy =                       -251.6319075684408801
 Dipole X            :        -38.9699130           36.0595385           -2.9103745
 Dipole Y            :         -0.0000000            0.0000000           -0.0000000
 Dipole Z            :          0.0000000            0.0000000            0.0000000
 Magnitude           :                                                    2.9103745
  Basis Set: (AUG-CC-PVTZ AUX)
    Blend: AUG-CC-PVTZ-RI
	 Reference Energy          =    -251.6319075684408801 [Eh]
	 Singles Energy            =      -0.0000000000000000 [Eh]
	 Same-Spin Energy          =      -0.2232532294241561 [Eh]
	 Opposite-Spin Energy      =      -0.6636423031793248 [Eh]
	 Correlation Energy        =      -0.8868955326034810 [Eh]
	 Total Energy              =    -252.5188031010443694 [Eh]

	 ================> DF-SCS-MP2 Energies <==================
	-----------------------------------------------------------
	 SCS Same-Spin Scale       =       0.3333333333333333 [-]
	 SCS Opposite-Spin Scale   =       1.2000000000000000 [-]
	 SCS Same-Spin Energy      =      -0.0744177431413854 [Eh]
	 SCS Opposite-Spin Energy  =      -0.7963707638151898 [Eh]
	 SCS Correlation Energy    =      -0.8707885069565752 [Eh]
	 SCS Total Energy          =    -252.5026960753974663 [Eh]
	-----------------------------------------------------------

*** Psi4 exiting successfully. Buy a developer a beer!
