                               Psi4 1.8.2 release

  ==> Input File <==

--------------------------------------------------------------------------
MEMORY 60 GB

molecule dimer {
-1 1
F          1.566997     0.000000     0.000000
O          0.000000    -0.007351     1.810088
H         -0.603559     0.630161     1.426970
H          0.742517    -0.027506     1.118978
O          0.000000     0.007351    -1.810088
H         -0.603559    -0.630161    -1.426970
H          0.742517     0.027506    -1.118978

units ang
no_reorient
no_com
symmetry c1
}

set {
basis        aug-cc-pVTZ
scf_type     df
}

energy("mp2")
--------------------------------------------------------------------------

    Molecular point group: c1

    Geometry (in Angstrom), charge = -1, multiplicity = 1:

       Center              X                  Y                   Z               Mass
    ------------   -----------------  -----------------  -----------------  -----------------
         F            1.566997000000     0.000000000000     0.000000000000    18.998403162730
         O            0.000000000000    -0.007351000000     1.810088000000    15.994914619570
         H           -0.603559000000     0.630161000000     1.426970000000     1.007825032230
         H            0.742517000000    -0.027506000000     1.118978000000     1.007825032230
         O            0.000000000000     0.007351000000    -1.810088000000    15.994914619570
         H           -0.603559000000    -0.630161000000    -1.426970000000     1.007825032230
         H            0.742517000000     0.027506000000    -1.118978000000     1.007825032230

  Charge       = -1
  Multiplicity = 1
  Basis Set: AUG-CC-PVTZ
    Blend: AUG-CC-PVTZ
  Basis Set: (AUG-CC-PVTZ AUX)
    Blend: AUG-CC-PVTZ-JKFIT

    Orbital Energies [Eh]
    ---------------------

    Doubly Occupied:

       1A    -25.957561     2A    -20.334779     3A    -20.334778
       4A     -1.244235     5A     -1.118238     6A     -1.112310
       7A     -0.507250     8A     -0.483667     9A     -0.395920
      10A     -0.391252    11A     -0.326767    12A     -0.297943
      13A     -0.287233    14A     -0.281146    15A     -0.278286

  @DF-RHF Final Energy:  -251.63418473715001

   => Energetics <=

    Nuclear Repulsion Energy =             75.5690884976383472
    One-Electron Energy =                -507.7038120680032307
    Two-Electron Energy =                 180.5005388332148755
    Total Energy =                       -251.6341847371500080
 Dipole X            :        -28.9174464           27.1759417           -1.7415047
 Dipole Y            :         -0.0000000            0.0000000           -0.0000000
 Dipole Z            :          0.0000000            0.0000000            0.0000000
 Magnitude           :                                                    1.7415047
  Basis Set: (AUG-CC-PVTZ AUX)
    Blend: AUG-CC-PVTZ-RI
	 Reference Energy          =    -251.6341847371500080 [Eh]
	 Singles Energy            =      -0.0000000000000000 [Eh]
	 Same-Spin Energy          =      -0.2252652938595497 [Eh]
	 Opposite-Spin Energy      =      -0.6641092877210110 [Eh]
	 Correlation Energy        =      -0.8893745815805607 [Eh]
	 Total Energy              =    -252.5235593187305767 [Eh]

	 ================> DF-SCS-MP2 Energies <==================
	-----------------------------------------------------------
	 SCS Same-Spin Scale       =       0.3333333333333333 [-]
	 SCS Opposite-Spin Scale   =       1.2000000000000000 [-]
	 SCS Same-Spin Energy      =      -0.0750884312865166 [Eh]
	 SCS Opposite-Spin Energy  =      -0.7969311452652131 [Eh]
	 SCS Correlation Energy    =      -0.8720195765517297 [Eh]
	 SCS Total Energy          =    -252.5062043137017440 [Eh]
	-----------------------------------------------------------

*** Psi4 exiting successfully. Buy a developer a beer!
