                               Psi4 1.8.2 release

  ==> Input File <==

--------------------------------------------------------------------------
MEMORY 60 GB

molecule dimer {
-1 1
F      2.089330     0.000000     0.000000
--
0 1
O      0.000000    -0.007351     1.810088
H     -0.603559     0.630161     1.426970
H      0.742517    -0.027506     1.118978
--
0 1
O      0.000000     0.007351    -1.810088
H     -0.603559    -0.630161    -1.426970
H      0.742517     0.027506    -1.118978

units ang
no_reorient
no_com
symmetry c1
}

set {
basis        aug-cc-pVTZ
scf_type     df
}

energy("mp2", bsse_type="cp")
--------------------------------------------------------------------------

                               Psi4 1.8.2 release
    Molecular point group: c1
  Charge       = -1
  Multiplicity = 1
  Basis Set: AUG-CC-PVTZ
    Blend: AUG-CC-PVTZ
  Basis Set: (AUG-CC-PVTZ AUX)
    Blend: AUG-CC-PVTZ-JKFIT
  @DF-RHF Final Energy:   -99.45094055909591
    Total Energy =                        -99.4509405590959119
 Dipole X            :        -39.4827407           35.5343534           -3.9483874
 Dipole Y            :         -0.0000000            0.0000000           -0.0000000
 Dipole Z            :          0.0000000            0.0000000            0.0000000
 Magnitude           :                                                    3.9483874
  Basis Set: (AUG-CC-PVTZ AUX)
    Blend: AUG-CC-PVTZ-RI
	 Reference Energy          =     -99.4509405590959119 [Eh]
	 Singles Energy            =      -0.0000000000000000 [Eh]
	 Same-Spin Energy          =      -0.0818316490469857 [Eh]
	 Opposite-Spin Energy      =      -0.2284133293732917 [Eh]
	 Correlation Energy        =      -0.3102449784202774 [Eh]
	 Total Energy              =     -99.7611855375161838 [Eh]
	 SCS Total Energy          =     -99.7523137706928509 [Eh]
                               Psi4 1.8.2 release
    Molecular point group: c1
  Basis Set: AUG-CC-PVTZ
    Blend: AUG-CC-PVTZ
  Basis Set: (AUG-CC-PVTZ AUX)
    Blend: AUG-CC-PVTZ-JKFIT
  @DF-RHF Final Energy:   -76.05563644353565
    Total Energy =                        -76.0556364435356613
  Basis Set: (AUG-CC-PVTZ AUX)
                               Psi4 1.8.2 release
  @DF-RHF Final Energy:  -152.10870073636798
    Total Energy =                       -152.1087007363680073
                               Psi4 1.8.2 release
  @DF-RHF Final Energy:  -175.54474519258503
    Total Energy =                       -175.5447451925850260
                               Psi4 1.8.2 release
  @DF-RHF Final Energy:  -175.54474519251633
    Total Energy =                       -175.5447451925163307
                               Psi4 1.8.2 release
  Multiplicity = 1
  @DF-RHF Final Energy:   -76.05563644357647
    Total Energy =                        -76.0556364435764891
	 Singles Energy            =      -0.0000000000000000 [Eh]
	 Same-Spin Energy          =      -0.0689489446245722 [Eh]
	 Opposite-Spin Energy      =      -0.2175924941147151 [Eh]
	 Correlation Energy        =      -0.2865414387392874 [Eh]
	 Total Energy              =     -76.3421778823157666 [Eh]
	 SCS Total Energy          =     -76.3397304180556517 [Eh]
                               Psi4 1.8.2 release
    Molecular point group: c1

    Geometry (in Bohr), charge = -1, multiplicity = 1:

       Center              X                  Y                   Z               Mass
    ------------   -----------------  -----------------  -----------------  -----------------
         F            3.948261485703     0.000000000000     0.000000000000    18.998403162730
         O            0.000000000000    -0.013891376748     3.420570582978    15.994914619570
         H           -1.140561210555     1.190831704945     2.696582489245     1.007825032230
         H            1.403153773497    -0.051978806807     2.114561960413     1.007825032230
         O            0.000000000000     0.013891376748    -3.420570582978    15.994914619570
         H           -1.140561210555    -1.190831704945    -2.696582489245     1.007825032230
         H            1.403153773497     0.051978806807    -2.114561960413     1.007825032230

  Charge       = -1
  Multiplicity = 1
  Basis Set: AUG-CC-PVTZ
    Blend: AUG-CC-PVTZ
  Basis Set: (AUG-CC-PVTZ AUX)
    Blend: AUG-CC-PVTZ-JKFIT

    Orbital Energies [Eh]
    ---------------------

    Doubly Occupied:

       1A    -25.921401     2A    -20.374572     3A    -20.374571
       4A     -1.179870     5A     -1.148906     6A     -1.146944
       7A     -0.509260     8A     -0.507117     9A     -0.408538
      10A     -0.396625    11A     -0.319903    12A     -0.317306
      13A     -0.274779    14A     -0.272629    15A     -0.271592

  @DF-RHF Final Energy:  -251.63190756851088

   => Energetics <=

    Nuclear Repulsion Energy =             69.3910522496732085
    One-Electron Energy =                -495.1978950818797784
    Two-Electron Energy =                 174.1749352636957155
    Total Energy =                       -251.6319075685108828
 Dipole X            :        -38.9699130           36.0595385           -2.9103745
 Dipole Y            :         -0.0000000            0.0000000           -0.0000000
 Dipole Z            :          0.0000000            0.0000000            0.0000000
 Magnitude           :                                                    2.9103745
  Basis Set: (AUG-CC-PVTZ AUX)
    Blend: AUG-CC-PVTZ-RI
	 Reference Energy          =    -251.6319075685108828 [Eh]
	 Singles Energy            =      -0.0000000000000000 [Eh]
	 Same-Spin Energy          =      -0.2232532294239938 [Eh]
	 Opposite-Spin Energy      =      -0.6636423031791561 [Eh]
	 Correlation Energy        =      -0.8868955326031499 [Eh]
	 Total Energy              =    -252.5188031011140311 [Eh]

	 ================> DF-SCS-MP2 Energies <==================
	-----------------------------------------------------------
	 SCS Same-Spin Scale       =       0.3333333333333333 [-]
	 SCS Opposite-Spin Scale   =       1.2000000000000000 [-]
	 SCS Same-Spin Energy      =      -0.0744177431413313 [Eh]
	 SCS Opposite-Spin Energy  =      -0.7963707638149873 [Eh]
	 SCS Correlation Energy    =      -0.8707885069563186 [Eh]
	 SCS Total Energy          =    -252.5026960754672132 [Eh]
	-----------------------------------------------------------

*** Psi4 exiting successfully. Buy a developer a beer!
