                               Psi4 1.8.2 release

  ==> Input File <==

--------------------------------------------------------------------------
MEMORY 60 GB

molecule dimer {
0 1
Gh(F)      2.611662     0.000000     0.000000
O          0.000000    -0.007351     1.810088
H         -0.603559     0.630161     1.426970
H          0.742517    -0.027506     1.118978
Gh(O)      0.000000     0.007351    -1.810088
Gh(H)     -0.603559    -0.630161    -1.426970
Gh(H)      0.742517     0.027506    -1.118978

units ang
no_reorient
no_com
symmetry c1
}

set {
basis        aug-cc-pVTZ
scf_type     df
}

energy("mp2")
--------------------------------------------------------------------------

    Molecular point group: c1

    Geometry (in Angstrom), charge = 0, multiplicity = 1:

       Center              X                  Y                   Z               Mass
    ------------   -----------------  -----------------  -----------------  -----------------
      Gh(F)           2.611662000000     0.000000000000     0.000000000000    18.998403162730
         O            0.000000000000    -0.007351000000     1.810088000000    15.994914619570
         H           -0.603559000000     0.630161000000     1.426970000000     1.007825032230
         H            0.742517000000    -0.027506000000     1.118978000000     1.007825032230
      Gh(O)           0.000000000000     0.007351000000    -1.810088000000    15.994914619570
      Gh(H)          -0.603559000000    -0.630161000000    -1.426970000000     1.007825032230
      Gh(H)           0.742517000000     0.027506000000    -1.118978000000     1.007825032230

  Charge       = 0
  Multiplicity = 1
  Basis Set: AUG-CC-PVTZ
    Blend: AUG-CC-PVTZ
  Basis Set: (AUG-CC-PVTZ AUX)
    Blend: AUG-CC-PVTZ-JKFIT

    Orbital Energies [Eh]
    ---------------------

    Doubly Occupied:

       1A    -20.573329     2A     -1.341803     3A     -0.697229
       4A     -0.584550     5A     -0.508991

  @DF-RHF Final Energy:   -76.05562660280653

   => Energetics <=

    Nuclear Repulsion Energy =              8.9382600710002649
    One-Electron Energy =                -122.5759648012276983
    Two-Electron Energy =                  37.5820781274208997
    Total Energy =                        -76.0556266028065266
 Dipole X            :         -0.1816306            0.2625926            0.0809619
 Dipole Y            :         -0.6228613            1.0277219            0.4048606
 Dipole Z            :        -32.8703383           32.1757091           -0.6946292
 Magnitude           :                                                    0.8080697
  Basis Set: (AUG-CC-PVTZ AUX)
    Blend: AUG-CC-PVTZ-RI
	 Reference Energy          =     -76.0556266028065266 [Eh]
	 Singles Energy            =      -0.0000000000000000 [Eh]
	 Same-Spin Energy          =      -0.0689372808917496 [Eh]
	 Opposite-Spin Energy      =      -0.2174049911406450 [Eh]
	 Correlation Energy        =      -0.2863422720323946 [Eh]
	 Total Energy              =     -76.3419688748389262 [Eh]

	 ================> DF-SCS-MP2 Energies <==================
	-----------------------------------------------------------
	 SCS Same-Spin Scale       =       0.3333333333333333 [-]
	 SCS Opposite-Spin Scale   =       1.2000000000000000 [-]
	 SCS Same-Spin Energy      =      -0.0229790936305832 [Eh]
	 SCS Opposite-Spin Energy  =      -0.2608859893687741 [Eh]
	 SCS Correlation Energy    =      -0.2838650829993573 [Eh]
	 SCS Total Energy          =     -76.3394916858058821 [Eh]
	-----------------------------------------------------------

*** Psi4 exiting successfully. Buy a developer a beer!
