                               Psi4 1.8.2 release

  ==> Input File <==

--------------------------------------------------------------------------
MEMORY 60 GB

molecule dimer {
-1 1
F          1.741108     0.000000     0.000000
O          0.000000    -0.007351     1.810088
H         -0.603559     0.630161     1.426970
H          0.742517    -0.027506     1.118978
O          0.000000     0.007351    -1.810088
H         -0.603559    -0.630161    -1.426970
H          0.742517     0.027506    -1.118978

units ang
no_reorient
no_com
symmetry c1
}

set {
basis        aug-cc-pVTZ
scf_type     df
}

energy("mp2")
--------------------------------------------------------------------------

    Molecular point group: c1

    Geometry (in Angstrom), charge = -1, multiplicity = 1:

       Center              X                  Y                   Z               Mass
    ------------   -----------------  -----------------  -----------------  -----------------
         F            1.741108000000     0.000000000000     0.000000000000    18.998403162730
         O            0.000000000000    -0.007351000000     1.810088000000    15.994914619570
         H           -0.603559000000     0.630161000000     1.426970000000     1.007825032230
         H            0.742517000000    -0.027506000000     1.118978000000     1.007825032230
         O            0.000000000000     0.007351000000    -1.810088000000    15.994914619570
         H           -0.603559000000    -0.630161000000    -1.426970000000     1.007825032230
         H            0.742517000000     0.027506000000    -1.118978000000     1.007825032230

  Charge       = -1
  Multiplicity = 1
  Basis Set: AUG-CC-PVTZ
    Blend: AUG-CC-PVTZ
  Basis Set: (AUG-CC-PVTZ AUX)
    Blend: AUG-CC-PVTZ-JKFIT

    Orbital Energies [Eh]
    ---------------------

    Doubly Occupied:

       1A    -25.945326     2A    -20.348533     3A    -20.348532
       4A     -1.219288     5A     -1.128068     6A     -1.124507
       7A     -0.500347     8A     -0.492047     9A     -0.397757
      10A     -0.389514    11A     -0.311811    12A     -0.300160
      13A     -0.291876    14A     -0.285954    15A     -0.284618

  @DF-RHF Final Energy:  -251.63818545217430

   => Energetics <=

    Nuclear Repulsion Energy =             73.3983113729665604
    One-Electron Energy =                -503.3363120891192466
    Two-Electron Energy =                 178.2998152639784166
    Total Energy =                       -251.6381854521742980
 Dipole X            :        -32.2543917           30.1371406           -2.1172511
 Dipole Y            :         -0.0000000            0.0000000           -0.0000000
 Dipole Z            :         -0.0000000            0.0000000           -0.0000000
 Magnitude           :                                                    2.1172511
  Basis Set: (AUG-CC-PVTZ AUX)
    Blend: AUG-CC-PVTZ-RI
	 Reference Energy          =    -251.6381854521742980 [Eh]
	 Singles Energy            =      -0.0000000000000000 [Eh]
	 Same-Spin Energy          =      -0.2245535387597567 [Eh]
	 Opposite-Spin Energy      =      -0.6639459998105606 [Eh]
	 Correlation Energy        =      -0.8884995385703173 [Eh]
	 Total Energy              =    -252.5266849907446272 [Eh]

	 ================> DF-SCS-MP2 Energies <==================
	-----------------------------------------------------------
	 SCS Same-Spin Scale       =       0.3333333333333333 [-]
	 SCS Opposite-Spin Scale   =       1.2000000000000000 [-]
	 SCS Same-Spin Energy      =      -0.0748511795865856 [Eh]
	 SCS Opposite-Spin Energy  =      -0.7967351997726727 [Eh]
	 SCS Correlation Energy    =      -0.8715863793592583 [Eh]
	 SCS Total Energy          =    -252.5097718315335555 [Eh]
	-----------------------------------------------------------

*** Psi4 exiting successfully. Buy a developer a beer!
