                               Psi4 1.9 release

  ==> Input File <==

--------------------------------------------------------------------------
MEMORY 60 GB

molecule dimer {
-1 1
F      1.741108     0.000000     0.000000
--
0 1
O      0.000000    -0.007351     1.810088
H     -0.603559     0.630161     1.426970
H      0.742517    -0.027506     1.118978
O      0.000000     0.007351    -1.810088
H     -0.603559    -0.630161    -1.426970
H      0.742517     0.027506    -1.118978

units ang
no_reorient
no_com
symmetry c1
}

set {
basis        aug-cc-pVTZ
scf_type     df
}

energy("mp2", bsse_type="cp")
--------------------------------------------------------------------------

                               Psi4 1.9 release
    Molecular point group: c1
  Charge       = 0
  Multiplicity = 1
  Basis Set: AUG-CC-PVTZ
    Blend: AUG-CC-PVTZ
  Basis Set: (AUG-CC-PVTZ AUX)
    Blend: AUG-CC-PVTZ-JKFIT
  @DF-RHF Final Energy:  -152.10873291790091
    Total Energy =                       -152.1087329179009089
 Dipole X            :         -0.4046493            0.5251851            0.1205358
 Dipole Y            :          0.0000000            0.0000000            0.0000000
 Dipole Z            :          0.0000000            0.0000000            0.0000000
 Magnitude           :                                                    0.1205358
  Basis Set: (AUG-CC-PVTZ AUX)
    Blend: AUG-CC-PVTZ-RI
	 Reference Energy          =    -152.1087329179009089 [Eh]
	 Singles Energy            =      -0.0000000000000000 [Eh]
	 Same-Spin Energy          =      -0.1384248358997657 [Eh]
	 Opposite-Spin Energy      =      -0.4360370721818103 [Eh]
	 Correlation Energy        =      -0.5744619080815760 [Eh]
	 Total Energy              =    -152.6831948259824969 [Eh]
	 SCS Total Energy          =    -152.6781190164856810 [Eh]
                               Psi4 1.9 release
    Molecular point group: c1
  Multiplicity = 1
  Basis Set: AUG-CC-PVTZ
    Blend: AUG-CC-PVTZ
  Basis Set: (AUG-CC-PVTZ AUX)
    Blend: AUG-CC-PVTZ-JKFIT
  @DF-RHF Final Energy:   -99.45099444691787
    Total Energy =                        -99.4509944469178748
  Basis Set: (AUG-CC-PVTZ AUX)
	 Singles Energy            =      -0.0000000000000000 [Eh]
	 Same-Spin Energy          =      -0.0819002291087082 [Eh]
	 Opposite-Spin Energy      =      -0.2293659473405230 [Eh]
	 Correlation Energy        =      -0.3112661764492312 [Eh]
	 Total Energy              =     -99.7622606233671121 [Eh]
	 SCS Total Energy          =     -99.7535336600960676 [Eh]
                               Psi4 1.9 release
    Molecular point group: c1

    Geometry (in Bohr), charge = -1, multiplicity = 1:

       Center              X                  Y                   Z               Mass
    ------------   -----------------  -----------------  -----------------  -----------------
         F            3.290217274844     0.000000000000     0.000000000000    18.998403162730
         O            0.000000000000    -0.013891376748     3.420570582978    15.994914619570
         H           -1.140561210555     1.190831704945     2.696582489245     1.007825032230
         H            1.403153773497    -0.051978806807     2.114561960413     1.007825032230
         O            0.000000000000     0.013891376748    -3.420570582978    15.994914619570
         H           -1.140561210555    -1.190831704945    -2.696582489245     1.007825032230
         H            1.403153773497     0.051978806807    -2.114561960413     1.007825032230

  Charge       = -1
  Multiplicity = 1
  Basis Set: AUG-CC-PVTZ
    Blend: AUG-CC-PVTZ
  Basis Set: (AUG-CC-PVTZ AUX)
    Blend: AUG-CC-PVTZ-JKFIT

    Orbital Energies [Eh]
    ---------------------

    Doubly Occupied:

       1A    -25.945326     2A    -20.348533     3A    -20.348532
       4A     -1.219288     5A     -1.128068     6A     -1.124507
       7A     -0.500347     8A     -0.492047     9A     -0.397757
      10A     -0.389514    11A     -0.311811    12A     -0.300160
      13A     -0.291876    14A     -0.285954    15A     -0.284618

  @DF-RHF Final Energy:  -251.63818545224620

   => Energetics <=

    Nuclear Repulsion Energy =             73.3983113729665888
    One-Electron Energy =                -503.3363120891434050
    Two-Electron Energy =                 178.2998152639306113
    Total Energy =                       -251.6381854522462049
 Dipole X            :        -32.2543917           30.1371406           -2.1172511
 Dipole Y            :          0.0000000            0.0000000            0.0000000
 Dipole Z            :         -0.0000000            0.0000000           -0.0000000
 Magnitude           :                                                    2.1172511
  Basis Set: (AUG-CC-PVTZ AUX)
    Blend: AUG-CC-PVTZ-RI
	 Reference Energy          =    -251.6381854522462049 [Eh]
	 Singles Energy            =      -0.0000000000000000 [Eh]
	 Same-Spin Energy          =      -0.2245535387596823 [Eh]
	 Opposite-Spin Energy      =      -0.6639459998104390 [Eh]
	 Correlation Energy        =      -0.8884995385701213 [Eh]
	 Total Energy              =    -252.5266849908163351 [Eh]

	 ================> DF-SCS-MP2 Energies <==================
	-----------------------------------------------------------
	 SCS Same-Spin Scale       =       0.3333333333333333 [-]
	 SCS Opposite-Spin Scale   =       1.2000000000000000 [-]
	 SCS Same-Spin Energy      =      -0.0748511795865607 [Eh]
	 SCS Opposite-Spin Energy  =      -0.7967351997725268 [Eh]
	 SCS Correlation Energy    =      -0.8715863793590876 [Eh]
	 SCS Total Energy          =    -252.5097718316052919 [Eh]
	-----------------------------------------------------------

*** Psi4 exiting successfully. Buy a developer a beer!
