                               Psi4 1.8.2 release

  ==> Input File <==

--------------------------------------------------------------------------
MEMORY 60 GB

molecule dimer {
-1 1
F          1.654053     0.000000     0.000000
Gh(O)      0.000000    -0.007351     1.810088
Gh(H)     -0.603559     0.630161     1.426970
Gh(H)      0.742517    -0.027506     1.118978
Gh(O)      0.000000     0.007351    -1.810088
Gh(H)     -0.603559    -0.630161    -1.426970
Gh(H)      0.742517     0.027506    -1.118978

units ang
no_reorient
no_com
symmetry c1
}

set {
basis        aug-cc-pVTZ
scf_type     df
}

energy("mp2")
--------------------------------------------------------------------------

    Molecular point group: c1

    Geometry (in Angstrom), charge = -1, multiplicity = 1:

       Center              X                  Y                   Z               Mass
    ------------   -----------------  -----------------  -----------------  -----------------
         F            1.654053000000     0.000000000000     0.000000000000    18.998403162730
      Gh(O)           0.000000000000    -0.007351000000     1.810088000000    15.994914619570
      Gh(H)          -0.603559000000     0.630161000000     1.426970000000     1.007825032230
      Gh(H)           0.742517000000    -0.027506000000     1.118978000000     1.007825032230
      Gh(O)           0.000000000000     0.007351000000    -1.810088000000    15.994914619570
      Gh(H)          -0.603559000000    -0.630161000000    -1.426970000000     1.007825032230
      Gh(H)           0.742517000000     0.027506000000    -1.118978000000     1.007825032230

  Charge       = -1
  Multiplicity = 1
  Basis Set: AUG-CC-PVTZ
    Blend: AUG-CC-PVTZ
  Basis Set: (AUG-CC-PVTZ AUX)
    Blend: AUG-CC-PVTZ-JKFIT

    Orbital Energies [Eh]
    ---------------------

    Doubly Occupied:

       1A    -25.833734     2A     -1.075968     3A     -0.180980
       4A     -0.180976     5A     -0.180893

  @DF-RHF Final Energy:   -99.45100637607000

   => Energetics <=

    Nuclear Repulsion Energy =              0.0000000000000000
    One-Electron Energy =                -143.9969123334146843
    Two-Electron Energy =                  44.5459059573446865
    Total Energy =                        -99.4510063760699978
 Dipole X            :        -31.2566936           28.1313645           -3.1253291
 Dipole Y            :         -0.0000000            0.0000000           -0.0000000
 Dipole Z            :         -0.0000000            0.0000000           -0.0000000
 Magnitude           :                                                    3.1253291
  Basis Set: (AUG-CC-PVTZ AUX)
    Blend: AUG-CC-PVTZ-RI
	 Reference Energy          =     -99.4510063760699978 [Eh]
	 Singles Energy            =      -0.0000000000000000 [Eh]
	 Same-Spin Energy          =      -0.0819253028877880 [Eh]
	 Opposite-Spin Energy      =      -0.2296540379289654 [Eh]
	 Correlation Energy        =      -0.3115793408167534 [Eh]
	 Total Energy              =     -99.7625857168867469 [Eh]

	 ================> DF-SCS-MP2 Energies <==================
	-----------------------------------------------------------
	 SCS Same-Spin Scale       =       0.3333333333333333 [-]
	 SCS Opposite-Spin Scale   =       1.2000000000000000 [-]
	 SCS Same-Spin Energy      =      -0.0273084342959293 [Eh]
	 SCS Opposite-Spin Energy  =      -0.2755848455147585 [Eh]
	 SCS Correlation Energy    =      -0.3028932798106879 [Eh]
	 SCS Total Energy          =     -99.7538996558806872 [Eh]
	-----------------------------------------------------------

*** Psi4 exiting successfully. Buy a developer a beer!
