                               Psi4 1.8.2 release

  ==> Input File <==

--------------------------------------------------------------------------
MEMORY 60 GB

molecule dimer {
-1 1
F          1.915219     0.000000     0.000000
O          0.000000    -0.007351     1.810088
H         -0.603559     0.630161     1.426970
H          0.742517    -0.027506     1.118978
O          0.000000     0.007351    -1.810088
H         -0.603559    -0.630161    -1.426970
H          0.742517     0.027506    -1.118978

units ang
no_reorient
no_com
symmetry c1
}

set {
basis        aug-cc-pVTZ
scf_type     df
}

energy("mp2")
--------------------------------------------------------------------------

    Molecular point group: c1

    Geometry (in Angstrom), charge = -1, multiplicity = 1:

       Center              X                  Y                   Z               Mass
    ------------   -----------------  -----------------  -----------------  -----------------
         F            1.915219000000     0.000000000000     0.000000000000    18.998403162730
         O            0.000000000000    -0.007351000000     1.810088000000    15.994914619570
         H           -0.603559000000     0.630161000000     1.426970000000     1.007825032230
         H            0.742517000000    -0.027506000000     1.118978000000     1.007825032230
         O            0.000000000000     0.007351000000    -1.810088000000    15.994914619570
         H           -0.603559000000    -0.630161000000    -1.426970000000     1.007825032230
         H            0.742517000000     0.027506000000    -1.118978000000     1.007825032230

  Charge       = -1
  Multiplicity = 1
  Basis Set: AUG-CC-PVTZ
    Blend: AUG-CC-PVTZ
  Basis Set: (AUG-CC-PVTZ AUX)
    Blend: AUG-CC-PVTZ-JKFIT

    Orbital Energies [Eh]
    ---------------------

    Doubly Occupied:

       1A    -25.933027     2A    -20.361917     3A    -20.361916
       4A     -1.197616     5A     -1.138468     6A     -1.136255
       7A     -0.501514     8A     -0.500514     9A     -0.402162
      10A     -0.391280    11A     -0.309361    12A     -0.309034
      13A     -0.287393    14A     -0.281612    15A     -0.280638

  @DF-RHF Final Energy:  -251.63669082839112

   => Energetics <=

    Nuclear Repulsion Energy =             71.3325112128171384
    One-Electron Energy =                -499.1529837111004326
    Two-Electron Energy =                 176.1837816698921415
    Total Energy =                       -251.6366908283911243
 Dipole X            :        -35.6082625           33.0983395           -2.5099229
 Dipole Y            :         -0.0000000            0.0000000           -0.0000000
 Dipole Z            :         -0.0000000            0.0000000           -0.0000000
 Magnitude           :                                                    2.5099229
  Basis Set: (AUG-CC-PVTZ AUX)
    Blend: AUG-CC-PVTZ-RI
	 Reference Energy          =    -251.6366908283911243 [Eh]
	 Singles Energy            =      -0.0000000000000000 [Eh]
	 Same-Spin Energy          =      -0.2238788601671678 [Eh]
	 Opposite-Spin Energy      =      -0.6638095909044542 [Eh]
	 Correlation Energy        =      -0.8876884510716220 [Eh]
	 Total Energy              =    -252.5243792794627495 [Eh]

	 ================> DF-SCS-MP2 Energies <==================
	-----------------------------------------------------------
	 SCS Same-Spin Scale       =       0.3333333333333333 [-]
	 SCS Opposite-Spin Scale   =       1.2000000000000000 [-]
	 SCS Same-Spin Energy      =      -0.0746262867223892 [Eh]
	 SCS Opposite-Spin Energy  =      -0.7965715090853450 [Eh]
	 SCS Correlation Energy    =      -0.8711977958077343 [Eh]
	 SCS Total Energy          =    -252.5078886241988698 [Eh]
	-----------------------------------------------------------

*** Psi4 exiting successfully. Buy a developer a beer!
