                               Psi4 1.8.2 release

  ==> Input File <==

--------------------------------------------------------------------------
MEMORY 60 GB

molecule dimer {
-1 1
F      1.828163     0.000000     0.000000
--
0 1
O      0.000000    -0.007351     1.810088
H     -0.603559     0.630161     1.426970
H      0.742517    -0.027506     1.118978
--
0 1
O      0.000000     0.007351    -1.810088
H     -0.603559    -0.630161    -1.426970
H      0.742517     0.027506    -1.118978

units ang
no_reorient
no_com
symmetry c1
}

set {
basis        aug-cc-pVTZ
scf_type     df
}

energy("mp2", bsse_type="cp")
--------------------------------------------------------------------------

                               Psi4 1.8.2 release
    Molecular point group: c1
  Charge       = -1
  Multiplicity = 1
  Basis Set: AUG-CC-PVTZ
    Blend: AUG-CC-PVTZ
  Basis Set: (AUG-CC-PVTZ AUX)
    Blend: AUG-CC-PVTZ-JKFIT
  @DF-RHF Final Energy:   -99.45098203385554
    Total Energy =                        -99.4509820338555244
 Dipole X            :        -34.5471488           31.0925464           -3.4546024
 Dipole Y            :         -0.0000000            0.0000000           -0.0000000
 Dipole Z            :          0.0000000            0.0000000            0.0000000
 Magnitude           :                                                    3.4546024
  Basis Set: (AUG-CC-PVTZ AUX)
    Blend: AUG-CC-PVTZ-RI
	 Reference Energy          =     -99.4509820338555386 [Eh]
	 Singles Energy            =      -0.0000000000000000 [Eh]
	 Same-Spin Energy          =      -0.0818804630470597 [Eh]
	 Opposite-Spin Energy      =      -0.2290982693370169 [Eh]
	 Correlation Energy        =      -0.3109787323840766 [Eh]
	 Total Energy              =     -99.7619607662396106 [Eh]
	 SCS Total Energy          =     -99.7531934447423083 [Eh]
                               Psi4 1.8.2 release
    Molecular point group: c1
  Basis Set: AUG-CC-PVTZ
    Blend: AUG-CC-PVTZ
  Basis Set: (AUG-CC-PVTZ AUX)
    Blend: AUG-CC-PVTZ-JKFIT
  @DF-RHF Final Energy:   -76.05564907778258
    Total Energy =                        -76.0556490777825758
  Basis Set: (AUG-CC-PVTZ AUX)
                               Psi4 1.8.2 release
  @DF-RHF Final Energy:  -152.10872539629813
    Total Energy =                       -152.1087253962981265
                               Psi4 1.8.2 release
  @DF-RHF Final Energy:  -175.54877556143720
    Total Energy =                       -175.5487755614371963
                               Psi4 1.8.2 release
  @DF-RHF Final Energy:  -175.54877556143342
    Total Energy =                       -175.5487755614334162
                               Psi4 1.8.2 release
  Multiplicity = 1
  @DF-RHF Final Energy:   -76.05564907778692
    Total Energy =                        -76.0556490777869243
	 Singles Energy            =      -0.0000000000000000 [Eh]
	 Same-Spin Energy          =      -0.0689555083239406 [Eh]
	 Opposite-Spin Energy      =      -0.2176491858386798 [Eh]
	 Correlation Energy        =      -0.2866046941626204 [Eh]
	 Total Energy              =     -76.3422537719495438 [Eh]
	 SCS Total Energy          =     -76.3398132702346572 [Eh]
                               Psi4 1.8.2 release
    Molecular point group: c1

    Geometry (in Bohr), charge = -1, multiplicity = 1:

       Center              X                  Y                   Z               Mass
    ------------   -----------------  -----------------  -----------------  -----------------
         F            3.454727382695     0.000000000000     0.000000000000    18.998403162730
         O            0.000000000000    -0.013891376748     3.420570582978    15.994914619570
         H           -1.140561210555     1.190831704945     2.696582489245     1.007825032230
         H            1.403153773497    -0.051978806807     2.114561960413     1.007825032230
         O            0.000000000000     0.013891376748    -3.420570582978    15.994914619570
         H           -1.140561210555    -1.190831704945    -2.696582489245     1.007825032230
         H            1.403153773497     0.051978806807    -2.114561960413     1.007825032230

  Charge       = -1
  Multiplicity = 1
  Basis Set: AUG-CC-PVTZ
    Blend: AUG-CC-PVTZ
  Basis Set: (AUG-CC-PVTZ AUX)
    Blend: AUG-CC-PVTZ-JKFIT

    Orbital Energies [Eh]
    ---------------------

    Doubly Occupied:

       1A    -25.939128     2A    -20.355300     3A    -20.355298
       4A     -1.207996     5A     -1.133235     6A     -1.130466
       7A     -0.500168     8A     -0.496246     9A     -0.399664
      10A     -0.389881    11A     -0.307974    12A     -0.304332
      13A     -0.291559    14A     -0.284252    15A     -0.284089

  @DF-RHF Final Energy:  -251.63797637299922

   => Energetics <=

    Nuclear Repulsion Energy =             72.3507178950204377
    One-Electron Energy =                -501.2182089233688771
    Two-Electron Energy =                 177.2295146553492486
    Total Energy =                       -251.6379763729992192
 Dipole X            :        -33.9298507           31.6177316           -2.3121192
 Dipole Y            :         -0.0000000            0.0000000           -0.0000000
 Dipole Z            :         -0.0000000            0.0000000           -0.0000000
 Magnitude           :                                                    2.3121192
  Basis Set: (AUG-CC-PVTZ AUX)
    Blend: AUG-CC-PVTZ-RI
	 Reference Energy          =    -251.6379763729992192 [Eh]
	 Singles Energy            =      -0.0000000000000000 [Eh]
	 Same-Spin Energy          =      -0.2242107708740579 [Eh]
	 Opposite-Spin Energy      =      -0.6638764743579044 [Eh]
	 Correlation Energy        =      -0.8880872452319624 [Eh]
	 Total Energy              =    -252.5260636182311771 [Eh]

	 ================> DF-SCS-MP2 Energies <==================
	-----------------------------------------------------------
	 SCS Same-Spin Scale       =       0.3333333333333333 [-]
	 SCS Opposite-Spin Scale   =       1.2000000000000000 [-]
	 SCS Same-Spin Energy      =      -0.0747369236246860 [Eh]
	 SCS Opposite-Spin Energy  =      -0.7966517692294853 [Eh]
	 SCS Correlation Energy    =      -0.8713886928541713 [Eh]
	 SCS Total Energy          =    -252.5093650658533875 [Eh]
	-----------------------------------------------------------

*** Psi4 exiting successfully. Buy a developer a beer!
