                               Psi4 1.8.2 release

  ==> Input File <==

--------------------------------------------------------------------------
MEMORY 60 GB

molecule dimer {
-1 1
Cl         5.355156     0.000000     0.000000
Gh(O)      0.000000    -0.107289     1.572847
Gh(H)     -0.369135     0.578119     1.010976
Gh(H)      0.913486    -0.160341     1.215831
Gh(O)      0.000000     0.107289    -1.572847
Gh(H)     -0.369135    -0.578119    -1.010976
Gh(H)      0.913486     0.160341    -1.215831

units ang
no_reorient
no_com
symmetry c1
}

set {
basis        aug-cc-pVTZ
scf_type     df
}

energy("mp2")
--------------------------------------------------------------------------

    Molecular point group: c1

    Geometry (in Angstrom), charge = -1, multiplicity = 1:

       Center              X                  Y                   Z               Mass
    ------------   -----------------  -----------------  -----------------  -----------------
         CL           5.355156000000     0.000000000000     0.000000000000    34.968852682000
      Gh(O)           0.000000000000    -0.107289000000     1.572847000000    15.994914619570
      Gh(H)          -0.369135000000     0.578119000000     1.010976000000     1.007825032230
      Gh(H)           0.913486000000    -0.160341000000     1.215831000000     1.007825032230
      Gh(O)           0.000000000000     0.107289000000    -1.572847000000    15.994914619570
      Gh(H)          -0.369135000000    -0.578119000000    -1.010976000000     1.007825032230
      Gh(H)           0.913486000000     0.160341000000    -1.215831000000     1.007825032230

  Charge       = -1
  Multiplicity = 1
  Basis Set: AUG-CC-PVTZ
    Blend: AUG-CC-PVTZ
  Basis Set: (AUG-CC-PVTZ AUX)
    Blend: AUG-CC-PVTZ-JKFIT

    Orbital Energies [Eh]
    ---------------------

    Doubly Occupied:

       1A   -104.505999     2A    -10.229749     3A     -7.695783
       4A     -7.695781     5A     -7.695779     6A     -0.733509
       7A     -0.150336     8A     -0.150334     9A     -0.150334

  @DF-RHF Final Energy:  -459.57348588806104

   => Energetics <=

    Nuclear Repulsion Energy =              0.0000000000000000
    One-Electron Energy =                -641.1317745340447800
    Two-Electron Energy =                 181.5582886459837368
    Total Energy =                       -459.5734858880610432
 Dipole X            :       -182.1557794          172.0362294          -10.1195500
 Dipole Y            :          0.0000000            0.0000000            0.0000000
 Dipole Z            :         -0.0000000            0.0000000           -0.0000000
 Magnitude           :                                                   10.1195500
  Basis Set: (AUG-CC-PVTZ AUX)
    Blend: AUG-CC-PVTZ-RI
	 Reference Energy          =    -459.5734858880610432 [Eh]
	 Singles Energy            =      -0.0000000000000000 [Eh]
	 Same-Spin Energy          =      -0.0623008725174551 [Eh]
	 Opposite-Spin Energy      =      -0.1787503246403657 [Eh]
	 Correlation Energy        =      -0.2410511971578208 [Eh]
	 Total Energy              =    -459.8145370852188876 [Eh]

	 ================> DF-SCS-MP2 Energies <==================
	-----------------------------------------------------------
	 SCS Same-Spin Scale       =       0.3333333333333333 [-]
	 SCS Opposite-Spin Scale   =       1.2000000000000000 [-]
	 SCS Same-Spin Energy      =      -0.0207669575058184 [Eh]
	 SCS Opposite-Spin Energy  =      -0.2145003895684388 [Eh]
	 SCS Correlation Energy    =      -0.2352673470742572 [Eh]
	 SCS Total Energy          =    -459.8087532351353275 [Eh]
	-----------------------------------------------------------

*** Psi4 exiting successfully. Buy a developer a beer!
