                               Psi4 1.8.2 release

  ==> Input File <==

--------------------------------------------------------------------------
MEMORY 60 GB

molecule dimer {
-1 1
Cl         4.016367     0.000000     0.000000
O          0.000000    -0.107289     1.572847
H         -0.369135     0.578119     1.010976
H          0.913486    -0.160341     1.215831
O          0.000000     0.107289    -1.572847
H         -0.369135    -0.578119    -1.010976
H          0.913486     0.160341    -1.215831

units ang
no_reorient
no_com
symmetry c1
}

set {
basis        aug-cc-pVTZ
scf_type     df
}

energy("mp2")
--------------------------------------------------------------------------

    Molecular point group: c1

    Geometry (in Angstrom), charge = -1, multiplicity = 1:

       Center              X                  Y                   Z               Mass
    ------------   -----------------  -----------------  -----------------  -----------------
         CL           4.016367000000     0.000000000000     0.000000000000    34.968852682000
         O            0.000000000000    -0.107289000000     1.572847000000    15.994914619570
         H           -0.369135000000     0.578119000000     1.010976000000     1.007825032230
         H            0.913486000000    -0.160341000000     1.215831000000     1.007825032230
         O            0.000000000000     0.107289000000    -1.572847000000    15.994914619570
         H           -0.369135000000    -0.578119000000    -1.010976000000     1.007825032230
         H            0.913486000000     0.160341000000    -1.215831000000     1.007825032230

  Charge       = -1
  Multiplicity = 1
  Basis Set: AUG-CC-PVTZ
    Blend: AUG-CC-PVTZ
  Basis Set: (AUG-CC-PVTZ AUX)
    Blend: AUG-CC-PVTZ-JKFIT

    Orbital Energies [Eh]
    ---------------------

    Doubly Occupied:

       1A   -104.532187     2A    -20.451220     3A    -20.451216
       4A    -10.255890     5A     -7.721964     6A     -7.721909
       7A     -7.721907     8A     -1.235167     9A     -1.228141
      10A     -0.759996    11A     -0.587102    12A     -0.581202
      13A     -0.483500    14A     -0.467327    15A     -0.398660
      16A     -0.387177    17A     -0.178444    18A     -0.176241
      19A     -0.175959

  @DF-RHF Final Energy:  -611.71430909559820

   => Energetics <=

    Nuclear Repulsion Energy =             78.5213252264774582
    One-Electron Energy =               -1009.4408483551741256
    Two-Electron Energy =                 319.2052140330985139
    Total Energy =                       -611.7143090955981961
 Dipole X            :       -137.5182341          131.0845207           -6.4337135
 Dipole Y            :          0.0000000            0.0000000            0.0000000
 Dipole Z            :         -0.0000000            0.0000000           -0.0000000
 Magnitude           :                                                    6.4337135
  Basis Set: (AUG-CC-PVTZ AUX)
    Blend: AUG-CC-PVTZ-RI
	 Reference Energy          =    -611.7143090955981961 [Eh]
	 Singles Energy            =      -0.0000000000000000 [Eh]
	 Same-Spin Energy          =      -0.2014726163274509 [Eh]
	 Opposite-Spin Energy      =      -0.6130196432286896 [Eh]
	 Correlation Energy        =      -0.8144922595561406 [Eh]
	 Total Energy              =    -612.5288013551543145 [Eh]

	 ================> DF-SCS-MP2 Energies <==================
	-----------------------------------------------------------
	 SCS Same-Spin Scale       =       0.3333333333333333 [-]
	 SCS Opposite-Spin Scale   =       1.2000000000000000 [-]
	 SCS Same-Spin Energy      =      -0.0671575387758170 [Eh]
	 SCS Opposite-Spin Energy  =      -0.7356235718744275 [Eh]
	 SCS Correlation Energy    =      -0.8027811106502445 [Eh]
	 SCS Total Energy          =    -612.5170902062484402 [Eh]
	-----------------------------------------------------------

*** Psi4 exiting successfully. Buy a developer a beer!
