                               Psi4 1.8.2 release

  ==> Input File <==

--------------------------------------------------------------------------
MEMORY 60 GB

molecule dimer {
-1 1
Cl     2.543699     0.000000     0.000000
--
0 1
O      0.000000    -0.107289     1.572847
H     -0.369135     0.578119     1.010976
H      0.913486    -0.160341     1.215831
--
0 1
O      0.000000     0.107289    -1.572847
H     -0.369135    -0.578119    -1.010976
H      0.913486     0.160341    -1.215831

units ang
no_reorient
no_com
symmetry c1
}

set {
basis        aug-cc-pVTZ
scf_type     df
}

energy("mp2", bsse_type="cp")
--------------------------------------------------------------------------

                               Psi4 1.8.2 release
    Molecular point group: c1
  Charge       = -1
  Multiplicity = 1
  Basis Set: AUG-CC-PVTZ
    Blend: AUG-CC-PVTZ
  Basis Set: (AUG-CC-PVTZ AUX)
    Blend: AUG-CC-PVTZ-JKFIT
  @DF-RHF Final Energy:  -459.57353490745828
    Total Energy =                       -459.5735349074583382
 Dipole X            :        -86.5248747           81.7172057           -4.8076689
 Dipole Y            :          0.0000000            0.0000000            0.0000000
 Dipole Z            :          0.0000000            0.0000000            0.0000000
 Magnitude           :                                                    4.8076689
  Basis Set: (AUG-CC-PVTZ AUX)
    Blend: AUG-CC-PVTZ-RI
	 Reference Energy          =    -459.5735349074582814 [Eh]
	 Singles Energy            =      -0.0000000000000000 [Eh]
	 Same-Spin Energy          =      -0.0631036429274359 [Eh]
	 Opposite-Spin Energy      =      -0.1821790069598433 [Eh]
	 Correlation Energy        =      -0.2452826498872792 [Eh]
	 Total Energy              =    -459.8188175573455396 [Eh]
	 SCS Total Energy          =    -459.8131842634525697 [Eh]
                               Psi4 1.8.2 release
    Molecular point group: c1
  Basis Set: AUG-CC-PVTZ
    Blend: AUG-CC-PVTZ
  Basis Set: (AUG-CC-PVTZ AUX)
    Blend: AUG-CC-PVTZ-JKFIT
  @DF-RHF Final Energy:   -76.05860478443712
    Total Energy =                        -76.0586047844371365
  Basis Set: (AUG-CC-PVTZ AUX)
                               Psi4 1.8.2 release
  @DF-RHF Final Energy:  -152.11631452868613
    Total Energy =                       -152.1163145286861322
                               Psi4 1.8.2 release
  @DF-RHF Final Energy:  -535.65002301959055
    Total Energy =                       -535.6500230195905488
                               Psi4 1.8.2 release
  @DF-RHF Final Energy:  -535.65002301955940
    Total Energy =                       -535.6500230195595122
                               Psi4 1.8.2 release
  Multiplicity = 1
  @DF-RHF Final Energy:   -76.05860478445130
    Total Energy =                        -76.0586047844513189
	 Singles Energy            =      -0.0000000000000000 [Eh]
	 Same-Spin Energy          =      -0.0687297890650184 [Eh]
	 Opposite-Spin Energy      =      -0.2168733419584946 [Eh]
	 Correlation Energy        =      -0.2856031310235130 [Eh]
	 Total Energy              =     -76.3442079154748114 [Eh]
	 SCS Total Energy          =     -76.3417627244898398 [Eh]
                               Psi4 1.8.2 release
    Molecular point group: c1

    Geometry (in Bohr), charge = -1, multiplicity = 1:

       Center              X                  Y                   Z               Mass
    ------------   -----------------  -----------------  -----------------  -----------------
         CL           4.806894455601     0.000000000000     0.000000000000    34.968852682000
         O            0.000000000000    -0.202746826274     2.972250067248    15.994914619570
         H           -0.697564053321     1.092486577924     1.910467759411     1.007825032230
         H            1.726238359440    -0.303000576682     2.297587604842     1.007825032230
         O            0.000000000000     0.202746826274    -2.972250067248    15.994914619570
         H           -0.697564053321    -1.092486577924    -1.910467759411     1.007825032230
         H            1.726238359440     0.303000576682    -2.297587604842     1.007825032230

  Charge       = -1
  Multiplicity = 1
  Basis Set: AUG-CC-PVTZ
    Blend: AUG-CC-PVTZ
  Basis Set: (AUG-CC-PVTZ AUX)
    Blend: AUG-CC-PVTZ-JKFIT

    Orbital Energies [Eh]
    ---------------------

    Doubly Occupied:

       1A   -104.555359     2A    -20.382522     3A    -20.382519
       4A    -10.280973     5A     -7.747070     6A     -7.746999
       7A     -7.746945     8A     -1.172935     9A     -1.165615
      10A     -0.800896    11A     -0.526300    12A     -0.523787
      13A     -0.427283    14A     -0.411715    15A     -0.335919
      16A     -0.324952    17A     -0.210264    18A     -0.209460
      19A     -0.206599

  @DF-RHF Final Energy:  -611.72417452801244

   => Energetics <=

    Nuclear Repulsion Energy =             98.4561448220821234
    One-Electron Energy =               -1050.0444141450975621
    Two-Electron Energy =                 339.8640947950030409
    Total Energy =                       -611.7241745280123268
 Dipole X            :        -86.9901040           83.7745544           -3.2155497
 Dipole Y            :          0.0000000            0.0000000            0.0000000
 Dipole Z            :          0.0000000            0.0000000            0.0000000
 Magnitude           :                                                    3.2155497
  Basis Set: (AUG-CC-PVTZ AUX)
    Blend: AUG-CC-PVTZ-RI
	 Reference Energy          =    -611.7241745280124405 [Eh]
	 Singles Energy            =      -0.0000000000000000 [Eh]
	 Same-Spin Energy          =      -0.2076888270913990 [Eh]
	 Opposite-Spin Energy      =      -0.6207875238522255 [Eh]
	 Correlation Energy        =      -0.8284763509436245 [Eh]
	 Total Energy              =    -612.5526508789561149 [Eh]

	 ================> DF-SCS-MP2 Energies <==================
	-----------------------------------------------------------
	 SCS Same-Spin Scale       =       0.3333333333333333 [-]
	 SCS Opposite-Spin Scale   =       1.2000000000000000 [-]
	 SCS Same-Spin Energy      =      -0.0692296090304663 [Eh]
	 SCS Opposite-Spin Energy  =      -0.7449450286226705 [Eh]
	 SCS Correlation Energy    =      -0.8141746376531369 [Eh]
	 SCS Total Energy          =    -612.5383491656655224 [Eh]
	-----------------------------------------------------------

*** Psi4 exiting successfully. Buy a developer a beer!
