                               Psi4 1.8.2 release

  ==> Input File <==

--------------------------------------------------------------------------
MEMORY 60 GB

molecule dimer {
-1 1
Cl     2.945336     0.000000     0.000000
--
0 1
O      0.000000    -0.107289     1.572847
H     -0.369135     0.578119     1.010976
H      0.913486    -0.160341     1.215831
--
0 1
O      0.000000     0.107289    -1.572847
H     -0.369135    -0.578119    -1.010976
H      0.913486     0.160341    -1.215831

units ang
no_reorient
no_com
symmetry c1
}

set {
basis        aug-cc-pVTZ
scf_type     df
}

energy("mp2", bsse_type="cp")
--------------------------------------------------------------------------

                               Psi4 1.8.2 release
    Molecular point group: c1
  Charge       = -1
  Multiplicity = 1
  Basis Set: AUG-CC-PVTZ
    Blend: AUG-CC-PVTZ
  Basis Set: (AUG-CC-PVTZ AUX)
    Blend: AUG-CC-PVTZ-JKFIT
  @DF-RHF Final Energy:  -459.57352279236238
    Total Energy =                       -459.5735227923623825
 Dipole X            :       -100.1867147           94.6199326           -5.5667822
 Dipole Y            :         -0.0000000            0.0000000           -0.0000000
 Dipole Z            :          0.0000000            0.0000000            0.0000000
 Magnitude           :                                                    5.5667822
  Basis Set: (AUG-CC-PVTZ AUX)
    Blend: AUG-CC-PVTZ-RI
	 Reference Energy          =    -459.5735227923623825 [Eh]
	 Singles Energy            =      -0.0000000000000000 [Eh]
	 Same-Spin Energy          =      -0.0628171729781104 [Eh]
	 Opposite-Spin Energy      =      -0.1809073457942345 [Eh]
	 Correlation Energy        =      -0.2437245187723449 [Eh]
	 Total Energy              =    -459.8172473111347358 [Eh]
	 SCS Total Energy          =    -459.8115506649748454 [Eh]
                               Psi4 1.8.2 release
    Molecular point group: c1
  Basis Set: AUG-CC-PVTZ
    Blend: AUG-CC-PVTZ
  Basis Set: (AUG-CC-PVTZ AUX)
    Blend: AUG-CC-PVTZ-JKFIT
  @DF-RHF Final Energy:   -76.05859573298126
    Total Energy =                        -76.0585957329812459
  Basis Set: (AUG-CC-PVTZ AUX)
                               Psi4 1.8.2 release
  @DF-RHF Final Energy:  -152.11629772581529
    Total Energy =                       -152.1162977258152864
                               Psi4 1.8.2 release
  @DF-RHF Final Energy:  -535.65218874017569
    Total Energy =                       -535.6521887401756885
                               Psi4 1.8.2 release
  @DF-RHF Final Energy:  -535.65218874011828
    Total Energy =                       -535.6521887401183903
                               Psi4 1.8.2 release
  Multiplicity = 1
  @DF-RHF Final Energy:   -76.05859573301080
    Total Energy =                        -76.0585957330108045
	 Singles Energy            =      -0.0000000000000000 [Eh]
	 Same-Spin Energy          =      -0.0687224154744429 [Eh]
	 Opposite-Spin Energy      =      -0.2168009740477601 [Eh]
	 Correlation Energy        =      -0.2855233895222031 [Eh]
	 Total Energy              =     -76.3441191225330016 [Eh]
	 SCS Total Energy          =     -76.3416643736929359 [Eh]
                               Psi4 1.8.2 release
    Molecular point group: c1

    Geometry (in Bohr), charge = -1, multiplicity = 1:

       Center              X                  Y                   Z               Mass
    ------------   -----------------  -----------------  -----------------  -----------------
         CL           5.565878387451     0.000000000000     0.000000000000    34.968852682000
         O            0.000000000000    -0.202746826274     2.972250067248    15.994914619570
         H           -0.697564053321     1.092486577924     1.910467759411     1.007825032230
         H            1.726238359440    -0.303000576682     2.297587604842     1.007825032230
         O            0.000000000000     0.202746826274    -2.972250067248    15.994914619570
         H           -0.697564053321    -1.092486577924    -1.910467759411     1.007825032230
         H            1.726238359440     0.303000576682    -2.297587604842     1.007825032230

  Charge       = -1
  Multiplicity = 1
  Basis Set: AUG-CC-PVTZ
    Blend: AUG-CC-PVTZ
  Basis Set: (AUG-CC-PVTZ AUX)
    Blend: AUG-CC-PVTZ-JKFIT

    Orbital Energies [Eh]
    ---------------------

    Doubly Occupied:

       1A   -104.549614     2A    -20.406275     3A    -20.406271
       4A    -10.273885     5A     -7.739990     6A     -7.739938
       7A     -7.739926     8A     -1.192820     9A     -1.185809
      10A     -0.784214    11A     -0.545679    12A     -0.540432
      13A     -0.444119    14A     -0.428242    15A     -0.356672
      16A     -0.345386    17A     -0.201989    18A     -0.198449
      19A     -0.196095

  @DF-RHF Final Energy:  -611.72895056067512

   => Energetics <=

    Nuclear Repulsion Energy =             91.5919957991238931
    One-Electron Energy =               -1036.0902775937854585
    Two-Electron Energy =                 332.7693312339865201
    Total Energy =                       -611.7289505606750026
 Dipole X            :       -100.7755968           96.6772812           -4.0983156
 Dipole Y            :         -0.0000000            0.0000000           -0.0000000
 Dipole Z            :          0.0000000            0.0000000            0.0000000
 Magnitude           :                                                    4.0983156
  Basis Set: (AUG-CC-PVTZ AUX)
    Blend: AUG-CC-PVTZ-RI
	 Reference Energy          =    -611.7289505606751163 [Eh]
	 Singles Energy            =      -0.0000000000000000 [Eh]
	 Same-Spin Energy          =      -0.2047222229821559 [Eh]
	 Opposite-Spin Energy      =      -0.6173505692049324 [Eh]
	 Correlation Energy        =      -0.8220727921870883 [Eh]
	 Total Energy              =    -612.5510233528622166 [Eh]

	 ================> DF-SCS-MP2 Energies <==================
	-----------------------------------------------------------
	 SCS Same-Spin Scale       =       0.3333333333333333 [-]
	 SCS Opposite-Spin Scale   =       1.2000000000000000 [-]
	 SCS Same-Spin Energy      =      -0.0682407409940519 [Eh]
	 SCS Opposite-Spin Energy  =      -0.7408206830459189 [Eh]
	 SCS Correlation Energy    =      -0.8090614240399708 [Eh]
	 SCS Total Energy          =    -612.5380119847151263 [Eh]
	-----------------------------------------------------------

*** Psi4 exiting successfully. Buy a developer a beer!
