                               Psi4 1.9 release

  ==> Input File <==

--------------------------------------------------------------------------
MEMORY 60 GB

molecule dimer {
-1 1
Cl     3.480851     0.000000     0.000000
--
0 1
O      0.000000    -0.107289     1.572847
H     -0.369135     0.578119     1.010976
H      0.913486    -0.160341     1.215831
O      0.000000     0.107289    -1.572847
H     -0.369135    -0.578119    -1.010976
H      0.913486     0.160341    -1.215831

units ang
no_reorient
no_com
symmetry c1
}

set {
basis        aug-cc-pVTZ
scf_type     df
}

energy("mp2", bsse_type="cp")
--------------------------------------------------------------------------

                               Psi4 1.9 release
    Molecular point group: c1
  Charge       = 0
  Multiplicity = 1
  Basis Set: AUG-CC-PVTZ
    Blend: AUG-CC-PVTZ
  Basis Set: (AUG-CC-PVTZ AUX)
    Blend: AUG-CC-PVTZ-JKFIT
  @DF-RHF Final Energy:  -152.11628364560079
    Total Energy =                       -152.1162836456007597
 Dipole X            :         -1.3930615            2.0573486            0.6642871
 Dipole Y            :          0.0000000            0.0000000            0.0000000
 Dipole Z            :         -0.0000000            0.0000000           -0.0000000
 Magnitude           :                                                    0.6642871
  Basis Set: (AUG-CC-PVTZ AUX)
    Blend: AUG-CC-PVTZ-RI
	 Reference Energy          =    -152.1162836456007881 [Eh]
	 Singles Energy            =      -0.0000000000000000 [Eh]
	 Same-Spin Energy          =      -0.1383237981779146 [Eh]
	 Opposite-Spin Energy      =      -0.4341196039769382 [Eh]
	 Correlation Energy        =      -0.5724434021548528 [Eh]
	 Total Energy              =    -152.6887270477556342 [Eh]
	 SCS Total Energy          =    -152.6833351030990968 [Eh]
                               Psi4 1.9 release
    Molecular point group: c1
  Multiplicity = 1
  Basis Set: AUG-CC-PVTZ
    Blend: AUG-CC-PVTZ
  Basis Set: (AUG-CC-PVTZ AUX)
    Blend: AUG-CC-PVTZ-JKFIT
  @DF-RHF Final Energy:  -459.57350695424208
    Total Energy =                       -459.5735069542420774
  Basis Set: (AUG-CC-PVTZ AUX)
	 Singles Energy            =      -0.0000000000000000 [Eh]
	 Same-Spin Energy          =      -0.0625617494615534 [Eh]
	 Opposite-Spin Energy      =      -0.1797597232789590 [Eh]
	 Correlation Energy        =      -0.2423214727405125 [Eh]
	 Total Energy              =    -459.8158284269825913 [Eh]
	 SCS Total Energy          =    -459.8100725386640306 [Eh]
                               Psi4 1.9 release
    Molecular point group: c1

    Geometry (in Bohr), charge = -1, multiplicity = 1:

       Center              X                  Y                   Z               Mass
    ------------   -----------------  -----------------  -----------------  -----------------
         CL           6.577855073526     0.000000000000     0.000000000000    34.968852682000
         O            0.000000000000    -0.202746826274     2.972250067248    15.994914619570
         H           -0.697564053321     1.092486577924     1.910467759411     1.007825032230
         H            1.726238359440    -0.303000576682     2.297587604842     1.007825032230
         O            0.000000000000     0.202746826274    -2.972250067248    15.994914619570
         H           -0.697564053321    -1.092486577924    -1.910467759411     1.007825032230
         H            1.726238359440     0.303000576682    -2.297587604842     1.007825032230

  Charge       = -1
  Multiplicity = 1
  Basis Set: AUG-CC-PVTZ
    Blend: AUG-CC-PVTZ
  Basis Set: (AUG-CC-PVTZ AUX)
    Blend: AUG-CC-PVTZ-JKFIT

    Orbital Energies [Eh]
    ---------------------

    Doubly Occupied:

       1A   -104.540480     2A    -20.431621     3A    -20.431617
       4A    -10.264216     5A     -7.730304     6A     -7.730253
       7A     -7.730249     8A     -1.216248     9A     -1.209259
      10A     -0.769674    11A     -0.568409    12A     -0.562583
      13A     -0.465509    14A     -0.449558    15A     -0.380057
      16A     -0.368623    17A     -0.189003    18A     -0.185486
      19A     -0.184607

  @DF-RHF Final Energy:  -611.72230915055002

   => Energetics <=

    Nuclear Repulsion Energy =             84.2683354665740723
    One-Electron Energy =               -1021.1657741465605795
    Two-Electron Energy =                 325.1751295294365036
    Total Energy =                       -611.7223091505500179
 Dipole X            :       -119.1580934          113.8808849           -5.2772085
 Dipole Y            :          0.0000000            0.0000000            0.0000000
 Dipole Z            :         -0.0000000            0.0000000           -0.0000000
 Magnitude           :                                                    5.2772085
  Basis Set: (AUG-CC-PVTZ AUX)
    Blend: AUG-CC-PVTZ-RI
	 Reference Energy          =    -611.7223091505500179 [Eh]
	 Singles Energy            =      -0.0000000000000000 [Eh]
	 Same-Spin Energy          =      -0.2025350925817607 [Eh]
	 Opposite-Spin Energy      =      -0.6145386267187209 [Eh]
	 Correlation Energy        =      -0.8170737193004816 [Eh]
	 Total Energy              =    -612.5393828698505558 [Eh]

	 ================> DF-SCS-MP2 Energies <==================
	-----------------------------------------------------------
	 SCS Same-Spin Scale       =       0.3333333333333333 [-]
	 SCS Opposite-Spin Scale   =       1.2000000000000000 [-]
	 SCS Same-Spin Energy      =      -0.0675116975272536 [Eh]
	 SCS Opposite-Spin Energy  =      -0.7374463520624651 [Eh]
	 SCS Correlation Energy    =      -0.8049580495897186 [Eh]
	 SCS Total Energy          =    -612.5272672001397041 [Eh]
	-----------------------------------------------------------

*** Psi4 exiting successfully. Buy a developer a beer!
