                               Psi4 1.9 release

  ==> Input File <==

--------------------------------------------------------------------------
MEMORY 60 GB

molecule dimer {
-1 1
Cl     5.355156     0.000000     0.000000
--
0 1
O      0.000000    -0.107289     1.572847
H     -0.369135     0.578119     1.010976
H      0.913486    -0.160341     1.215831
O      0.000000     0.107289    -1.572847
H     -0.369135    -0.578119    -1.010976
H      0.913486     0.160341    -1.215831

units ang
no_reorient
no_com
symmetry c1
}

set {
basis        aug-cc-pVTZ
scf_type     df
}

energy("mp2", bsse_type="cp")
--------------------------------------------------------------------------

                               Psi4 1.9 release
    Molecular point group: c1
  Charge       = 0
  Multiplicity = 1
  Basis Set: AUG-CC-PVTZ
    Blend: AUG-CC-PVTZ
  Basis Set: (AUG-CC-PVTZ AUX)
    Blend: AUG-CC-PVTZ-JKFIT
  @DF-RHF Final Energy:  -152.11626184020722
    Total Energy =                       -152.1162618402072439
 Dipole X            :         -1.3930456            2.0573486            0.6643031
 Dipole Y            :         -0.0000000            0.0000000           -0.0000000
 Dipole Z            :         -0.0000000            0.0000000           -0.0000000
 Magnitude           :                                                    0.6643031
  Basis Set: (AUG-CC-PVTZ AUX)
    Blend: AUG-CC-PVTZ-RI
	 Reference Energy          =    -152.1162618402072155 [Eh]
	 Singles Energy            =      -0.0000000000000000 [Eh]
	 Same-Spin Energy          =      -0.1382969875704605 [Eh]
	 Opposite-Spin Energy      =      -0.4336306377693682 [Eh]
	 Correlation Energy        =      -0.5719276253398287 [Eh]
	 Total Energy              =    -152.6881894655470546 [Eh]
	 SCS Total Energy          =    -152.6827176013872815 [Eh]
                               Psi4 1.9 release
    Molecular point group: c1
  Multiplicity = 1
  Basis Set: AUG-CC-PVTZ
    Blend: AUG-CC-PVTZ
  Basis Set: (AUG-CC-PVTZ AUX)
    Blend: AUG-CC-PVTZ-JKFIT
  @DF-RHF Final Energy:  -459.57348588809856
    Total Energy =                       -459.5734858880985598
  Basis Set: (AUG-CC-PVTZ AUX)
	 Singles Energy            =      -0.0000000000000000 [Eh]
	 Same-Spin Energy          =      -0.0623008725174493 [Eh]
	 Opposite-Spin Energy      =      -0.1787503246403496 [Eh]
	 Correlation Energy        =      -0.2410511971577989 [Eh]
	 Total Energy              =    -459.8145370852563474 [Eh]
	 SCS Total Energy          =    -459.8087532351727873 [Eh]
                               Psi4 1.9 release
    Molecular point group: c1

    Geometry (in Bohr), charge = -1, multiplicity = 1:

       Center              X                  Y                   Z               Mass
    ------------   -----------------  -----------------  -----------------  -----------------
         CL          10.119778199102     0.000000000000     0.000000000000    34.968852682000
         O            0.000000000000    -0.202746826274     2.972250067248    15.994914619570
         H           -0.697564053321     1.092486577924     1.910467759411     1.007825032230
         H            1.726238359440    -0.303000576682     2.297587604842     1.007825032230
         O            0.000000000000     0.202746826274    -2.972250067248    15.994914619570
         H           -0.697564053321    -1.092486577924    -1.910467759411     1.007825032230
         H            1.726238359440     0.303000576682    -2.297587604842     1.007825032230

  Charge       = -1
  Multiplicity = 1
  Basis Set: AUG-CC-PVTZ
    Blend: AUG-CC-PVTZ
  Basis Set: (AUG-CC-PVTZ AUX)
    Blend: AUG-CC-PVTZ-JKFIT

    Orbital Energies [Eh]
    ---------------------

    Doubly Occupied:

       1A   -104.519237     2A    -20.483832     3A    -20.483828
       4A    -10.243004     5A     -7.709054     6A     -7.709025
       7A     -7.709024     8A     -1.267253     9A     -1.260169
      10A     -0.746743    11A     -0.619245    12A     -0.613252
      13A     -0.514632    14A     -0.497979    15A     -0.430156
      16A     -0.418658    17A     -0.163965    18A     -0.163365
      19A     -0.163357

  @DF-RHF Final Energy:  -611.70214020629919

   => Energetics <=

    Nuclear Repulsion Energy =             68.5726260762181283
    One-Electron Energy =                -989.1179755284011890
    Two-Electron Energy =                 308.8432092458838270
    Total Energy =                       -611.7021402062991910
 Dipole X            :       -183.2937642          174.0935780           -9.2001862
 Dipole Y            :         -0.0000000            0.0000000           -0.0000000
 Dipole Z            :         -0.0000000            0.0000000           -0.0000000
 Magnitude           :                                                    9.2001862
  Basis Set: (AUG-CC-PVTZ AUX)
    Blend: AUG-CC-PVTZ-RI
	 Reference Energy          =    -611.7021402062991910 [Eh]
	 Singles Energy            =      -0.0000000000000000 [Eh]
	 Same-Spin Energy          =      -0.2006820301522783 [Eh]
	 Opposite-Spin Energy      =      -0.6120879513959315 [Eh]
	 Correlation Energy        =      -0.8127699815482099 [Eh]
	 Total Energy              =    -612.5149101878473630 [Eh]

	 ================> DF-SCS-MP2 Energies <==================
	-----------------------------------------------------------
	 SCS Same-Spin Scale       =       0.3333333333333333 [-]
	 SCS Opposite-Spin Scale   =       1.2000000000000000 [-]
	 SCS Same-Spin Energy      =      -0.0668940100507594 [Eh]
	 SCS Opposite-Spin Energy  =      -0.7345055416751178 [Eh]
	 SCS Correlation Energy    =      -0.8013995517258773 [Eh]
	 SCS Total Energy          =    -612.5035397580251129 [Eh]
	-----------------------------------------------------------

*** Psi4 exiting successfully. Buy a developer a beer!
