                               Psi4 1.9 release

  ==> Input File <==

--------------------------------------------------------------------------
MEMORY 60 GB

molecule dimer {
-1 1
Cl     2.677578     0.000000     0.000000
--
0 1
O      0.000000    -0.107289     1.572847
H     -0.369135     0.578119     1.010976
H      0.913486    -0.160341     1.215831
O      0.000000     0.107289    -1.572847
H     -0.369135    -0.578119    -1.010976
H      0.913486     0.160341    -1.215831

units ang
no_reorient
no_com
symmetry c1
}

set {
basis        aug-cc-pVTZ
scf_type     df
}

energy("mp2", bsse_type="cp")
--------------------------------------------------------------------------

                               Psi4 1.9 release
    Molecular point group: c1
  Charge       = 0
  Multiplicity = 1
  Basis Set: AUG-CC-PVTZ
    Blend: AUG-CC-PVTZ
  Basis Set: (AUG-CC-PVTZ AUX)
    Blend: AUG-CC-PVTZ-JKFIT
  @DF-RHF Final Energy:  -152.11630734121707
    Total Energy =                       -152.1163073412170945
 Dipole X            :         -1.3928718            2.0573486            0.6644769
 Dipole Y            :          0.0000000            0.0000000            0.0000000
 Dipole Z            :         -0.0000000            0.0000000           -0.0000000
 Magnitude           :                                                    0.6644769
  Basis Set: (AUG-CC-PVTZ AUX)
    Blend: AUG-CC-PVTZ-RI
	 Reference Energy          =    -152.1163073412170661 [Eh]
	 Singles Energy            =      -0.0000000000000000 [Eh]
	 Same-Spin Energy          =      -0.1383515286489273 [Eh]
	 Opposite-Spin Energy      =      -0.4345010803122814 [Eh]
	 Correlation Energy        =      -0.5728526089612087 [Eh]
	 Total Energy              =    -152.6891599501782650 [Eh]
	 SCS Total Energy          =    -152.6838258138081130 [Eh]
                               Psi4 1.9 release
    Molecular point group: c1
  Multiplicity = 1
  Basis Set: AUG-CC-PVTZ
    Blend: AUG-CC-PVTZ
  Basis Set: (AUG-CC-PVTZ AUX)
    Blend: AUG-CC-PVTZ-JKFIT
  @DF-RHF Final Energy:  -459.57353031504812
    Total Energy =                       -459.5735303150481172
  Basis Set: (AUG-CC-PVTZ AUX)
	 Singles Energy            =      -0.0000000000000000 [Eh]
	 Same-Spin Energy          =      -0.0629971808560889 [Eh]
	 Opposite-Spin Energy      =      -0.1817035817197566 [Eh]
	 Correlation Energy        =      -0.2447007625758455 [Eh]
	 Total Energy              =    -459.8182310776239774 [Eh]
	 SCS Total Energy          =    -459.8125736733971962 [Eh]
                               Psi4 1.9 release
    Molecular point group: c1

    Geometry (in Bohr), charge = -1, multiplicity = 1:

       Center              X                  Y                   Z               Mass
    ------------   -----------------  -----------------  -----------------  -----------------
         CL           5.059889099551     0.000000000000     0.000000000000    34.968852682000
         O            0.000000000000    -0.202746826274     2.972250067248    15.994914619570
         H           -0.697564053321     1.092486577924     1.910467759411     1.007825032230
         H            1.726238359440    -0.303000576682     2.297587604842     1.007825032230
         O            0.000000000000     0.202746826274    -2.972250067248    15.994914619570
         H           -0.697564053321    -1.092486577924    -1.910467759411     1.007825032230
         H            1.726238359440     0.303000576682    -2.297587604842     1.007825032230

  Charge       = -1
  Multiplicity = 1
  Basis Set: AUG-CC-PVTZ
    Blend: AUG-CC-PVTZ
  Basis Set: (AUG-CC-PVTZ AUX)
    Blend: AUG-CC-PVTZ-JKFIT

    Orbital Energies [Eh]
    ---------------------

    Doubly Occupied:

       1A   -104.553690     2A    -20.390930     3A    -20.390927
       4A    -10.278714     5A     -7.744819     6A     -7.744755
       7A     -7.744724     8A     -1.179655     9A     -1.172503
      10A     -0.794581    11A     -0.532944    12A     -0.529020
      13A     -0.432811    14A     -0.417023    15A     -0.343095
      16A     -0.331985    17A     -0.207628    18A     -0.206296
      19A     -0.202964

  @DF-RHF Final Energy:  -611.72767900034614

   => Energetics <=

    Nuclear Repulsion Energy =             96.0176542913279718
    One-Electron Energy =               -1045.0925388656223731
    Two-Electron Energy =                 337.3472055739483153
    Total Energy =                       -611.7276790003461429
 Dipole X            :        -91.5834423           88.0754633           -3.5079790
 Dipole Y            :          0.0000000            0.0000000            0.0000000
 Dipole Z            :         -0.0000000            0.0000000           -0.0000000
 Magnitude           :                                                    3.5079790
  Basis Set: (AUG-CC-PVTZ AUX)
    Blend: AUG-CC-PVTZ-RI
	 Reference Energy          =    -611.7276790003461429 [Eh]
	 Singles Energy            =      -0.0000000000000000 [Eh]
	 Same-Spin Energy          =      -0.2065316934546783 [Eh]
	 Opposite-Spin Energy      =      -0.6194492410571000 [Eh]
	 Correlation Energy        =      -0.8259809345117782 [Eh]
	 Total Energy              =    -612.5536599348579330 [Eh]

	 ================> DF-SCS-MP2 Energies <==================
	-----------------------------------------------------------
	 SCS Same-Spin Scale       =       0.3333333333333333 [-]
	 SCS Opposite-Spin Scale   =       1.2000000000000000 [-]
	 SCS Same-Spin Energy      =      -0.0688438978182261 [Eh]
	 SCS Opposite-Spin Energy  =      -0.7433390892685200 [Eh]
	 SCS Correlation Energy    =      -0.8121829870867461 [Eh]
	 SCS Total Energy          =    -612.5398619874329142 [Eh]
	-----------------------------------------------------------

*** Psi4 exiting successfully. Buy a developer a beer!
