                               Psi4 1.9 release

  ==> Input File <==

--------------------------------------------------------------------------
MEMORY 60 GB

molecule dimer {
-1 1
Cl     3.213094     0.000000     0.000000
--
0 1
O      0.000000    -0.107289     1.572847
H     -0.369135     0.578119     1.010976
H      0.913486    -0.160341     1.215831
O      0.000000     0.107289    -1.572847
H     -0.369135    -0.578119    -1.010976
H      0.913486     0.160341    -1.215831

units ang
no_reorient
no_com
symmetry c1
}

set {
basis        aug-cc-pVTZ
scf_type     df
}

energy("mp2", bsse_type="cp")
--------------------------------------------------------------------------

                               Psi4 1.9 release
    Molecular point group: c1
  Charge       = 0
  Multiplicity = 1
  Basis Set: AUG-CC-PVTZ
    Blend: AUG-CC-PVTZ
  Basis Set: (AUG-CC-PVTZ AUX)
    Blend: AUG-CC-PVTZ-JKFIT
  @DF-RHF Final Energy:  -152.11629093730207
    Total Energy =                       -152.1162909373020966
 Dipole X            :         -1.3930376            2.0573486            0.6643110
 Dipole Y            :          0.0000000            0.0000000            0.0000000
 Dipole Z            :         -0.0000000            0.0000000           -0.0000000
 Magnitude           :                                                    0.6643110
  Basis Set: (AUG-CC-PVTZ AUX)
    Blend: AUG-CC-PVTZ-RI
	 Reference Energy          =    -152.1162909373020682 [Eh]
	 Singles Energy            =      -0.0000000000000000 [Eh]
	 Same-Spin Energy          =      -0.1383331205477440 [Eh]
	 Opposite-Spin Energy      =      -0.4342849818856941 [Eh]
	 Correlation Energy        =      -0.5726181024334380 [Eh]
	 Total Energy              =    -152.6889090397355062 [Eh]
	 SCS Total Energy          =    -152.6835439557474956 [Eh]
                               Psi4 1.9 release
    Molecular point group: c1
  Multiplicity = 1
  Basis Set: AUG-CC-PVTZ
    Blend: AUG-CC-PVTZ
  Basis Set: (AUG-CC-PVTZ AUX)
    Blend: AUG-CC-PVTZ-JKFIT
  @DF-RHF Final Energy:  -459.57351386513352
    Total Energy =                       -459.5735138651335205
  Basis Set: (AUG-CC-PVTZ AUX)
	 Singles Energy            =      -0.0000000000000000 [Eh]
	 Same-Spin Energy          =      -0.0626712662331932 [Eh]
	 Opposite-Spin Energy      =      -0.1802584934298302 [Eh]
	 Correlation Energy        =      -0.2429297596630235 [Eh]
	 Total Energy              =    -459.8164436247965341 [Eh]
	 SCS Total Energy          =    -459.8107144793270322 [Eh]
                               Psi4 1.9 release
    Molecular point group: c1

    Geometry (in Bohr), charge = -1, multiplicity = 1:

       Center              X                  Y                   Z               Mass
    ------------   -----------------  -----------------  -----------------  -----------------
         CL           6.071867675352     0.000000000000     0.000000000000    34.968852682000
         O            0.000000000000    -0.202746826274     2.972250067248    15.994914619570
         H           -0.697564053321     1.092486577924     1.910467759411     1.007825032230
         H            1.726238359440    -0.303000576682     2.297587604842     1.007825032230
         O            0.000000000000     0.202746826274    -2.972250067248    15.994914619570
         H           -0.697564053321    -1.092486577924    -1.910467759411     1.007825032230
         H            1.726238359440     0.303000576682    -2.297587604842     1.007825032230

  Charge       = -1
  Multiplicity = 1
  Basis Set: AUG-CC-PVTZ
    Blend: AUG-CC-PVTZ
  Basis Set: (AUG-CC-PVTZ AUX)
    Blend: AUG-CC-PVTZ-JKFIT

    Orbital Energies [Eh]
    ---------------------

    Doubly Occupied:

       1A   -104.545063     2A    -20.419768     3A    -20.419765
       4A    -10.268961     5A     -7.735058     6A     -7.735009
       7A     -7.735002     8A     -1.205096     9A     -1.198114
      10A     -0.776138    11A     -0.557537    12A     -0.551852
      13A     -0.455163    14A     -0.439273    15A     -0.369004
      16A     -0.357623    17A     -0.195394    18A     -0.191451
      19A     -0.189969

  @DF-RHF Final Energy:  -611.72631473151216

   => Energetics <=

    Nuclear Repulsion Energy =             87.7008423765865359
    One-Electron Energy =               -1028.1638333051632799
    Two-Electron Energy =                 328.7366761970646962
    Total Energy =                       -611.7263147315120477
 Dipole X            :       -109.9686003          105.2790991           -4.6895012
 Dipole Y            :          0.0000000            0.0000000            0.0000000
 Dipole Z            :          0.0000000            0.0000000            0.0000000
 Magnitude           :                                                    4.6895012
  Basis Set: (AUG-CC-PVTZ AUX)
    Blend: AUG-CC-PVTZ-RI
	 Reference Energy          =    -611.7263147315121614 [Eh]
	 Singles Energy            =      -0.0000000000000000 [Eh]
	 Same-Spin Energy          =      -0.2034360129707408 [Eh]
	 Opposite-Spin Energy      =      -0.6157568377669508 [Eh]
	 Correlation Energy        =      -0.8191928507376915 [Eh]
	 Total Energy              =    -612.5455075822497975 [Eh]

	 ================> DF-SCS-MP2 Energies <==================
	-----------------------------------------------------------
	 SCS Same-Spin Scale       =       0.3333333333333333 [-]
	 SCS Opposite-Spin Scale   =       1.2000000000000000 [-]
	 SCS Same-Spin Energy      =      -0.0678120043235803 [Eh]
	 SCS Opposite-Spin Energy  =      -0.7389082053203410 [Eh]
	 SCS Correlation Energy    =      -0.8067202096439212 [Eh]
	 SCS Total Energy          =    -612.5330349411560746 [Eh]
	-----------------------------------------------------------

*** Psi4 exiting successfully. Buy a developer a beer!
