                               Psi4 1.8.2 release

  ==> Input File <==

--------------------------------------------------------------------------
MEMORY 60 GB

molecule dimer {
-1 1
Cl     3.480851     0.000000     0.000000
--
0 1
O      0.000000    -0.107289     1.572847
H     -0.369135     0.578119     1.010976
H      0.913486    -0.160341     1.215831
--
0 1
O      0.000000     0.107289    -1.572847
H     -0.369135    -0.578119    -1.010976
H      0.913486     0.160341    -1.215831

units ang
no_reorient
no_com
symmetry c1
}

set {
basis        aug-cc-pVTZ
scf_type     df
}

energy("mp2", bsse_type="cp")
--------------------------------------------------------------------------

                               Psi4 1.8.2 release
    Molecular point group: c1
  Charge       = -1
  Multiplicity = 1
  Basis Set: AUG-CC-PVTZ
    Blend: AUG-CC-PVTZ
  Basis Set: (AUG-CC-PVTZ AUX)
    Blend: AUG-CC-PVTZ-JKFIT
  @DF-RHF Final Energy:  -459.57350695426283
    Total Energy =                       -459.5735069542628253
 Dipole X            :       -118.4018649          111.8235362           -6.5783286
 Dipole Y            :         -0.0000000            0.0000000           -0.0000000
 Dipole Z            :         -0.0000000            0.0000000           -0.0000000
 Magnitude           :                                                    6.5783286
  Basis Set: (AUG-CC-PVTZ AUX)
    Blend: AUG-CC-PVTZ-RI
	 Reference Energy          =    -459.5735069542628253 [Eh]
	 Singles Energy            =      -0.0000000000000000 [Eh]
	 Same-Spin Energy          =      -0.0625617494615654 [Eh]
	 Opposite-Spin Energy      =      -0.1797597232789809 [Eh]
	 Correlation Energy        =      -0.2423214727405462 [Eh]
	 Total Energy              =    -459.8158284270033960 [Eh]
	 SCS Total Energy          =    -459.8100725386847785 [Eh]
                               Psi4 1.8.2 release
    Molecular point group: c1
  Basis Set: AUG-CC-PVTZ
    Blend: AUG-CC-PVTZ
  Basis Set: (AUG-CC-PVTZ AUX)
    Blend: AUG-CC-PVTZ-JKFIT
  @DF-RHF Final Energy:   -76.05858869664635
    Total Energy =                        -76.0585886966463534
  Basis Set: (AUG-CC-PVTZ AUX)
                               Psi4 1.8.2 release
  @DF-RHF Final Energy:  -152.11628364561759
    Total Energy =                       -152.1162836456175853
                               Psi4 1.8.2 release
  @DF-RHF Final Energy:  -535.64870142562086
    Total Energy =                       -535.6487014256208568
                               Psi4 1.8.2 release
  @DF-RHF Final Energy:  -535.64870142565189
    Total Energy =                       -535.6487014256518933
                               Psi4 1.8.2 release
  Multiplicity = 1
  @DF-RHF Final Energy:   -76.05858869662379
    Total Energy =                        -76.0585886966237723
	 Singles Energy            =      -0.0000000000000000 [Eh]
	 Same-Spin Energy          =      -0.0687137750292619 [Eh]
	 Opposite-Spin Energy      =      -0.2166563828974798 [Eh]
	 Correlation Energy        =      -0.2853701579267417 [Eh]
	 Total Energy              =     -76.3439588545505217 [Eh]
	 SCS Total Energy          =     -76.3414809477771854 [Eh]
                               Psi4 1.8.2 release
    Molecular point group: c1

    Geometry (in Bohr), charge = -1, multiplicity = 1:

       Center              X                  Y                   Z               Mass
    ------------   -----------------  -----------------  -----------------  -----------------
         CL           6.577855073526     0.000000000000     0.000000000000    34.968852682000
         O            0.000000000000    -0.202746826274     2.972250067248    15.994914619570
         H           -0.697564053321     1.092486577924     1.910467759411     1.007825032230
         H            1.726238359440    -0.303000576682     2.297587604842     1.007825032230
         O            0.000000000000     0.202746826274    -2.972250067248    15.994914619570
         H           -0.697564053321    -1.092486577924    -1.910467759411     1.007825032230
         H            1.726238359440     0.303000576682    -2.297587604842     1.007825032230

  Charge       = -1
  Multiplicity = 1
  Basis Set: AUG-CC-PVTZ
    Blend: AUG-CC-PVTZ
  Basis Set: (AUG-CC-PVTZ AUX)
    Blend: AUG-CC-PVTZ-JKFIT

    Orbital Energies [Eh]
    ---------------------

    Doubly Occupied:

       1A   -104.540480     2A    -20.431621     3A    -20.431617
       4A    -10.264216     5A     -7.730304     6A     -7.730253
       7A     -7.730249     8A     -1.216248     9A     -1.209259
      10A     -0.769674    11A     -0.568409    12A     -0.562583
      13A     -0.465509    14A     -0.449558    15A     -0.380057
      16A     -0.368623    17A     -0.189003    18A     -0.185486
      19A     -0.184607

  @DF-RHF Final Energy:  -611.72230915060254

   => Energetics <=

    Nuclear Repulsion Energy =             84.2683354665740723
    One-Electron Energy =               -1021.1657741465867275
    Two-Electron Energy =                 325.1751295294101283
    Total Energy =                       -611.7223091506025412
 Dipole X            :       -119.1580934          113.8808849           -5.2772085
 Dipole Y            :          0.0000000            0.0000000            0.0000000
 Dipole Z            :         -0.0000000            0.0000000           -0.0000000
 Magnitude           :                                                    5.2772085
  Basis Set: (AUG-CC-PVTZ AUX)
    Blend: AUG-CC-PVTZ-RI
	 Reference Energy          =    -611.7223091506025412 [Eh]
	 Singles Energy            =      -0.0000000000000000 [Eh]
	 Same-Spin Energy          =      -0.2025350925818169 [Eh]
	 Opposite-Spin Energy      =      -0.6145386267190041 [Eh]
	 Correlation Energy        =      -0.8170737193008210 [Eh]
	 Total Energy              =    -612.5393828699033065 [Eh]

	 ================> DF-SCS-MP2 Energies <==================
	-----------------------------------------------------------
	 SCS Same-Spin Scale       =       0.3333333333333333 [-]
	 SCS Opposite-Spin Scale   =       1.2000000000000000 [-]
	 SCS Same-Spin Energy      =      -0.0675116975272723 [Eh]
	 SCS Opposite-Spin Energy  =      -0.7374463520628048 [Eh]
	 SCS Correlation Energy    =      -0.8049580495900771 [Eh]
	 SCS Total Energy          =    -612.5272672001925685 [Eh]
	-----------------------------------------------------------

*** Psi4 exiting successfully. Buy a developer a beer!
