                               Psi4 1.9 release

  ==> Input File <==

--------------------------------------------------------------------------
MEMORY 60 GB

molecule dimer {
-1 1
Cl     2.409820     0.000000     0.000000
--
0 1
O      0.000000    -0.107289     1.572847
H     -0.369135     0.578119     1.010976
H      0.913486    -0.160341     1.215831
O      0.000000     0.107289    -1.572847
H     -0.369135    -0.578119    -1.010976
H      0.913486     0.160341    -1.215831

units ang
no_reorient
no_com
symmetry c1
}

set {
basis        aug-cc-pVTZ
scf_type     df
}

energy("mp2", bsse_type="cp")
--------------------------------------------------------------------------

                               Psi4 1.9 release
    Molecular point group: c1
  Charge       = 0
  Multiplicity = 1
  Basis Set: AUG-CC-PVTZ
    Blend: AUG-CC-PVTZ
  Basis Set: (AUG-CC-PVTZ AUX)
    Blend: AUG-CC-PVTZ-JKFIT
  @DF-RHF Final Energy:  -152.11632365037440
    Total Energy =                       -152.1163236503743974
 Dipole X            :         -1.3927510            2.0573486            0.6645976
 Dipole Y            :         -0.0000000            0.0000000           -0.0000000
 Dipole Z            :          0.0000000            0.0000000            0.0000000
 Magnitude           :                                                    0.6645976
  Basis Set: (AUG-CC-PVTZ AUX)
    Blend: AUG-CC-PVTZ-RI
	 Reference Energy          =    -152.1163236503743974 [Eh]
	 Singles Energy            =      -0.0000000000000000 [Eh]
	 Same-Spin Energy          =      -0.1383643927717766 [Eh]
	 Opposite-Spin Energy      =      -0.4346275389567724 [Eh]
	 Correlation Energy        =      -0.5729919317285490 [Eh]
	 Total Energy              =    -152.6893155821029495 [Eh]
	 SCS Total Energy          =    -152.6839981613797761 [Eh]
                               Psi4 1.9 release
    Molecular point group: c1
  Multiplicity = 1
  Basis Set: AUG-CC-PVTZ
    Blend: AUG-CC-PVTZ
  Basis Set: (AUG-CC-PVTZ AUX)
    Blend: AUG-CC-PVTZ-JKFIT
  @DF-RHF Final Energy:  -459.57354162497631
    Total Energy =                       -459.5735416249763148
  Basis Set: (AUG-CC-PVTZ AUX)
	 Singles Energy            =      -0.0000000000000000 [Eh]
	 Same-Spin Energy          =      -0.0632307342821546 [Eh]
	 Opposite-Spin Energy      =      -0.1827428852527611 [Eh]
	 Correlation Energy        =      -0.2459736195349157 [Eh]
	 Total Energy              =    -459.8195152445112512 [Eh]
	 SCS Total Energy          =    -459.8139099987070040 [Eh]
                               Psi4 1.9 release
    Molecular point group: c1

    Geometry (in Bohr), charge = -1, multiplicity = 1:

       Center              X                  Y                   Z               Mass
    ------------   -----------------  -----------------  -----------------  -----------------
         CL           4.553899811651     0.000000000000     0.000000000000    34.968852682000
         O            0.000000000000    -0.202746826274     2.972250067248    15.994914619570
         H           -0.697564053321     1.092486577924     1.910467759411     1.007825032230
         H            1.726238359440    -0.303000576682     2.297587604842     1.007825032230
         O            0.000000000000     0.202746826274    -2.972250067248    15.994914619570
         H           -0.697564053321    -1.092486577924    -1.910467759411     1.007825032230
         H            1.726238359440     0.303000576682    -2.297587604842     1.007825032230

  Charge       = -1
  Multiplicity = 1
  Basis Set: AUG-CC-PVTZ
    Blend: AUG-CC-PVTZ
  Basis Set: (AUG-CC-PVTZ AUX)
    Blend: AUG-CC-PVTZ-JKFIT

    Orbital Energies [Eh]
    ---------------------

    Doubly Occupied:

       1A   -104.556651     2A    -20.373634     3A    -20.373631
       4A    -10.283044     5A     -7.749126     6A     -7.749048
       7A     -7.748955     8A     -1.166333     9A     -1.158721
      10A     -0.808106    11A     -0.519501    12A     -0.519331
      13A     -0.422001    14A     -0.406940    15A     -0.328597
      16A     -0.317836    17A     -0.213934    18A     -0.210216
      19A     -0.210165

  @DF-RHF Final Energy:  -611.71759953242179

   => Energetics <=

    Nuclear Repulsion Energy =            101.0582922078084636
    One-Electron Energy =               -1055.3202416398135028
    Two-Electron Energy =                 342.5443498995833238
    Total Energy =                       -611.7175995324216728
 Dipole X            :        -82.4007755           79.4736454           -2.9271301
 Dipole Y            :         -0.0000000            0.0000000           -0.0000000
 Dipole Z            :          0.0000000            0.0000000            0.0000000
 Magnitude           :                                                    2.9271301
  Basis Set: (AUG-CC-PVTZ AUX)
    Blend: AUG-CC-PVTZ-RI
	 Reference Energy          =    -611.7175995324217865 [Eh]
	 Singles Energy            =      -0.0000000000000000 [Eh]
	 Same-Spin Energy          =      -0.2090535671830380 [Eh]
	 Opposite-Spin Energy      =      -0.6224027293229599 [Eh]
	 Correlation Energy        =      -0.8314562965059979 [Eh]
	 Total Energy              =    -612.5490558289277487 [Eh]

	 ================> DF-SCS-MP2 Energies <==================
	-----------------------------------------------------------
	 SCS Same-Spin Scale       =       0.3333333333333333 [-]
	 SCS Opposite-Spin Scale   =       1.2000000000000000 [-]
	 SCS Same-Spin Energy      =      -0.0696845223943460 [Eh]
	 SCS Opposite-Spin Energy  =      -0.7468832751875519 [Eh]
	 SCS Correlation Energy    =      -0.8165677975818979 [Eh]
	 SCS Total Energy          =    -612.5341673300036973 [Eh]
	-----------------------------------------------------------

*** Psi4 exiting successfully. Buy a developer a beer!
