                               Psi4 1.8.2 release

  ==> Input File <==

--------------------------------------------------------------------------
MEMORY 60 GB

molecule dimer {
-1 1
Cl     2.677578     0.000000     0.000000
--
0 1
O      0.000000    -0.107289     1.572847
H     -0.369135     0.578119     1.010976
H      0.913486    -0.160341     1.215831
--
0 1
O      0.000000     0.107289    -1.572847
H     -0.369135    -0.578119    -1.010976
H      0.913486     0.160341    -1.215831

units ang
no_reorient
no_com
symmetry c1
}

set {
basis        aug-cc-pVTZ
scf_type     df
}

energy("mp2", bsse_type="cp")
--------------------------------------------------------------------------

                               Psi4 1.8.2 release
    Molecular point group: c1
  Charge       = -1
  Multiplicity = 1
  Basis Set: AUG-CC-PVTZ
    Blend: AUG-CC-PVTZ
  Basis Set: (AUG-CC-PVTZ AUX)
    Blend: AUG-CC-PVTZ-JKFIT
  @DF-RHF Final Energy:  -459.57353031504783
    Total Energy =                       -459.5735303150478330
 Dipole X            :        -91.0788282           86.0181147           -5.0607135
 Dipole Y            :          0.0000000            0.0000000            0.0000000
 Dipole Z            :         -0.0000000            0.0000000           -0.0000000
 Magnitude           :                                                    5.0607135
  Basis Set: (AUG-CC-PVTZ AUX)
    Blend: AUG-CC-PVTZ-RI
	 Reference Energy          =    -459.5735303150478330 [Eh]
	 Singles Energy            =      -0.0000000000000000 [Eh]
	 Same-Spin Energy          =      -0.0629971808560909 [Eh]
	 Opposite-Spin Energy      =      -0.1817035817197348 [Eh]
	 Correlation Energy        =      -0.2447007625758257 [Eh]
	 Total Energy              =    -459.8182310776236363 [Eh]
	 SCS Total Energy          =    -459.8125736733968552 [Eh]
                               Psi4 1.8.2 release
    Molecular point group: c1
  Basis Set: AUG-CC-PVTZ
    Blend: AUG-CC-PVTZ
  Basis Set: (AUG-CC-PVTZ AUX)
    Blend: AUG-CC-PVTZ-JKFIT
  @DF-RHF Final Energy:   -76.05860090798426
    Total Energy =                        -76.0586009079842569
  Basis Set: (AUG-CC-PVTZ AUX)
                               Psi4 1.8.2 release
  @DF-RHF Final Energy:  -152.11630734126396
    Total Energy =                       -152.1163073412639619
                               Psi4 1.8.2 release
  @DF-RHF Final Energy:  -535.65169332499590
    Total Energy =                       -535.6516933249959038
                               Psi4 1.8.2 release
  @DF-RHF Final Energy:  -535.65169332500784
    Total Energy =                       -535.6516933250078409
                               Psi4 1.8.2 release
  Multiplicity = 1
  @DF-RHF Final Energy:   -76.05860090798299
    Total Energy =                        -76.0586009079829921
	 Singles Energy            =      -0.0000000000000000 [Eh]
	 Same-Spin Energy          =      -0.0687269564675896 [Eh]
	 Opposite-Spin Energy      =      -0.2168460051600444 [Eh]
	 Correlation Energy        =      -0.2855729616276340 [Eh]
	 Total Energy              =     -76.3441738696106285 [Eh]
	 SCS Total Energy          =     -76.3417250996642451 [Eh]
                               Psi4 1.8.2 release
    Molecular point group: c1

    Geometry (in Bohr), charge = -1, multiplicity = 1:

       Center              X                  Y                   Z               Mass
    ------------   -----------------  -----------------  -----------------  -----------------
         CL           5.059889099551     0.000000000000     0.000000000000    34.968852682000
         O            0.000000000000    -0.202746826274     2.972250067248    15.994914619570
         H           -0.697564053321     1.092486577924     1.910467759411     1.007825032230
         H            1.726238359440    -0.303000576682     2.297587604842     1.007825032230
         O            0.000000000000     0.202746826274    -2.972250067248    15.994914619570
         H           -0.697564053321    -1.092486577924    -1.910467759411     1.007825032230
         H            1.726238359440     0.303000576682    -2.297587604842     1.007825032230

  Charge       = -1
  Multiplicity = 1
  Basis Set: AUG-CC-PVTZ
    Blend: AUG-CC-PVTZ
  Basis Set: (AUG-CC-PVTZ AUX)
    Blend: AUG-CC-PVTZ-JKFIT

    Orbital Energies [Eh]
    ---------------------

    Doubly Occupied:

       1A   -104.553690     2A    -20.390930     3A    -20.390927
       4A    -10.278714     5A     -7.744819     6A     -7.744755
       7A     -7.744724     8A     -1.179655     9A     -1.172503
      10A     -0.794581    11A     -0.532944    12A     -0.529020
      13A     -0.432811    14A     -0.417023    15A     -0.343095
      16A     -0.331985    17A     -0.207628    18A     -0.206296
      19A     -0.202964

  @DF-RHF Final Energy:  -611.72767900045039

   => Energetics <=

    Nuclear Repulsion Energy =             96.0176542913279718
    One-Electron Energy =               -1045.0925388656396535
    Two-Electron Energy =                 337.3472055738612880
    Total Energy =                       -611.7276790004503937
 Dipole X            :        -91.5834423           88.0754633           -3.5079790
 Dipole Y            :         -0.0000000            0.0000000           -0.0000000
 Dipole Z            :         -0.0000000            0.0000000           -0.0000000
 Magnitude           :                                                    3.5079790
  Basis Set: (AUG-CC-PVTZ AUX)
    Blend: AUG-CC-PVTZ-RI
	 Reference Energy          =    -611.7276790004503937 [Eh]
	 Singles Energy            =      -0.0000000000000000 [Eh]
	 Same-Spin Energy          =      -0.2065316934545256 [Eh]
	 Opposite-Spin Energy      =      -0.6194492410565033 [Eh]
	 Correlation Energy        =      -0.8259809345110289 [Eh]
	 Total Energy              =    -612.5536599349613880 [Eh]

	 ================> DF-SCS-MP2 Energies <==================
	-----------------------------------------------------------
	 SCS Same-Spin Scale       =       0.3333333333333333 [-]
	 SCS Opposite-Spin Scale   =       1.2000000000000000 [-]
	 SCS Same-Spin Energy      =      -0.0688438978181752 [Eh]
	 SCS Opposite-Spin Energy  =      -0.7433390892678040 [Eh]
	 SCS Correlation Energy    =      -0.8121829870859792 [Eh]
	 SCS Total Energy          =    -612.5398619875363693 [Eh]
	-----------------------------------------------------------

*** Psi4 exiting successfully. Buy a developer a beer!
