                               Psi4 1.8.2 release

  ==> Input File <==

--------------------------------------------------------------------------
MEMORY 60 GB

molecule dimer {
-1 1
Cl         2.811457     0.000000     0.000000
O          0.000000    -0.107289     1.572847
H         -0.369135     0.578119     1.010976
H          0.913486    -0.160341     1.215831
O          0.000000     0.107289    -1.572847
H         -0.369135    -0.578119    -1.010976
H          0.913486     0.160341    -1.215831

units ang
no_reorient
no_com
symmetry c1
}

set {
basis        aug-cc-pVTZ
scf_type     df
}

energy("mp2")
--------------------------------------------------------------------------

    Molecular point group: c1

    Geometry (in Angstrom), charge = -1, multiplicity = 1:

       Center              X                  Y                   Z               Mass
    ------------   -----------------  -----------------  -----------------  -----------------
         CL           2.811457000000     0.000000000000     0.000000000000    34.968852682000
         O            0.000000000000    -0.107289000000     1.572847000000    15.994914619570
         H           -0.369135000000     0.578119000000     1.010976000000     1.007825032230
         H            0.913486000000    -0.160341000000     1.215831000000     1.007825032230
         O            0.000000000000     0.107289000000    -1.572847000000    15.994914619570
         H           -0.369135000000    -0.578119000000    -1.010976000000     1.007825032230
         H            0.913486000000     0.160341000000    -1.215831000000     1.007825032230

  Charge       = -1
  Multiplicity = 1
  Basis Set: AUG-CC-PVTZ
    Blend: AUG-CC-PVTZ
  Basis Set: (AUG-CC-PVTZ AUX)
    Blend: AUG-CC-PVTZ-JKFIT

    Orbital Energies [Eh]
    ---------------------

    Doubly Occupied:

       1A   -104.551747     2A    -20.398845     3A    -20.398842
       4A    -10.276333     5A     -7.742441     6A     -7.742383
       7A     -7.742365     8A     -1.186319     9A     -1.179261
      10A     -0.789059    11A     -0.539411    12A     -0.534652
      13A     -0.438459    14A     -0.422597    15A     -0.350029
      16A     -0.338817    17A     -0.205036    18A     -0.202302
      19A     -0.199445

  @DF-RHF Final Energy:  -611.72903938558841

   => Energetics <=

    Nuclear Repulsion Energy =             93.7329994416799508
    One-Electron Energy =               -1040.4473885228169365
    Two-Electron Energy =                 334.9853496955486207
    Total Energy =                       -611.7290393855884076
 Dipole X            :        -96.1790180           92.3763723           -3.8026458
 Dipole Y            :         -0.0000000            0.0000000           -0.0000000
 Dipole Z            :         -0.0000000            0.0000000           -0.0000000
 Magnitude           :                                                    3.8026458
  Basis Set: (AUG-CC-PVTZ AUX)
    Blend: AUG-CC-PVTZ-RI
	 Reference Energy          =    -611.7290393855884076 [Eh]
	 Singles Energy            =      -0.0000000000000000 [Eh]
	 Same-Spin Energy          =      -0.2055515298190957 [Eh]
	 Opposite-Spin Energy      =      -0.6183213359150770 [Eh]
	 Correlation Energy        =      -0.8238728657341727 [Eh]
	 Total Energy              =    -612.5529122513225957 [Eh]

	 ================> DF-SCS-MP2 Energies <==================
	-----------------------------------------------------------
	 SCS Same-Spin Scale       =       0.3333333333333333 [-]
	 SCS Opposite-Spin Scale   =       1.2000000000000000 [-]
	 SCS Same-Spin Energy      =      -0.0685171766063652 [Eh]
	 SCS Opposite-Spin Energy  =      -0.7419856030980924 [Eh]
	 SCS Correlation Energy    =      -0.8105027797044576 [Eh]
	 SCS Total Energy          =    -612.5395421652929144 [Eh]
	-----------------------------------------------------------

*** Psi4 exiting successfully. Buy a developer a beer!
