                               Psi4 1.8.2 release

  ==> Input File <==

--------------------------------------------------------------------------
MEMORY 60 GB

molecule dimer {
-1 1
Cl     2.811457     0.000000     0.000000
--
0 1
O      0.000000    -0.107289     1.572847
H     -0.369135     0.578119     1.010976
H      0.913486    -0.160341     1.215831
--
0 1
O      0.000000     0.107289    -1.572847
H     -0.369135    -0.578119    -1.010976
H      0.913486     0.160341    -1.215831

units ang
no_reorient
no_com
symmetry c1
}

set {
basis        aug-cc-pVTZ
scf_type     df
}

energy("mp2", bsse_type="cp")
--------------------------------------------------------------------------

                               Psi4 1.8.2 release
    Molecular point group: c1
  Charge       = -1
  Multiplicity = 1
  Basis Set: AUG-CC-PVTZ
    Blend: AUG-CC-PVTZ
  Basis Set: (AUG-CC-PVTZ AUX)
    Blend: AUG-CC-PVTZ-JKFIT
  @DF-RHF Final Energy:  -459.57352681651315
    Total Energy =                       -459.5735268165130947
 Dipole X            :        -95.6327883           90.3190236           -5.3137646
 Dipole Y            :         -0.0000000            0.0000000           -0.0000000
 Dipole Z            :          0.0000000            0.0000000            0.0000000
 Magnitude           :                                                    5.3137646
  Basis Set: (AUG-CC-PVTZ AUX)
    Blend: AUG-CC-PVTZ-RI
	 Reference Energy          =    -459.5735268165131515 [Eh]
	 Singles Energy            =      -0.0000000000000000 [Eh]
	 Same-Spin Energy          =      -0.0629030375635386 [Eh]
	 Opposite-Spin Energy      =      -0.1812855495476394 [Eh]
	 Correlation Energy        =      -0.2441885871111780 [Eh]
	 Total Energy              =    -459.8177154036243337 [Eh]
	 SCS Total Energy          =    -459.8120371551581798 [Eh]
                               Psi4 1.8.2 release
    Molecular point group: c1
  Basis Set: AUG-CC-PVTZ
    Blend: AUG-CC-PVTZ
  Basis Set: (AUG-CC-PVTZ AUX)
    Blend: AUG-CC-PVTZ-JKFIT
  @DF-RHF Final Energy:   -76.05859795082540
    Total Energy =                        -76.0585979508254013
  Basis Set: (AUG-CC-PVTZ AUX)
                               Psi4 1.8.2 release
  @DF-RHF Final Energy:  -152.11630187258805
    Total Energy =                       -152.1163018725880534
                               Psi4 1.8.2 release
  @DF-RHF Final Energy:  -535.65229894349216
    Total Energy =                       -535.6522989434920419
                               Psi4 1.8.2 release
  @DF-RHF Final Energy:  -535.65229894353115
    Total Energy =                       -535.6522989435311501
                               Psi4 1.8.2 release
  Multiplicity = 1
  @DF-RHF Final Energy:   -76.05859795079976
    Total Energy =                        -76.0585979507997507
	 Singles Energy            =      -0.0000000000000000 [Eh]
	 Same-Spin Energy          =      -0.0687245364984982 [Eh]
	 Opposite-Spin Energy      =      -0.2168236263117062 [Eh]
	 Correlation Energy        =      -0.2855481628102045 [Eh]
	 Total Energy              =     -76.3441461136099662 [Eh]
	 SCS Total Energy          =     -76.3416944812066447 [Eh]
                               Psi4 1.8.2 release
    Molecular point group: c1

    Geometry (in Bohr), charge = -1, multiplicity = 1:

       Center              X                  Y                   Z               Mass
    ------------   -----------------  -----------------  -----------------  -----------------
         CL           5.312883743501     0.000000000000     0.000000000000    34.968852682000
         O            0.000000000000    -0.202746826274     2.972250067248    15.994914619570
         H           -0.697564053321     1.092486577924     1.910467759411     1.007825032230
         H            1.726238359440    -0.303000576682     2.297587604842     1.007825032230
         O            0.000000000000     0.202746826274    -2.972250067248    15.994914619570
         H           -0.697564053321    -1.092486577924    -1.910467759411     1.007825032230
         H            1.726238359440     0.303000576682    -2.297587604842     1.007825032230

  Charge       = -1
  Multiplicity = 1
  Basis Set: AUG-CC-PVTZ
    Blend: AUG-CC-PVTZ
  Basis Set: (AUG-CC-PVTZ AUX)
    Blend: AUG-CC-PVTZ-JKFIT

    Orbital Energies [Eh]
    ---------------------

    Doubly Occupied:

       1A   -104.551747     2A    -20.398845     3A    -20.398842
       4A    -10.276333     5A     -7.742441     6A     -7.742383
       7A     -7.742365     8A     -1.186319     9A     -1.179261
      10A     -0.789059    11A     -0.539411    12A     -0.534652
      13A     -0.438459    14A     -0.422597    15A     -0.350029
      16A     -0.338817    17A     -0.205036    18A     -0.202302
      19A     -0.199445

  @DF-RHF Final Energy:  -611.72903938558886

   => Energetics <=

    Nuclear Repulsion Energy =             93.7329994416799508
    One-Electron Energy =               -1040.4473885228171639
    Two-Electron Energy =                 334.9853496955483934
    Total Energy =                       -611.7290393855888624
 Dipole X            :        -96.1790180           92.3763723           -3.8026458
 Dipole Y            :         -0.0000000            0.0000000           -0.0000000
 Dipole Z            :         -0.0000000            0.0000000           -0.0000000
 Magnitude           :                                                    3.8026458
  Basis Set: (AUG-CC-PVTZ AUX)
    Blend: AUG-CC-PVTZ-RI
	 Reference Energy          =    -611.7290393855888624 [Eh]
	 Singles Energy            =      -0.0000000000000000 [Eh]
	 Same-Spin Energy          =      -0.2055515298190953 [Eh]
	 Opposite-Spin Energy      =      -0.6183213359150741 [Eh]
	 Correlation Energy        =      -0.8238728657341694 [Eh]
	 Total Energy              =    -612.5529122513230504 [Eh]

	 ================> DF-SCS-MP2 Energies <==================
	-----------------------------------------------------------
	 SCS Same-Spin Scale       =       0.3333333333333333 [-]
	 SCS Opposite-Spin Scale   =       1.2000000000000000 [-]
	 SCS Same-Spin Energy      =      -0.0685171766063651 [Eh]
	 SCS Opposite-Spin Energy  =      -0.7419856030980889 [Eh]
	 SCS Correlation Energy    =      -0.8105027797044541 [Eh]
	 SCS Total Energy          =    -612.5395421652933692 [Eh]
	-----------------------------------------------------------

*** Psi4 exiting successfully. Buy a developer a beer!
