                               Psi4 1.8.2 release

  ==> Input File <==

--------------------------------------------------------------------------
MEMORY 60 GB

molecule dimer {
-1 1
Cl         2.945336     0.000000     0.000000
O          0.000000    -0.107289     1.572847
H         -0.369135     0.578119     1.010976
H          0.913486    -0.160341     1.215831
O          0.000000     0.107289    -1.572847
H         -0.369135    -0.578119    -1.010976
H          0.913486     0.160341    -1.215831

units ang
no_reorient
no_com
symmetry c1
}

set {
basis        aug-cc-pVTZ
scf_type     df
}

energy("mp2")
--------------------------------------------------------------------------

    Molecular point group: c1

    Geometry (in Angstrom), charge = -1, multiplicity = 1:

       Center              X                  Y                   Z               Mass
    ------------   -----------------  -----------------  -----------------  -----------------
         CL           2.945336000000     0.000000000000     0.000000000000    34.968852682000
         O            0.000000000000    -0.107289000000     1.572847000000    15.994914619570
         H           -0.369135000000     0.578119000000     1.010976000000     1.007825032230
         H            0.913486000000    -0.160341000000     1.215831000000     1.007825032230
         O            0.000000000000     0.107289000000    -1.572847000000    15.994914619570
         H           -0.369135000000    -0.578119000000    -1.010976000000     1.007825032230
         H            0.913486000000     0.160341000000    -1.215831000000     1.007825032230

  Charge       = -1
  Multiplicity = 1
  Basis Set: AUG-CC-PVTZ
    Blend: AUG-CC-PVTZ
  Basis Set: (AUG-CC-PVTZ AUX)
    Blend: AUG-CC-PVTZ-JKFIT

    Orbital Energies [Eh]
    ---------------------

    Doubly Occupied:

       1A   -104.549614     2A    -20.406275     3A    -20.406271
       4A    -10.273885     5A     -7.739990     6A     -7.739938
       7A     -7.739926     8A     -1.192820     9A     -1.185809
      10A     -0.784214    11A     -0.545679    12A     -0.540432
      13A     -0.444119    14A     -0.428242    15A     -0.356672
      16A     -0.345386    17A     -0.201989    18A     -0.198449
      19A     -0.196095

  @DF-RHF Final Energy:  -611.72895056067466

   => Energetics <=

    Nuclear Repulsion Energy =             91.5919957991238931
    One-Electron Energy =               -1036.0902775937856859
    Two-Electron Energy =                 332.7693312339870317
    Total Energy =                       -611.7289505606747753
 Dipole X            :       -100.7755968           96.6772812           -4.0983156
 Dipole Y            :         -0.0000000            0.0000000           -0.0000000
 Dipole Z            :          0.0000000            0.0000000            0.0000000
 Magnitude           :                                                    4.0983156
  Basis Set: (AUG-CC-PVTZ AUX)
    Blend: AUG-CC-PVTZ-RI
	 Reference Energy          =    -611.7289505606746616 [Eh]
	 Singles Energy            =      -0.0000000000000000 [Eh]
	 Same-Spin Energy          =      -0.2047222229821564 [Eh]
	 Opposite-Spin Energy      =      -0.6173505692049343 [Eh]
	 Correlation Energy        =      -0.8220727921870906 [Eh]
	 Total Energy              =    -612.5510233528617619 [Eh]

	 ================> DF-SCS-MP2 Energies <==================
	-----------------------------------------------------------
	 SCS Same-Spin Scale       =       0.3333333333333333 [-]
	 SCS Opposite-Spin Scale   =       1.2000000000000000 [-]
	 SCS Same-Spin Energy      =      -0.0682407409940521 [Eh]
	 SCS Opposite-Spin Energy  =      -0.7408206830459211 [Eh]
	 SCS Correlation Energy    =      -0.8090614240399732 [Eh]
	 SCS Total Energy          =    -612.5380119847146716 [Eh]
	-----------------------------------------------------------

*** Psi4 exiting successfully. Buy a developer a beer!
