                               Psi4 1.8.2 release

  ==> Input File <==

--------------------------------------------------------------------------
MEMORY 60 GB

molecule dimer {
-1 1
Cl     3.213094     0.000000     0.000000
--
0 1
O      0.000000    -0.107289     1.572847
H     -0.369135     0.578119     1.010976
H      0.913486    -0.160341     1.215831
--
0 1
O      0.000000     0.107289    -1.572847
H     -0.369135    -0.578119    -1.010976
H      0.913486     0.160341    -1.215831

units ang
no_reorient
no_com
symmetry c1
}

set {
basis        aug-cc-pVTZ
scf_type     df
}

energy("mp2", bsse_type="cp")
--------------------------------------------------------------------------

                               Psi4 1.8.2 release
    Molecular point group: c1
  Charge       = -1
  Multiplicity = 1
  Basis Set: AUG-CC-PVTZ
    Blend: AUG-CC-PVTZ
  Basis Set: (AUG-CC-PVTZ AUX)
    Blend: AUG-CC-PVTZ-JKFIT
  @DF-RHF Final Energy:  -459.57351386514785
    Total Energy =                       -459.5735138651477882
 Dipole X            :       -109.2944111          103.2217505           -6.0726606
 Dipole Y            :          0.0000000            0.0000000            0.0000000
 Dipole Z            :          0.0000000            0.0000000            0.0000000
 Magnitude           :                                                    6.0726606
  Basis Set: (AUG-CC-PVTZ AUX)
    Blend: AUG-CC-PVTZ-RI
	 Reference Energy          =    -459.5735138651478451 [Eh]
	 Singles Energy            =      -0.0000000000000000 [Eh]
	 Same-Spin Energy          =      -0.0626712662331881 [Eh]
	 Opposite-Spin Energy      =      -0.1802584934298281 [Eh]
	 Correlation Energy        =      -0.2429297596630162 [Eh]
	 Total Energy              =    -459.8164436248108586 [Eh]
	 SCS Total Energy          =    -459.8107144793413568 [Eh]
                               Psi4 1.8.2 release
    Molecular point group: c1
  Basis Set: AUG-CC-PVTZ
    Blend: AUG-CC-PVTZ
  Basis Set: (AUG-CC-PVTZ AUX)
    Blend: AUG-CC-PVTZ-JKFIT
  @DF-RHF Final Energy:   -76.05859226553468
    Total Energy =                        -76.0585922655346849
  Basis Set: (AUG-CC-PVTZ AUX)
                               Psi4 1.8.2 release
  @DF-RHF Final Energy:  -152.11629093735809
    Total Energy =                       -152.1162909373580874
                               Psi4 1.8.2 release
  @DF-RHF Final Energy:  -535.65076910097275
    Total Energy =                       -535.6507691009727523
                               Psi4 1.8.2 release
  @DF-RHF Final Energy:  -535.65076910094717
    Total Energy =                       -535.6507691009471728
                               Psi4 1.8.2 release
  Multiplicity = 1
  @DF-RHF Final Energy:   -76.05859226554867
    Total Energy =                        -76.0585922655486542
	 Singles Energy            =      -0.0000000000000000 [Eh]
	 Same-Spin Energy          =      -0.0687182932658754 [Eh]
	 Opposite-Spin Energy      =      -0.2167388481754171 [Eh]
	 Correlation Energy        =      -0.2854571414412925 [Eh]
	 Total Energy              =     -76.3440494069899671 [Eh]
	 SCS Total Energy          =     -76.3415849811144653 [Eh]
                               Psi4 1.8.2 release
    Molecular point group: c1

    Geometry (in Bohr), charge = -1, multiplicity = 1:

       Center              X                  Y                   Z               Mass
    ------------   -----------------  -----------------  -----------------  -----------------
         CL           6.071867675352     0.000000000000     0.000000000000    34.968852682000
         O            0.000000000000    -0.202746826274     2.972250067248    15.994914619570
         H           -0.697564053321     1.092486577924     1.910467759411     1.007825032230
         H            1.726238359440    -0.303000576682     2.297587604842     1.007825032230
         O            0.000000000000     0.202746826274    -2.972250067248    15.994914619570
         H           -0.697564053321    -1.092486577924    -1.910467759411     1.007825032230
         H            1.726238359440     0.303000576682    -2.297587604842     1.007825032230

  Charge       = -1
  Multiplicity = 1
  Basis Set: AUG-CC-PVTZ
    Blend: AUG-CC-PVTZ
  Basis Set: (AUG-CC-PVTZ AUX)
    Blend: AUG-CC-PVTZ-JKFIT

    Orbital Energies [Eh]
    ---------------------

    Doubly Occupied:

       1A   -104.545063     2A    -20.419768     3A    -20.419765
       4A    -10.268961     5A     -7.735058     6A     -7.735009
       7A     -7.735002     8A     -1.205096     9A     -1.198114
      10A     -0.776138    11A     -0.557537    12A     -0.551852
      13A     -0.455163    14A     -0.439273    15A     -0.369004
      16A     -0.357623    17A     -0.195394    18A     -0.191451
      19A     -0.189969

  @DF-RHF Final Energy:  -611.72631473163597

   => Energetics <=

    Nuclear Repulsion Energy =             87.7008423765865359
    One-Electron Energy =               -1028.1638333052119378
    Two-Electron Energy =                 328.7366761969894924
    Total Energy =                       -611.7263147316359664
 Dipole X            :       -109.9686003          105.2790991           -4.6895012
 Dipole Y            :          0.0000000            0.0000000            0.0000000
 Dipole Z            :          0.0000000            0.0000000            0.0000000
 Magnitude           :                                                    4.6895012
  Basis Set: (AUG-CC-PVTZ AUX)
    Blend: AUG-CC-PVTZ-RI
	 Reference Energy          =    -611.7263147316359664 [Eh]
	 Singles Energy            =      -0.0000000000000000 [Eh]
	 Same-Spin Energy          =      -0.2034360129706641 [Eh]
	 Opposite-Spin Energy      =      -0.6157568377670272 [Eh]
	 Correlation Energy        =      -0.8191928507376912 [Eh]
	 Total Energy              =    -612.5455075823736024 [Eh]

	 ================> DF-SCS-MP2 Energies <==================
	-----------------------------------------------------------
	 SCS Same-Spin Scale       =       0.3333333333333333 [-]
	 SCS Opposite-Spin Scale   =       1.2000000000000000 [-]
	 SCS Same-Spin Energy      =      -0.0678120043235547 [Eh]
	 SCS Opposite-Spin Energy  =      -0.7389082053204326 [Eh]
	 SCS Correlation Energy    =      -0.8067202096439873 [Eh]
	 SCS Total Energy          =    -612.5330349412799933 [Eh]
	-----------------------------------------------------------

*** Psi4 exiting successfully. Buy a developer a beer!
