                               Psi4 1.8.2 release

  ==> Input File <==

--------------------------------------------------------------------------
MEMORY 60 GB

molecule dimer {
-1 1
Cl         3.213094     0.000000     0.000000
O          0.000000    -0.107289     1.572847
H         -0.369135     0.578119     1.010976
H          0.913486    -0.160341     1.215831
O          0.000000     0.107289    -1.572847
H         -0.369135    -0.578119    -1.010976
H          0.913486     0.160341    -1.215831

units ang
no_reorient
no_com
symmetry c1
}

set {
basis        aug-cc-pVTZ
scf_type     df
}

energy("mp2")
--------------------------------------------------------------------------

    Molecular point group: c1

    Geometry (in Angstrom), charge = -1, multiplicity = 1:

       Center              X                  Y                   Z               Mass
    ------------   -----------------  -----------------  -----------------  -----------------
         CL           3.213094000000     0.000000000000     0.000000000000    34.968852682000
         O            0.000000000000    -0.107289000000     1.572847000000    15.994914619570
         H           -0.369135000000     0.578119000000     1.010976000000     1.007825032230
         H            0.913486000000    -0.160341000000     1.215831000000     1.007825032230
         O            0.000000000000     0.107289000000    -1.572847000000    15.994914619570
         H           -0.369135000000    -0.578119000000    -1.010976000000     1.007825032230
         H            0.913486000000     0.160341000000    -1.215831000000     1.007825032230

  Charge       = -1
  Multiplicity = 1
  Basis Set: AUG-CC-PVTZ
    Blend: AUG-CC-PVTZ
  Basis Set: (AUG-CC-PVTZ AUX)
    Blend: AUG-CC-PVTZ-JKFIT

    Orbital Energies [Eh]
    ---------------------

    Doubly Occupied:

       1A   -104.545063     2A    -20.419768     3A    -20.419765
       4A    -10.268961     5A     -7.735058     6A     -7.735009
       7A     -7.735002     8A     -1.205096     9A     -1.198114
      10A     -0.776138    11A     -0.557537    12A     -0.551852
      13A     -0.455163    14A     -0.439273    15A     -0.369004
      16A     -0.357623    17A     -0.195394    18A     -0.191451
      19A     -0.189969

  @DF-RHF Final Energy:  -611.72631473163563

   => Energetics <=

    Nuclear Repulsion Energy =             87.7008423765865359
    One-Electron Energy =               -1028.1638333052108010
    Two-Electron Energy =                 328.7366761969885829
    Total Energy =                       -611.7263147316357390
 Dipole X            :       -109.9686003          105.2790991           -4.6895012
 Dipole Y            :          0.0000000            0.0000000            0.0000000
 Dipole Z            :          0.0000000            0.0000000            0.0000000
 Magnitude           :                                                    4.6895012
  Basis Set: (AUG-CC-PVTZ AUX)
    Blend: AUG-CC-PVTZ-RI
	 Reference Energy          =    -611.7263147316356253 [Eh]
	 Singles Energy            =      -0.0000000000000000 [Eh]
	 Same-Spin Energy          =      -0.2034360129706629 [Eh]
	 Opposite-Spin Energy      =      -0.6157568377670263 [Eh]
	 Correlation Energy        =      -0.8191928507376891 [Eh]
	 Total Energy              =    -612.5455075823732614 [Eh]

	 ================> DF-SCS-MP2 Energies <==================
	-----------------------------------------------------------
	 SCS Same-Spin Scale       =       0.3333333333333333 [-]
	 SCS Opposite-Spin Scale   =       1.2000000000000000 [-]
	 SCS Same-Spin Energy      =      -0.0678120043235543 [Eh]
	 SCS Opposite-Spin Energy  =      -0.7389082053204316 [Eh]
	 SCS Correlation Energy    =      -0.8067202096439858 [Eh]
	 SCS Total Energy          =    -612.5330349412796522 [Eh]
	-----------------------------------------------------------

*** Psi4 exiting successfully. Buy a developer a beer!
