                               Psi4 1.8.2 release

  ==> Input File <==

--------------------------------------------------------------------------
MEMORY 60 GB

molecule dimer {
-1 1
Cl         2.543699     0.000000     0.000000
O          0.000000    -0.107289     1.572847
H         -0.369135     0.578119     1.010976
H          0.913486    -0.160341     1.215831
O          0.000000     0.107289    -1.572847
H         -0.369135    -0.578119    -1.010976
H          0.913486     0.160341    -1.215831

units ang
no_reorient
no_com
symmetry c1
}

set {
basis        aug-cc-pVTZ
scf_type     df
}

energy("mp2")
--------------------------------------------------------------------------

    Molecular point group: c1

    Geometry (in Angstrom), charge = -1, multiplicity = 1:

       Center              X                  Y                   Z               Mass
    ------------   -----------------  -----------------  -----------------  -----------------
         CL           2.543699000000     0.000000000000     0.000000000000    34.968852682000
         O            0.000000000000    -0.107289000000     1.572847000000    15.994914619570
         H           -0.369135000000     0.578119000000     1.010976000000     1.007825032230
         H            0.913486000000    -0.160341000000     1.215831000000     1.007825032230
         O            0.000000000000     0.107289000000    -1.572847000000    15.994914619570
         H           -0.369135000000    -0.578119000000    -1.010976000000     1.007825032230
         H            0.913486000000     0.160341000000    -1.215831000000     1.007825032230

  Charge       = -1
  Multiplicity = 1
  Basis Set: AUG-CC-PVTZ
    Blend: AUG-CC-PVTZ
  Basis Set: (AUG-CC-PVTZ AUX)
    Blend: AUG-CC-PVTZ-JKFIT

    Orbital Energies [Eh]
    ---------------------

    Doubly Occupied:

       1A   -104.555359     2A    -20.382522     3A    -20.382519
       4A    -10.280973     5A     -7.747070     6A     -7.746999
       7A     -7.746945     8A     -1.172935     9A     -1.165615
      10A     -0.800896    11A     -0.526300    12A     -0.523787
      13A     -0.427283    14A     -0.411715    15A     -0.335919
      16A     -0.324952    17A     -0.210264    18A     -0.209460
      19A     -0.206599

  @DF-RHF Final Energy:  -611.72417452801290

   => Energetics <=

    Nuclear Repulsion Energy =             98.4561448220821234
    One-Electron Energy =               -1050.0444141450989264
    Two-Electron Energy =                 339.8640947950040072
    Total Energy =                       -611.7241745280127816
 Dipole X            :        -86.9901040           83.7745544           -3.2155497
 Dipole Y            :          0.0000000            0.0000000            0.0000000
 Dipole Z            :          0.0000000            0.0000000            0.0000000
 Magnitude           :                                                    3.2155497
  Basis Set: (AUG-CC-PVTZ AUX)
    Blend: AUG-CC-PVTZ-RI
	 Reference Energy          =    -611.7241745280128953 [Eh]
	 Singles Energy            =      -0.0000000000000000 [Eh]
	 Same-Spin Energy          =      -0.2076888270913993 [Eh]
	 Opposite-Spin Energy      =      -0.6207875238522228 [Eh]
	 Correlation Energy        =      -0.8284763509436222 [Eh]
	 Total Energy              =    -612.5526508789565696 [Eh]

	 ================> DF-SCS-MP2 Energies <==================
	-----------------------------------------------------------
	 SCS Same-Spin Scale       =       0.3333333333333333 [-]
	 SCS Opposite-Spin Scale   =       1.2000000000000000 [-]
	 SCS Same-Spin Energy      =      -0.0692296090304664 [Eh]
	 SCS Opposite-Spin Energy  =      -0.7449450286226673 [Eh]
	 SCS Correlation Energy    =      -0.8141746376531338 [Eh]
	 SCS Total Energy          =    -612.5383491656659771 [Eh]
	-----------------------------------------------------------

*** Psi4 exiting successfully. Buy a developer a beer!
