                               Psi4 1.8.2 release

  ==> Input File <==

--------------------------------------------------------------------------
MEMORY 60 GB

molecule dimer {
0 1
Gh(Cl)     3.213094     0.000000     0.000000
O          0.000000    -0.107289     1.572847
H         -0.369135     0.578119     1.010976
H          0.913486    -0.160341     1.215831
Gh(O)      0.000000     0.107289    -1.572847
Gh(H)     -0.369135    -0.578119    -1.010976
Gh(H)      0.913486     0.160341    -1.215831

units ang
no_reorient
no_com
symmetry c1
}

set {
basis        aug-cc-pVTZ
scf_type     df
}

energy("mp2")
--------------------------------------------------------------------------

    Molecular point group: c1

    Geometry (in Angstrom), charge = 0, multiplicity = 1:

       Center              X                  Y                   Z               Mass
    ------------   -----------------  -----------------  -----------------  -----------------
      Gh(CL)          3.213094000000     0.000000000000     0.000000000000    34.968852682000
         O            0.000000000000    -0.107289000000     1.572847000000    15.994914619570
         H           -0.369135000000     0.578119000000     1.010976000000     1.007825032230
         H            0.913486000000    -0.160341000000     1.215831000000     1.007825032230
      Gh(O)           0.000000000000     0.107289000000    -1.572847000000    15.994914619570
      Gh(H)          -0.369135000000    -0.578119000000    -1.010976000000     1.007825032230
      Gh(H)           0.913486000000     0.160341000000    -1.215831000000     1.007825032230

  Charge       = 0
  Multiplicity = 1
  Basis Set: AUG-CC-PVTZ
    Blend: AUG-CC-PVTZ
  Basis Set: (AUG-CC-PVTZ AUX)
    Blend: AUG-CC-PVTZ-JKFIT

    Orbital Energies [Eh]
    ---------------------

    Doubly Occupied:

       1A    -20.571295     2A     -1.349418     3A     -0.702630
       4A     -0.589901     5A     -0.510388

  @DF-RHF Final Energy:   -76.05859226553463

   => Energetics <=

    Nuclear Repulsion Energy =              9.0737435594059122
    One-Electron Energy =                -122.8174051003320812
    Two-Electron Energy =                  37.6850692753915553
    Total Energy =                        -76.0585922655346138
 Dipole X            :         -0.6772521            1.0286743            0.3514222
 Dipole Y            :          1.2469640           -0.8324886            0.4144754
 Dipole Z            :        -28.5861052           27.9860559           -0.6000493
 Magnitude           :                                                    0.8095348
  Basis Set: (AUG-CC-PVTZ AUX)
    Blend: AUG-CC-PVTZ-RI
	 Reference Energy          =     -76.0585922655346280 [Eh]
	 Singles Energy            =      -0.0000000000000000 [Eh]
	 Same-Spin Energy          =      -0.0687182932658620 [Eh]
	 Opposite-Spin Energy      =      -0.2167388481753645 [Eh]
	 Correlation Energy        =      -0.2854571414412265 [Eh]
	 Total Energy              =     -76.3440494069758557 [Eh]

	 ================> DF-SCS-MP2 Energies <==================
	-----------------------------------------------------------
	 SCS Same-Spin Scale       =       0.3333333333333333 [-]
	 SCS Opposite-Spin Scale   =       1.2000000000000000 [-]
	 SCS Same-Spin Energy      =      -0.0229060977552873 [Eh]
	 SCS Opposite-Spin Energy  =      -0.2600866178104373 [Eh]
	 SCS Correlation Energy    =      -0.2829927155657247 [Eh]
	 SCS Total Energy          =     -76.3415849811003540 [Eh]
	-----------------------------------------------------------

*** Psi4 exiting successfully. Buy a developer a beer!
