                               Psi4 1.8.2 release

  ==> Input File <==

--------------------------------------------------------------------------
MEMORY 60 GB

molecule dimer {
-1 1
Cl     2.409820     0.000000     0.000000
--
0 1
O      0.000000    -0.107289     1.572847
H     -0.369135     0.578119     1.010976
H      0.913486    -0.160341     1.215831
--
0 1
O      0.000000     0.107289    -1.572847
H     -0.369135    -0.578119    -1.010976
H      0.913486     0.160341    -1.215831

units ang
no_reorient
no_com
symmetry c1
}

set {
basis        aug-cc-pVTZ
scf_type     df
}

energy("mp2", bsse_type="cp")
--------------------------------------------------------------------------

                               Psi4 1.8.2 release
    Molecular point group: c1
  Charge       = -1
  Multiplicity = 1
  Basis Set: AUG-CC-PVTZ
    Blend: AUG-CC-PVTZ
  Basis Set: (AUG-CC-PVTZ AUX)
    Blend: AUG-CC-PVTZ-JKFIT
  @DF-RHF Final Energy:  -459.57354162496796
    Total Energy =                       -459.5735416249680156
 Dipole X            :        -81.9709703           77.4162968           -4.5546735
 Dipole Y            :          0.0000000            0.0000000            0.0000000
 Dipole Z            :          0.0000000            0.0000000            0.0000000
 Magnitude           :                                                    4.5546735
  Basis Set: (AUG-CC-PVTZ AUX)
    Blend: AUG-CC-PVTZ-RI
	 Reference Energy          =    -459.5735416249679588 [Eh]
	 Singles Energy            =      -0.0000000000000000 [Eh]
	 Same-Spin Energy          =      -0.0632307342821798 [Eh]
	 Opposite-Spin Energy      =      -0.1827428852527957 [Eh]
	 Correlation Energy        =      -0.2459736195349755 [Eh]
	 Total Energy              =    -459.8195152445029521 [Eh]
	 SCS Total Energy          =    -459.8139099986987048 [Eh]
                               Psi4 1.8.2 release
    Molecular point group: c1
  Basis Set: AUG-CC-PVTZ
    Blend: AUG-CC-PVTZ
  Basis Set: (AUG-CC-PVTZ AUX)
    Blend: AUG-CC-PVTZ-JKFIT
  @DF-RHF Final Energy:   -76.05860965831411
    Total Energy =                        -76.0586096583141114
  Basis Set: (AUG-CC-PVTZ AUX)
                               Psi4 1.8.2 release
  @DF-RHF Final Energy:  -152.11632365043766
    Total Energy =                       -152.1163236504376641
                               Psi4 1.8.2 release
  @DF-RHF Final Energy:  -535.64682302796427
    Total Energy =                       -535.6468230279642739
                               Psi4 1.8.2 release
  @DF-RHF Final Energy:  -535.64682302793210
    Total Energy =                       -535.6468230279321006
                               Psi4 1.8.2 release
  Multiplicity = 1
  @DF-RHF Final Energy:   -76.05860965832711
    Total Energy =                        -76.0586096583271143
	 Singles Energy            =      -0.0000000000000000 [Eh]
	 Same-Spin Energy          =      -0.0687329734831408 [Eh]
	 Opposite-Spin Energy      =      -0.2169084970346087 [Eh]
	 Correlation Energy        =      -0.2856414705177495 [Eh]
	 Total Energy              =     -76.3442511288448600 [Eh]
	 SCS Total Energy          =     -76.3418108459296860 [Eh]
                               Psi4 1.8.2 release
    Molecular point group: c1

    Geometry (in Bohr), charge = -1, multiplicity = 1:

       Center              X                  Y                   Z               Mass
    ------------   -----------------  -----------------  -----------------  -----------------
         CL           4.553899811651     0.000000000000     0.000000000000    34.968852682000
         O            0.000000000000    -0.202746826274     2.972250067248    15.994914619570
         H           -0.697564053321     1.092486577924     1.910467759411     1.007825032230
         H            1.726238359440    -0.303000576682     2.297587604842     1.007825032230
         O            0.000000000000     0.202746826274    -2.972250067248    15.994914619570
         H           -0.697564053321    -1.092486577924    -1.910467759411     1.007825032230
         H            1.726238359440     0.303000576682    -2.297587604842     1.007825032230

  Charge       = -1
  Multiplicity = 1
  Basis Set: AUG-CC-PVTZ
    Blend: AUG-CC-PVTZ
  Basis Set: (AUG-CC-PVTZ AUX)
    Blend: AUG-CC-PVTZ-JKFIT

    Orbital Energies [Eh]
    ---------------------

    Doubly Occupied:

       1A   -104.556651     2A    -20.373634     3A    -20.373631
       4A    -10.283044     5A     -7.749126     6A     -7.749048
       7A     -7.748955     8A     -1.166333     9A     -1.158721
      10A     -0.808106    11A     -0.519501    12A     -0.519331
      13A     -0.422001    14A     -0.406940    15A     -0.328597
      16A     -0.317836    17A     -0.213934    18A     -0.210216
      19A     -0.210165

  @DF-RHF Final Energy:  -611.71759953249136

   => Energetics <=

    Nuclear Repulsion Energy =            101.0582922078084636
    One-Electron Energy =               -1055.3202416398169134
    Two-Electron Energy =                 342.5443498995171581
    Total Energy =                       -611.7175995324912492
 Dipole X            :        -82.4007755           79.4736454           -2.9271301
 Dipole Y            :         -0.0000000            0.0000000           -0.0000000
 Dipole Z            :          0.0000000            0.0000000            0.0000000
 Magnitude           :                                                    2.9271301
  Basis Set: (AUG-CC-PVTZ AUX)
    Blend: AUG-CC-PVTZ-RI
	 Reference Energy          =    -611.7175995324913629 [Eh]
	 Singles Energy            =      -0.0000000000000000 [Eh]
	 Same-Spin Energy          =      -0.2090535671829706 [Eh]
	 Opposite-Spin Energy      =      -0.6224027293226249 [Eh]
	 Correlation Energy        =      -0.8314562965055954 [Eh]
	 Total Energy              =    -612.5490558289969840 [Eh]

	 ================> DF-SCS-MP2 Energies <==================
	-----------------------------------------------------------
	 SCS Same-Spin Scale       =       0.3333333333333333 [-]
	 SCS Opposite-Spin Scale   =       1.2000000000000000 [-]
	 SCS Same-Spin Energy      =      -0.0696845223943235 [Eh]
	 SCS Opposite-Spin Energy  =      -0.7468832751871498 [Eh]
	 SCS Correlation Energy    =      -0.8165677975814734 [Eh]
	 SCS Total Energy          =    -612.5341673300728189 [Eh]
	-----------------------------------------------------------

*** Psi4 exiting successfully. Buy a developer a beer!
