                               Psi4 1.8.2 release

  ==> Input File <==

--------------------------------------------------------------------------
MEMORY 60 GB

molecule dimer {
-1 1
Cl     3.748609     0.000000     0.000000
--
0 1
O      0.000000    -0.107289     1.572847
H     -0.369135     0.578119     1.010976
H      0.913486    -0.160341     1.215831
--
0 1
O      0.000000     0.107289    -1.572847
H     -0.369135    -0.578119    -1.010976
H      0.913486     0.160341    -1.215831

units ang
no_reorient
no_com
symmetry c1
}

set {
basis        aug-cc-pVTZ
scf_type     df
}

energy("mp2", bsse_type="cp")
--------------------------------------------------------------------------

                               Psi4 1.8.2 release
    Molecular point group: c1
  Charge       = -1
  Multiplicity = 1
  Basis Set: AUG-CC-PVTZ
    Blend: AUG-CC-PVTZ
  Basis Set: (AUG-CC-PVTZ AUX)
    Blend: AUG-CC-PVTZ-JKFIT
  @DF-RHF Final Energy:  -459.57350139818715
    Total Energy =                       -459.5735013981871475
 Dipole X            :       -127.5091883          120.4253541           -7.0838341
 Dipole Y            :          0.0000000            0.0000000            0.0000000
 Dipole Z            :         -0.0000000            0.0000000           -0.0000000
 Magnitude           :                                                    7.0838341
  Basis Set: (AUG-CC-PVTZ AUX)
    Blend: AUG-CC-PVTZ-RI
	 Reference Energy          =    -459.5735013981871475 [Eh]
	 Singles Energy            =      -0.0000000000000000 [Eh]
	 Same-Spin Energy          =      -0.0624805160762122 [Eh]
	 Opposite-Spin Energy      =      -0.1794024822193486 [Eh]
	 Correlation Energy        =      -0.2418829982955608 [Eh]
	 Total Energy              =    -459.8153843964827274 [Eh]
	 SCS Total Energy          =    -459.8096112155424180 [Eh]
                               Psi4 1.8.2 release
    Molecular point group: c1
  Basis Set: AUG-CC-PVTZ
    Blend: AUG-CC-PVTZ
  Basis Set: (AUG-CC-PVTZ AUX)
    Blend: AUG-CC-PVTZ-JKFIT
  @DF-RHF Final Energy:   -76.05858556875069
    Total Energy =                        -76.0585855687506864
  Basis Set: (AUG-CC-PVTZ AUX)
                               Psi4 1.8.2 release
  @DF-RHF Final Energy:  -152.11627712683114
    Total Energy =                       -152.1162771268311360
                               Psi4 1.8.2 release
  @DF-RHF Final Energy:  -535.64657602214459
    Total Energy =                       -535.6465760221445862
                               Psi4 1.8.2 release
  @DF-RHF Final Energy:  -535.64657602214515
    Total Energy =                       -535.6465760221451546
                               Psi4 1.8.2 release
  Multiplicity = 1
  @DF-RHF Final Energy:   -76.05858556875535
    Total Energy =                        -76.0585855687553476
	 Singles Energy            =      -0.0000000000000000 [Eh]
	 Same-Spin Energy          =      -0.0687092349845130 [Eh]
	 Opposite-Spin Energy      =      -0.2165733228661562 [Eh]
	 Correlation Energy        =      -0.2852825578506692 [Eh]
	 Total Energy              =     -76.3438681266060115 [Eh]
	 SCS Total Energy          =     -76.3413766345229021 [Eh]
                               Psi4 1.8.2 release
    Molecular point group: c1

    Geometry (in Bohr), charge = -1, multiplicity = 1:

       Center              X                  Y                   Z               Mass
    ------------   -----------------  -----------------  -----------------  -----------------
         CL           7.083844361426     0.000000000000     0.000000000000    34.968852682000
         O            0.000000000000    -0.202746826274     2.972250067248    15.994914619570
         H           -0.697564053321     1.092486577924     1.910467759411     1.007825032230
         H            1.726238359440    -0.303000576682     2.297587604842     1.007825032230
         O            0.000000000000     0.202746826274    -2.972250067248    15.994914619570
         H           -0.697564053321    -1.092486577924    -1.910467759411     1.007825032230
         H            1.726238359440     0.303000576682    -2.297587604842     1.007825032230

  Charge       = -1
  Multiplicity = 1
  Basis Set: AUG-CC-PVTZ
    Blend: AUG-CC-PVTZ
  Basis Set: (AUG-CC-PVTZ AUX)
    Blend: AUG-CC-PVTZ-JKFIT

    Orbital Energies [Eh]
    ---------------------

    Doubly Occupied:

       1A   -104.536132     2A    -20.442041     3A    -20.442037
       4A    -10.259826     5A     -7.725905     6A     -7.725852
       7A     -7.725849     8A     -1.226251     9A     -1.219243
      10A     -0.764384    11A     -0.578256    12A     -0.572381
      13A     -0.474967    14A     -0.458914    15A     -0.389906
      16A     -0.378441    17A     -0.183309    18A     -0.180462
      19A     -0.179958

  @DF-RHF Final Energy:  -611.71813760233397

   => Energetics <=

    Nuclear Repulsion Energy =             81.2275491291264586
    One-Electron Energy =               -1014.9631434487741899
    Two-Electron Energy =                 322.0174567173137348
    Total Energy =                       -611.7181376023339681
 Dipole X            :       -128.3417192          122.4827028           -5.8590164
 Dipole Y            :          0.0000000            0.0000000            0.0000000
 Dipole Z            :         -0.0000000            0.0000000           -0.0000000
 Magnitude           :                                                    5.8590164
  Basis Set: (AUG-CC-PVTZ AUX)
    Blend: AUG-CC-PVTZ-RI
	 Reference Energy          =    -611.7181376023339681 [Eh]
	 Singles Energy            =      -0.0000000000000000 [Eh]
	 Same-Spin Energy          =      -0.2019077219289410 [Eh]
	 Opposite-Spin Energy      =      -0.6136437136091920 [Eh]
	 Correlation Energy        =      -0.8155514355381330 [Eh]
	 Total Energy              =    -612.5336890378721364 [Eh]

	 ================> DF-SCS-MP2 Energies <==================
	-----------------------------------------------------------
	 SCS Same-Spin Scale       =       0.3333333333333333 [-]
	 SCS Opposite-Spin Scale   =       1.2000000000000000 [-]
	 SCS Same-Spin Energy      =      -0.0673025739763136 [Eh]
	 SCS Opposite-Spin Energy  =      -0.7363724563310304 [Eh]
	 SCS Correlation Energy    =      -0.8036750303073441 [Eh]
	 SCS Total Energy          =    -612.5218126326412857 [Eh]
	-----------------------------------------------------------

*** Psi4 exiting successfully. Buy a developer a beer!
