                               Psi4 1.8.2 release

  ==> Input File <==

--------------------------------------------------------------------------
MEMORY 60 GB

molecule dimer {
-1 1
Cl         2.543699     0.000000     0.000000
Gh(O)      0.000000    -0.107289     1.572847
Gh(H)     -0.369135     0.578119     1.010976
Gh(H)      0.913486    -0.160341     1.215831
Gh(O)      0.000000     0.107289    -1.572847
Gh(H)     -0.369135    -0.578119    -1.010976
Gh(H)      0.913486     0.160341    -1.215831

units ang
no_reorient
no_com
symmetry c1
}

set {
basis        aug-cc-pVTZ
scf_type     df
}

energy("mp2")
--------------------------------------------------------------------------

    Molecular point group: c1

    Geometry (in Angstrom), charge = -1, multiplicity = 1:

       Center              X                  Y                   Z               Mass
    ------------   -----------------  -----------------  -----------------  -----------------
         CL           2.543699000000     0.000000000000     0.000000000000    34.968852682000
      Gh(O)           0.000000000000    -0.107289000000     1.572847000000    15.994914619570
      Gh(H)          -0.369135000000     0.578119000000     1.010976000000     1.007825032230
      Gh(H)           0.913486000000    -0.160341000000     1.215831000000     1.007825032230
      Gh(O)           0.000000000000     0.107289000000    -1.572847000000    15.994914619570
      Gh(H)          -0.369135000000    -0.578119000000    -1.010976000000     1.007825032230
      Gh(H)           0.913486000000     0.160341000000    -1.215831000000     1.007825032230

  Charge       = -1
  Multiplicity = 1
  Basis Set: AUG-CC-PVTZ
    Blend: AUG-CC-PVTZ
  Basis Set: (AUG-CC-PVTZ AUX)
    Blend: AUG-CC-PVTZ-JKFIT

    Orbital Energies [Eh]
    ---------------------

    Doubly Occupied:

       1A   -104.506810     2A    -10.229956     3A     -7.696046
       4A     -7.695989     5A     -7.695985     6A     -0.733494
       7A     -0.150330     8A     -0.150325     9A     -0.150324

  @DF-RHF Final Energy:  -459.57353490745783

   => Energetics <=

    Nuclear Repulsion Energy =              0.0000000000000000
    One-Electron Energy =                -641.1285654568414429
    Two-Electron Energy =                 181.5550305493836163
    Total Energy =                       -459.5735349074578266
 Dipole X            :        -86.5248747           81.7172057           -4.8076689
 Dipole Y            :          0.0000000            0.0000000            0.0000000
 Dipole Z            :          0.0000000            0.0000000            0.0000000
 Magnitude           :                                                    4.8076689
  Basis Set: (AUG-CC-PVTZ AUX)
    Blend: AUG-CC-PVTZ-RI
	 Reference Energy          =    -459.5735349074578266 [Eh]
	 Singles Energy            =      -0.0000000000000000 [Eh]
	 Same-Spin Energy          =      -0.0631036429274357 [Eh]
	 Opposite-Spin Energy      =      -0.1821790069598403 [Eh]
	 Correlation Energy        =      -0.2452826498872759 [Eh]
	 Total Energy              =    -459.8188175573450849 [Eh]

	 ================> DF-SCS-MP2 Energies <==================
	-----------------------------------------------------------
	 SCS Same-Spin Scale       =       0.3333333333333333 [-]
	 SCS Opposite-Spin Scale   =       1.2000000000000000 [-]
	 SCS Same-Spin Energy      =      -0.0210345476424786 [Eh]
	 SCS Opposite-Spin Energy  =      -0.2186148083518084 [Eh]
	 SCS Correlation Energy    =      -0.2396493559942869 [Eh]
	 SCS Total Energy          =    -459.8131842634521149 [Eh]
	-----------------------------------------------------------

*** Psi4 exiting successfully. Buy a developer a beer!
