                               Psi4 1.8.2 release

  ==> Input File <==

--------------------------------------------------------------------------
MEMORY 60 GB

molecule dimer {
-1 1
Cl         2.677578     0.000000     0.000000
O          0.000000    -0.107289     1.572847
H         -0.369135     0.578119     1.010976
H          0.913486    -0.160341     1.215831
O          0.000000     0.107289    -1.572847
H         -0.369135    -0.578119    -1.010976
H          0.913486     0.160341    -1.215831

units ang
no_reorient
no_com
symmetry c1
}

set {
basis        aug-cc-pVTZ
scf_type     df
}

energy("mp2")
--------------------------------------------------------------------------

    Molecular point group: c1

    Geometry (in Angstrom), charge = -1, multiplicity = 1:

       Center              X                  Y                   Z               Mass
    ------------   -----------------  -----------------  -----------------  -----------------
         CL           2.677578000000     0.000000000000     0.000000000000    34.968852682000
         O            0.000000000000    -0.107289000000     1.572847000000    15.994914619570
         H           -0.369135000000     0.578119000000     1.010976000000     1.007825032230
         H            0.913486000000    -0.160341000000     1.215831000000     1.007825032230
         O            0.000000000000     0.107289000000    -1.572847000000    15.994914619570
         H           -0.369135000000    -0.578119000000    -1.010976000000     1.007825032230
         H            0.913486000000     0.160341000000    -1.215831000000     1.007825032230

  Charge       = -1
  Multiplicity = 1
  Basis Set: AUG-CC-PVTZ
    Blend: AUG-CC-PVTZ
  Basis Set: (AUG-CC-PVTZ AUX)
    Blend: AUG-CC-PVTZ-JKFIT

    Orbital Energies [Eh]
    ---------------------

    Doubly Occupied:

       1A   -104.553690     2A    -20.390930     3A    -20.390927
       4A    -10.278714     5A     -7.744819     6A     -7.744755
       7A     -7.744724     8A     -1.179655     9A     -1.172503
      10A     -0.794581    11A     -0.532944    12A     -0.529020
      13A     -0.432811    14A     -0.417023    15A     -0.343095
      16A     -0.331985    17A     -0.207628    18A     -0.206296
      19A     -0.202964

  @DF-RHF Final Energy:  -611.72767900045028

   => Energetics <=

    Nuclear Repulsion Energy =             96.0176542913279718
    One-Electron Energy =               -1045.0925388656405630
    Two-Electron Energy =                 337.3472055738624249
    Total Energy =                       -611.7276790004501663
 Dipole X            :        -91.5834423           88.0754633           -3.5079790
 Dipole Y            :         -0.0000000            0.0000000           -0.0000000
 Dipole Z            :         -0.0000000            0.0000000           -0.0000000
 Magnitude           :                                                    3.5079790
  Basis Set: (AUG-CC-PVTZ AUX)
    Blend: AUG-CC-PVTZ-RI
	 Reference Energy          =    -611.7276790004502800 [Eh]
	 Singles Energy            =      -0.0000000000000000 [Eh]
	 Same-Spin Energy          =      -0.2065316934545268 [Eh]
	 Opposite-Spin Energy      =      -0.6194492410565061 [Eh]
	 Correlation Energy        =      -0.8259809345110329 [Eh]
	 Total Energy              =    -612.5536599349612743 [Eh]

	 ================> DF-SCS-MP2 Energies <==================
	-----------------------------------------------------------
	 SCS Same-Spin Scale       =       0.3333333333333333 [-]
	 SCS Opposite-Spin Scale   =       1.2000000000000000 [-]
	 SCS Same-Spin Energy      =      -0.0688438978181756 [Eh]
	 SCS Opposite-Spin Energy  =      -0.7433390892678073 [Eh]
	 SCS Correlation Energy    =      -0.8121829870859829 [Eh]
	 SCS Total Energy          =    -612.5398619875362556 [Eh]
	-----------------------------------------------------------

*** Psi4 exiting successfully. Buy a developer a beer!
