                               Psi4 1.8.2 release

  ==> Input File <==

--------------------------------------------------------------------------
MEMORY 60 GB

molecule dimer {
-1 1
Cl     4.016367     0.000000     0.000000
--
0 1
O      0.000000    -0.107289     1.572847
H     -0.369135     0.578119     1.010976
H      0.913486    -0.160341     1.215831
--
0 1
O      0.000000     0.107289    -1.572847
H     -0.369135    -0.578119    -1.010976
H      0.913486     0.160341    -1.215831

units ang
no_reorient
no_com
symmetry c1
}

set {
basis        aug-cc-pVTZ
scf_type     df
}

energy("mp2", bsse_type="cp")
--------------------------------------------------------------------------

                               Psi4 1.8.2 release
    Molecular point group: c1
  Charge       = -1
  Multiplicity = 1
  Basis Set: AUG-CC-PVTZ
    Blend: AUG-CC-PVTZ
  Basis Set: (AUG-CC-PVTZ AUX)
    Blend: AUG-CC-PVTZ-JKFIT
  @DF-RHF Final Energy:  -459.57349772019825
    Total Energy =                       -459.5734977201982474
 Dipole X            :       -136.6165679          129.0271720           -7.5893959
 Dipole Y            :          0.0000000            0.0000000            0.0000000
 Dipole Z            :         -0.0000000            0.0000000           -0.0000000
 Magnitude           :                                                    7.5893959
  Basis Set: (AUG-CC-PVTZ AUX)
    Blend: AUG-CC-PVTZ-RI
	 Reference Energy          =    -459.5734977201982474 [Eh]
	 Singles Energy            =      -0.0000000000000000 [Eh]
	 Same-Spin Energy          =      -0.0624196826667635 [Eh]
	 Opposite-Spin Energy      =      -0.1791594939193674 [Eh]
	 Correlation Energy        =      -0.2415791765861309 [Eh]
	 Total Energy              =    -459.8150768967843760 [Eh]
	 SCS Total Energy          =    -459.8092956737904160 [Eh]
                               Psi4 1.8.2 release
    Molecular point group: c1
  Basis Set: AUG-CC-PVTZ
    Blend: AUG-CC-PVTZ
  Basis Set: (AUG-CC-PVTZ AUX)
    Blend: AUG-CC-PVTZ-JKFIT
  @DF-RHF Final Energy:   -76.05858373960348
    Total Energy =                        -76.0585837396034776
  Basis Set: (AUG-CC-PVTZ AUX)
                               Psi4 1.8.2 release
  @DF-RHF Final Energy:  -152.11627319254180
    Total Energy =                       -152.1162731925418257
                               Psi4 1.8.2 release
  @DF-RHF Final Energy:  -535.64463672245415
    Total Energy =                       -535.6446367224541518
                               Psi4 1.8.2 release
  @DF-RHF Final Energy:  -535.64463672248462
    Total Energy =                       -535.6446367224846199
                               Psi4 1.8.2 release
  Multiplicity = 1
  @DF-RHF Final Energy:   -76.05858373958556
    Total Energy =                        -76.0585837395855577
	 Singles Energy            =      -0.0000000000000000 [Eh]
	 Same-Spin Energy          =      -0.0687054208034179 [Eh]
	 Opposite-Spin Energy      =      -0.2165047808085302 [Eh]
	 Correlation Energy        =      -0.2852102016119481 [Eh]
	 Total Energy              =     -76.3437939411975037 [Eh]
	 SCS Total Energy          =     -76.3412912834902642 [Eh]
                               Psi4 1.8.2 release
    Molecular point group: c1

    Geometry (in Bohr), charge = -1, multiplicity = 1:

       Center              X                  Y                   Z               Mass
    ------------   -----------------  -----------------  -----------------  -----------------
         CL           7.589833649327     0.000000000000     0.000000000000    34.968852682000
         O            0.000000000000    -0.202746826274     2.972250067248    15.994914619570
         H           -0.697564053321     1.092486577924     1.910467759411     1.007825032230
         H            1.726238359440    -0.303000576682     2.297587604842     1.007825032230
         O            0.000000000000     0.202746826274    -2.972250067248    15.994914619570
         H           -0.697564053321    -1.092486577924    -1.910467759411     1.007825032230
         H            1.726238359440     0.303000576682    -2.297587604842     1.007825032230

  Charge       = -1
  Multiplicity = 1
  Basis Set: AUG-CC-PVTZ
    Blend: AUG-CC-PVTZ
  Basis Set: (AUG-CC-PVTZ AUX)
    Blend: AUG-CC-PVTZ-JKFIT

    Orbital Energies [Eh]
    ---------------------

    Doubly Occupied:

       1A   -104.532187     2A    -20.451220     3A    -20.451216
       4A    -10.255890     5A     -7.721964     6A     -7.721909
       7A     -7.721907     8A     -1.235167     9A     -1.228141
      10A     -0.759996    11A     -0.587102    12A     -0.581202
      13A     -0.483500    14A     -0.467327    15A     -0.398660
      16A     -0.387177    17A     -0.178444    18A     -0.176241
      19A     -0.175959

  @DF-RHF Final Energy:  -611.71430909559842

   => Energetics <=

    Nuclear Repulsion Energy =             78.5213252264774582
    One-Electron Energy =               -1009.4408483551743529
    Two-Electron Energy =                 319.2052140330986276
    Total Energy =                       -611.7143090955983098
 Dipole X            :       -137.5182341          131.0845207           -6.4337135
 Dipole Y            :          0.0000000            0.0000000            0.0000000
 Dipole Z            :         -0.0000000            0.0000000           -0.0000000
 Magnitude           :                                                    6.4337135
  Basis Set: (AUG-CC-PVTZ AUX)
    Blend: AUG-CC-PVTZ-RI
	 Reference Energy          =    -611.7143090955984235 [Eh]
	 Singles Energy            =      -0.0000000000000000 [Eh]
	 Same-Spin Energy          =      -0.2014726163274510 [Eh]
	 Opposite-Spin Energy      =      -0.6130196432286938 [Eh]
	 Correlation Energy        =      -0.8144922595561449 [Eh]
	 Total Energy              =    -612.5288013551545419 [Eh]

	 ================> DF-SCS-MP2 Energies <==================
	-----------------------------------------------------------
	 SCS Same-Spin Scale       =       0.3333333333333333 [-]
	 SCS Opposite-Spin Scale   =       1.2000000000000000 [-]
	 SCS Same-Spin Energy      =      -0.0671575387758170 [Eh]
	 SCS Opposite-Spin Energy  =      -0.7356235718744326 [Eh]
	 SCS Correlation Energy    =      -0.8027811106502496 [Eh]
	 SCS Total Energy          =    -612.5170902062486675 [Eh]
	-----------------------------------------------------------

*** Psi4 exiting successfully. Buy a developer a beer!
