                               Psi4 1.9 release

  ==> Input File <==

--------------------------------------------------------------------------
MEMORY 60 GB

molecule dimer {
-1 1
Cl     4.016367     0.000000     0.000000
--
0 1
O      0.000000    -0.107289     1.572847
H     -0.369135     0.578119     1.010976
H      0.913486    -0.160341     1.215831
O      0.000000     0.107289    -1.572847
H     -0.369135    -0.578119    -1.010976
H      0.913486     0.160341    -1.215831

units ang
no_reorient
no_com
symmetry c1
}

set {
basis        aug-cc-pVTZ
scf_type     df
}

energy("mp2", bsse_type="cp")
--------------------------------------------------------------------------

                               Psi4 1.9 release
    Molecular point group: c1
  Charge       = 0
  Multiplicity = 1
  Basis Set: AUG-CC-PVTZ
    Blend: AUG-CC-PVTZ
  Basis Set: (AUG-CC-PVTZ AUX)
    Blend: AUG-CC-PVTZ-JKFIT
  @DF-RHF Final Energy:  -152.11627319255956
    Total Energy =                       -152.1162731925595608
 Dipole X            :         -1.3930790            2.0573486            0.6642696
 Dipole Y            :          0.0000000            0.0000000            0.0000000
 Dipole Z            :         -0.0000000            0.0000000           -0.0000000
 Magnitude           :                                                    0.6642696
  Basis Set: (AUG-CC-PVTZ AUX)
    Blend: AUG-CC-PVTZ-RI
	 Reference Energy          =    -152.1162731925595608 [Eh]
	 Singles Energy            =      -0.0000000000000000 [Eh]
	 Same-Spin Energy          =      -0.1383066215848012 [Eh]
	 Opposite-Spin Energy      =      -0.4338157604945306 [Eh]
	 Correlation Energy        =      -0.5721223820793317 [Eh]
	 Total Energy              =    -152.6883955746388892 [Eh]
	 SCS Total Energy          =    -152.6829543123479311 [Eh]
                               Psi4 1.9 release
    Molecular point group: c1
  Multiplicity = 1
  Basis Set: AUG-CC-PVTZ
    Blend: AUG-CC-PVTZ
  Basis Set: (AUG-CC-PVTZ AUX)
    Blend: AUG-CC-PVTZ-JKFIT
  @DF-RHF Final Energy:  -459.57349772019114
    Total Energy =                       -459.5734977201910851
  Basis Set: (AUG-CC-PVTZ AUX)
	 Singles Energy            =      -0.0000000000000000 [Eh]
	 Same-Spin Energy          =      -0.0624196826667756 [Eh]
	 Opposite-Spin Energy      =      -0.1791594939193871 [Eh]
	 Correlation Energy        =      -0.2415791765861627 [Eh]
	 Total Energy              =    -459.8150768967773274 [Eh]
	 SCS Total Energy          =    -459.8092956737833106 [Eh]
                               Psi4 1.9 release
    Molecular point group: c1

    Geometry (in Bohr), charge = -1, multiplicity = 1:

       Center              X                  Y                   Z               Mass
    ------------   -----------------  -----------------  -----------------  -----------------
         CL           7.589833649327     0.000000000000     0.000000000000    34.968852682000
         O            0.000000000000    -0.202746826274     2.972250067248    15.994914619570
         H           -0.697564053321     1.092486577924     1.910467759411     1.007825032230
         H            1.726238359440    -0.303000576682     2.297587604842     1.007825032230
         O            0.000000000000     0.202746826274    -2.972250067248    15.994914619570
         H           -0.697564053321    -1.092486577924    -1.910467759411     1.007825032230
         H            1.726238359440     0.303000576682    -2.297587604842     1.007825032230

  Charge       = -1
  Multiplicity = 1
  Basis Set: AUG-CC-PVTZ
    Blend: AUG-CC-PVTZ
  Basis Set: (AUG-CC-PVTZ AUX)
    Blend: AUG-CC-PVTZ-JKFIT

    Orbital Energies [Eh]
    ---------------------

    Doubly Occupied:

       1A   -104.532187     2A    -20.451220     3A    -20.451216
       4A    -10.255890     5A     -7.721964     6A     -7.721909
       7A     -7.721907     8A     -1.235167     9A     -1.228141
      10A     -0.759996    11A     -0.587102    12A     -0.581202
      13A     -0.483500    14A     -0.467327    15A     -0.398660
      16A     -0.387177    17A     -0.178444    18A     -0.176241
      19A     -0.175959

  @DF-RHF Final Energy:  -611.71430909561593

   => Energetics <=

    Nuclear Repulsion Energy =             78.5213252264774582
    One-Electron Energy =               -1009.4408483551711697
    Two-Electron Energy =                 319.2052140330778229
    Total Energy =                       -611.7143090956159313
 Dipole X            :       -137.5182341          131.0845207           -6.4337135
 Dipole Y            :          0.0000000            0.0000000            0.0000000
 Dipole Z            :         -0.0000000            0.0000000           -0.0000000
 Magnitude           :                                                    6.4337135
  Basis Set: (AUG-CC-PVTZ AUX)
    Blend: AUG-CC-PVTZ-RI
	 Reference Energy          =    -611.7143090956159313 [Eh]
	 Singles Energy            =      -0.0000000000000000 [Eh]
	 Same-Spin Energy          =      -0.2014726163273674 [Eh]
	 Opposite-Spin Energy      =      -0.6130196432286426 [Eh]
	 Correlation Energy        =      -0.8144922595560100 [Eh]
	 Total Energy              =    -612.5288013551719359 [Eh]

	 ================> DF-SCS-MP2 Energies <==================
	-----------------------------------------------------------
	 SCS Same-Spin Scale       =       0.3333333333333333 [-]
	 SCS Opposite-Spin Scale   =       1.2000000000000000 [-]
	 SCS Same-Spin Energy      =      -0.0671575387757891 [Eh]
	 SCS Opposite-Spin Energy  =      -0.7356235718743710 [Eh]
	 SCS Correlation Energy    =      -0.8027811106501601 [Eh]
	 SCS Total Energy          =    -612.5170902062660616 [Eh]
	-----------------------------------------------------------

*** Psi4 exiting successfully. Buy a developer a beer!
