                               Psi4 1.9 release

  ==> Input File <==

--------------------------------------------------------------------------
MEMORY 60 GB

molecule dimer {
-1 1
Cl     2.811457     0.000000     0.000000
--
0 1
O      0.000000    -0.107289     1.572847
H     -0.369135     0.578119     1.010976
H      0.913486    -0.160341     1.215831
O      0.000000     0.107289    -1.572847
H     -0.369135    -0.578119    -1.010976
H      0.913486     0.160341    -1.215831

units ang
no_reorient
no_com
symmetry c1
}

set {
basis        aug-cc-pVTZ
scf_type     df
}

energy("mp2", bsse_type="cp")
--------------------------------------------------------------------------

                               Psi4 1.9 release
    Molecular point group: c1
  Charge       = 0
  Multiplicity = 1
  Basis Set: AUG-CC-PVTZ
    Blend: AUG-CC-PVTZ
  Basis Set: (AUG-CC-PVTZ AUX)
    Blend: AUG-CC-PVTZ-JKFIT
  @DF-RHF Final Energy:  -152.11630187263589
    Total Energy =                       -152.1163018726358871
 Dipole X            :         -1.3929274            2.0573486            0.6644212
 Dipole Y            :          0.0000000            0.0000000            0.0000000
 Dipole Z            :         -0.0000000            0.0000000           -0.0000000
 Magnitude           :                                                    0.6644212
  Basis Set: (AUG-CC-PVTZ AUX)
    Blend: AUG-CC-PVTZ-RI
	 Reference Energy          =    -152.1163018726358871 [Eh]
	 Singles Energy            =      -0.0000000000000000 [Eh]
	 Same-Spin Energy          =      -0.1383463249254033 [Eh]
	 Opposite-Spin Energy      =      -0.4344557113244466 [Eh]
	 Correlation Energy        =      -0.5728020362498499 [Eh]
	 Total Energy              =    -152.6891039088857269 [Eh]
	 SCS Total Energy          =    -152.6837641678670252 [Eh]
                               Psi4 1.9 release
    Molecular point group: c1
  Multiplicity = 1
  Basis Set: AUG-CC-PVTZ
    Blend: AUG-CC-PVTZ
  Basis Set: (AUG-CC-PVTZ AUX)
    Blend: AUG-CC-PVTZ-JKFIT
  @DF-RHF Final Energy:  -459.57352681651707
    Total Energy =                       -459.5735268165170737
  Basis Set: (AUG-CC-PVTZ AUX)
	 Singles Energy            =      -0.0000000000000000 [Eh]
	 Same-Spin Energy          =      -0.0629030375635766 [Eh]
	 Opposite-Spin Energy      =      -0.1812855495477397 [Eh]
	 Correlation Energy        =      -0.2441885871113163 [Eh]
	 Total Energy              =    -459.8177154036283696 [Eh]
	 SCS Total Energy          =    -459.8120371551622156 [Eh]
                               Psi4 1.9 release
    Molecular point group: c1

    Geometry (in Bohr), charge = -1, multiplicity = 1:

       Center              X                  Y                   Z               Mass
    ------------   -----------------  -----------------  -----------------  -----------------
         CL           5.312883743501     0.000000000000     0.000000000000    34.968852682000
         O            0.000000000000    -0.202746826274     2.972250067248    15.994914619570
         H           -0.697564053321     1.092486577924     1.910467759411     1.007825032230
         H            1.726238359440    -0.303000576682     2.297587604842     1.007825032230
         O            0.000000000000     0.202746826274    -2.972250067248    15.994914619570
         H           -0.697564053321    -1.092486577924    -1.910467759411     1.007825032230
         H            1.726238359440     0.303000576682    -2.297587604842     1.007825032230

  Charge       = -1
  Multiplicity = 1
  Basis Set: AUG-CC-PVTZ
    Blend: AUG-CC-PVTZ
  Basis Set: (AUG-CC-PVTZ AUX)
    Blend: AUG-CC-PVTZ-JKFIT

    Orbital Energies [Eh]
    ---------------------

    Doubly Occupied:

       1A   -104.551747     2A    -20.398845     3A    -20.398842
       4A    -10.276333     5A     -7.742441     6A     -7.742383
       7A     -7.742365     8A     -1.186319     9A     -1.179261
      10A     -0.789059    11A     -0.539411    12A     -0.534652
      13A     -0.438459    14A     -0.422597    15A     -0.350029
      16A     -0.338817    17A     -0.205036    18A     -0.202302
      19A     -0.199445

  @DF-RHF Final Energy:  -611.72903938566742

   => Energetics <=

    Nuclear Repulsion Energy =             93.7329994416799508
    One-Electron Energy =               -1040.4473885228535437
    Two-Electron Energy =                 334.9853496955062155
    Total Energy =                       -611.7290393856674200
 Dipole X            :        -96.1790180           92.3763723           -3.8026458
 Dipole Y            :          0.0000000            0.0000000            0.0000000
 Dipole Z            :         -0.0000000            0.0000000           -0.0000000
 Magnitude           :                                                    3.8026458
  Basis Set: (AUG-CC-PVTZ AUX)
    Blend: AUG-CC-PVTZ-RI
	 Reference Energy          =    -611.7290393856674200 [Eh]
	 Singles Energy            =      -0.0000000000000000 [Eh]
	 Same-Spin Energy          =      -0.2055515298191976 [Eh]
	 Opposite-Spin Energy      =      -0.6183213359152671 [Eh]
	 Correlation Energy        =      -0.8238728657344646 [Eh]
	 Total Energy              =    -612.5529122514018354 [Eh]

	 ================> DF-SCS-MP2 Energies <==================
	-----------------------------------------------------------
	 SCS Same-Spin Scale       =       0.3333333333333333 [-]
	 SCS Opposite-Spin Scale   =       1.2000000000000000 [-]
	 SCS Same-Spin Energy      =      -0.0685171766063992 [Eh]
	 SCS Opposite-Spin Energy  =      -0.7419856030983204 [Eh]
	 SCS Correlation Energy    =      -0.8105027797047196 [Eh]
	 SCS Total Energy          =    -612.5395421653721542 [Eh]
	-----------------------------------------------------------

*** Psi4 exiting successfully. Buy a developer a beer!
