                               Psi4 1.9 release

  ==> Input File <==

--------------------------------------------------------------------------
MEMORY 60 GB

molecule dimer {
-1 1
Cl     2.945336     0.000000     0.000000
--
0 1
O      0.000000    -0.107289     1.572847
H     -0.369135     0.578119     1.010976
H      0.913486    -0.160341     1.215831
O      0.000000     0.107289    -1.572847
H     -0.369135    -0.578119    -1.010976
H      0.913486     0.160341    -1.215831

units ang
no_reorient
no_com
symmetry c1
}

set {
basis        aug-cc-pVTZ
scf_type     df
}

energy("mp2", bsse_type="cp")
--------------------------------------------------------------------------

                               Psi4 1.9 release
    Molecular point group: c1
  Charge       = 0
  Multiplicity = 1
  Basis Set: AUG-CC-PVTZ
    Blend: AUG-CC-PVTZ
  Basis Set: (AUG-CC-PVTZ AUX)
    Blend: AUG-CC-PVTZ-JKFIT
  @DF-RHF Final Energy:  -152.11629772582484
    Total Energy =                       -152.1162977258248361
 Dipole X            :         -1.3929757            2.0573486            0.6643729
 Dipole Y            :         -0.0000000            0.0000000           -0.0000000
 Dipole Z            :          0.0000000            0.0000000            0.0000000
 Magnitude           :                                                    0.6643729
  Basis Set: (AUG-CC-PVTZ AUX)
    Blend: AUG-CC-PVTZ-RI
	 Reference Energy          =    -152.1162977258248361 [Eh]
	 Singles Energy            =      -0.0000000000000000 [Eh]
	 Same-Spin Energy          =      -0.1383417816140855 [Eh]
	 Opposite-Spin Energy      =      -0.4344099131755224 [Eh]
	 Correlation Energy        =      -0.5727516947896079 [Eh]
	 Total Energy              =    -152.6890494206144524 [Eh]
	 SCS Total Energy          =    -152.6837035488401568 [Eh]
                               Psi4 1.9 release
    Molecular point group: c1
  Multiplicity = 1
  Basis Set: AUG-CC-PVTZ
    Blend: AUG-CC-PVTZ
  Basis Set: (AUG-CC-PVTZ AUX)
    Blend: AUG-CC-PVTZ-JKFIT
  @DF-RHF Final Energy:  -459.57352279240439
    Total Energy =                       -459.5735227924043329
  Basis Set: (AUG-CC-PVTZ AUX)
	 Singles Energy            =      -0.0000000000000000 [Eh]
	 Same-Spin Energy          =      -0.0628171729781022 [Eh]
	 Opposite-Spin Energy      =      -0.1809073457942178 [Eh]
	 Correlation Energy        =      -0.2437245187723199 [Eh]
	 Total Energy              =    -459.8172473111766863 [Eh]
	 SCS Total Energy          =    -459.8115506650167958 [Eh]
                               Psi4 1.9 release
    Molecular point group: c1

    Geometry (in Bohr), charge = -1, multiplicity = 1:

       Center              X                  Y                   Z               Mass
    ------------   -----------------  -----------------  -----------------  -----------------
         CL           5.565878387451     0.000000000000     0.000000000000    34.968852682000
         O            0.000000000000    -0.202746826274     2.972250067248    15.994914619570
         H           -0.697564053321     1.092486577924     1.910467759411     1.007825032230
         H            1.726238359440    -0.303000576682     2.297587604842     1.007825032230
         O            0.000000000000     0.202746826274    -2.972250067248    15.994914619570
         H           -0.697564053321    -1.092486577924    -1.910467759411     1.007825032230
         H            1.726238359440     0.303000576682    -2.297587604842     1.007825032230

  Charge       = -1
  Multiplicity = 1
  Basis Set: AUG-CC-PVTZ
    Blend: AUG-CC-PVTZ
  Basis Set: (AUG-CC-PVTZ AUX)
    Blend: AUG-CC-PVTZ-JKFIT

    Orbital Energies [Eh]
    ---------------------

    Doubly Occupied:

       1A   -104.549614     2A    -20.406275     3A    -20.406271
       4A    -10.273885     5A     -7.739990     6A     -7.739938
       7A     -7.739926     8A     -1.192820     9A     -1.185809
      10A     -0.784214    11A     -0.545679    12A     -0.540432
      13A     -0.444119    14A     -0.428242    15A     -0.356672
      16A     -0.345386    17A     -0.201989    18A     -0.198449
      19A     -0.196095

  @DF-RHF Final Energy:  -611.72895056075981

   => Energetics <=

    Nuclear Repulsion Energy =             91.5919957991238931
    One-Electron Energy =               -1036.0902775938334344
    Two-Electron Energy =                 332.7693312339496856
    Total Energy =                       -611.7289505607598130
 Dipole X            :       -100.7755968           96.6772812           -4.0983156
 Dipole Y            :         -0.0000000            0.0000000           -0.0000000
 Dipole Z            :          0.0000000            0.0000000            0.0000000
 Magnitude           :                                                    4.0983156
  Basis Set: (AUG-CC-PVTZ AUX)
    Blend: AUG-CC-PVTZ-RI
	 Reference Energy          =    -611.7289505607598130 [Eh]
	 Singles Energy            =      -0.0000000000000000 [Eh]
	 Same-Spin Energy          =      -0.2047222229821352 [Eh]
	 Opposite-Spin Energy      =      -0.6173505692047599 [Eh]
	 Correlation Energy        =      -0.8220727921868951 [Eh]
	 Total Energy              =    -612.5510233529466859 [Eh]

	 ================> DF-SCS-MP2 Energies <==================
	-----------------------------------------------------------
	 SCS Same-Spin Scale       =       0.3333333333333333 [-]
	 SCS Opposite-Spin Scale   =       1.2000000000000000 [-]
	 SCS Same-Spin Energy      =      -0.0682407409940451 [Eh]
	 SCS Opposite-Spin Energy  =      -0.7408206830457119 [Eh]
	 SCS Correlation Energy    =      -0.8090614240397570 [Eh]
	 SCS Total Energy          =    -612.5380119847995957 [Eh]
	-----------------------------------------------------------

*** Psi4 exiting successfully. Buy a developer a beer!
