                               Psi4 1.8.2 release

  ==> Input File <==

--------------------------------------------------------------------------
MEMORY 60 GB

molecule dimer {
0 1
Gh(Cl)     2.409820     0.000000     0.000000
O          0.000000    -0.107289     1.572847
H         -0.369135     0.578119     1.010976
H          0.913486    -0.160341     1.215831
Gh(O)      0.000000     0.107289    -1.572847
Gh(H)     -0.369135    -0.578119    -1.010976
Gh(H)      0.913486     0.160341    -1.215831

units ang
no_reorient
no_com
symmetry c1
}

set {
basis        aug-cc-pVTZ
scf_type     df
}

energy("mp2")
--------------------------------------------------------------------------

    Molecular point group: c1

    Geometry (in Angstrom), charge = 0, multiplicity = 1:

       Center              X                  Y                   Z               Mass
    ------------   -----------------  -----------------  -----------------  -----------------
      Gh(CL)          2.409820000000     0.000000000000     0.000000000000    34.968852682000
         O            0.000000000000    -0.107289000000     1.572847000000    15.994914619570
         H           -0.369135000000     0.578119000000     1.010976000000     1.007825032230
         H            0.913486000000    -0.160341000000     1.215831000000     1.007825032230
      Gh(O)           0.000000000000     0.107289000000    -1.572847000000    15.994914619570
      Gh(H)          -0.369135000000    -0.578119000000    -1.010976000000     1.007825032230
      Gh(H)           0.913486000000     0.160341000000    -1.215831000000     1.007825032230

  Charge       = 0
  Multiplicity = 1
  Basis Set: AUG-CC-PVTZ
    Blend: AUG-CC-PVTZ
  Basis Set: (AUG-CC-PVTZ AUX)
    Blend: AUG-CC-PVTZ-JKFIT

    Orbital Energies [Eh]
    ---------------------

    Doubly Occupied:

       1A    -20.571264     2A     -1.349397     3A     -0.702612
       4A     -0.589882     5A     -0.510380

  @DF-RHF Final Energy:   -76.05860965831391

   => Energetics <=

    Nuclear Repulsion Energy =              9.0737435594059122
    One-Electron Energy =                -122.8176328919638252
    Two-Electron Energy =                  37.6852796742440077
    Total Energy =                        -76.0586096583139124
 Dipole X            :         -0.6770955            1.0286743            0.3515788
 Dipole Y            :          1.2469694           -0.8324886            0.4144808
 Dipole Z            :        -28.5859895           27.9860559           -0.5999336
 Magnitude           :                                                    0.8095198
  Basis Set: (AUG-CC-PVTZ AUX)
    Blend: AUG-CC-PVTZ-RI
	 Reference Energy          =     -76.0586096583139124 [Eh]
	 Singles Energy            =      -0.0000000000000000 [Eh]
	 Same-Spin Energy          =      -0.0687329734831296 [Eh]
	 Opposite-Spin Energy      =      -0.2169084970346455 [Eh]
	 Correlation Energy        =      -0.2856414705177751 [Eh]
	 Total Energy              =     -76.3442511288316865 [Eh]

	 ================> DF-SCS-MP2 Energies <==================
	-----------------------------------------------------------
	 SCS Same-Spin Scale       =       0.3333333333333333 [-]
	 SCS Opposite-Spin Scale   =       1.2000000000000000 [-]
	 SCS Same-Spin Energy      =      -0.0229109911610432 [Eh]
	 SCS Opposite-Spin Energy  =      -0.2602901964415746 [Eh]
	 SCS Correlation Energy    =      -0.2832011876026178 [Eh]
	 SCS Total Energy          =     -76.3418108459165268 [Eh]
	-----------------------------------------------------------

*** Psi4 exiting successfully. Buy a developer a beer!
