                               Psi4 1.8.2 release

  ==> Input File <==

--------------------------------------------------------------------------
MEMORY 60 GB

molecule dimer {
-1 1
Cl         4.016367     0.000000     0.000000
Gh(O)      0.000000    -0.107289     1.572847
Gh(H)     -0.369135     0.578119     1.010976
Gh(H)      0.913486    -0.160341     1.215831
Gh(O)      0.000000     0.107289    -1.572847
Gh(H)     -0.369135    -0.578119    -1.010976
Gh(H)      0.913486     0.160341    -1.215831

units ang
no_reorient
no_com
symmetry c1
}

set {
basis        aug-cc-pVTZ
scf_type     df
}

energy("mp2")
--------------------------------------------------------------------------

    Molecular point group: c1

    Geometry (in Angstrom), charge = -1, multiplicity = 1:

       Center              X                  Y                   Z               Mass
    ------------   -----------------  -----------------  -----------------  -----------------
         CL           4.016367000000     0.000000000000     0.000000000000    34.968852682000
      Gh(O)           0.000000000000    -0.107289000000     1.572847000000    15.994914619570
      Gh(H)          -0.369135000000     0.578119000000     1.010976000000     1.007825032230
      Gh(H)           0.913486000000    -0.160341000000     1.215831000000     1.007825032230
      Gh(O)           0.000000000000     0.107289000000    -1.572847000000    15.994914619570
      Gh(H)          -0.369135000000    -0.578119000000    -1.010976000000     1.007825032230
      Gh(H)           0.913486000000     0.160341000000    -1.215831000000     1.007825032230

  Charge       = -1
  Multiplicity = 1
  Basis Set: AUG-CC-PVTZ
    Blend: AUG-CC-PVTZ
  Basis Set: (AUG-CC-PVTZ AUX)
    Blend: AUG-CC-PVTZ-JKFIT

    Orbital Energies [Eh]
    ---------------------

    Doubly Occupied:

       1A   -104.506137     2A    -10.229781     3A     -7.695823
       4A     -7.695818     5A     -7.695807     6A     -0.733502
       7A     -0.150337     8A     -0.150326     9A     -0.150324

  @DF-RHF Final Energy:  -459.57349772019836

   => Energetics <=

    Nuclear Repulsion Energy =              0.0000000000000000
    One-Electron Energy =                -641.1312962459127220
    Two-Electron Energy =                 181.5577985257143325
    Total Energy =                       -459.5734977201983611
 Dipole X            :       -136.6165679          129.0271720           -7.5893959
 Dipole Y            :          0.0000000            0.0000000            0.0000000
 Dipole Z            :         -0.0000000            0.0000000           -0.0000000
 Magnitude           :                                                    7.5893959
  Basis Set: (AUG-CC-PVTZ AUX)
    Blend: AUG-CC-PVTZ-RI
	 Reference Energy          =    -459.5734977201983611 [Eh]
	 Singles Energy            =      -0.0000000000000000 [Eh]
	 Same-Spin Energy          =      -0.0624196826667638 [Eh]
	 Opposite-Spin Energy      =      -0.1791594939193672 [Eh]
	 Correlation Energy        =      -0.2415791765861310 [Eh]
	 Total Energy              =    -459.8150768967844897 [Eh]

	 ================> DF-SCS-MP2 Energies <==================
	-----------------------------------------------------------
	 SCS Same-Spin Scale       =       0.3333333333333333 [-]
	 SCS Opposite-Spin Scale   =       1.2000000000000000 [-]
	 SCS Same-Spin Energy      =      -0.0208065608889213 [Eh]
	 SCS Opposite-Spin Energy  =      -0.2149913927032406 [Eh]
	 SCS Correlation Energy    =      -0.2357979535921619 [Eh]
	 SCS Total Energy          =    -459.8092956737905297 [Eh]
	-----------------------------------------------------------

*** Psi4 exiting successfully. Buy a developer a beer!
