                               Psi4 1.8.2 release

  ==> Input File <==

--------------------------------------------------------------------------
MEMORY 60 GB

molecule dimer {
-1 1
Cl         2.409820     0.000000     0.000000
O          0.000000    -0.107289     1.572847
H         -0.369135     0.578119     1.010976
H          0.913486    -0.160341     1.215831
O          0.000000     0.107289    -1.572847
H         -0.369135    -0.578119    -1.010976
H          0.913486     0.160341    -1.215831

units ang
no_reorient
no_com
symmetry c1
}

set {
basis        aug-cc-pVTZ
scf_type     df
}

energy("mp2")
--------------------------------------------------------------------------

    Molecular point group: c1

    Geometry (in Angstrom), charge = -1, multiplicity = 1:

       Center              X                  Y                   Z               Mass
    ------------   -----------------  -----------------  -----------------  -----------------
         CL           2.409820000000     0.000000000000     0.000000000000    34.968852682000
         O            0.000000000000    -0.107289000000     1.572847000000    15.994914619570
         H           -0.369135000000     0.578119000000     1.010976000000     1.007825032230
         H            0.913486000000    -0.160341000000     1.215831000000     1.007825032230
         O            0.000000000000     0.107289000000    -1.572847000000    15.994914619570
         H           -0.369135000000    -0.578119000000    -1.010976000000     1.007825032230
         H            0.913486000000     0.160341000000    -1.215831000000     1.007825032230

  Charge       = -1
  Multiplicity = 1
  Basis Set: AUG-CC-PVTZ
    Blend: AUG-CC-PVTZ
  Basis Set: (AUG-CC-PVTZ AUX)
    Blend: AUG-CC-PVTZ-JKFIT

    Orbital Energies [Eh]
    ---------------------

    Doubly Occupied:

       1A   -104.556651     2A    -20.373634     3A    -20.373631
       4A    -10.283044     5A     -7.749126     6A     -7.749048
       7A     -7.748955     8A     -1.166333     9A     -1.158721
      10A     -0.808106    11A     -0.519501    12A     -0.519331
      13A     -0.422001    14A     -0.406940    15A     -0.328597
      16A     -0.317836    17A     -0.213934    18A     -0.210216
      19A     -0.210165

  @DF-RHF Final Energy:  -611.71759953249125

   => Energetics <=

    Nuclear Repulsion Energy =            101.0582922078084636
    One-Electron Energy =               -1055.3202416398157766
    Two-Electron Energy =                 342.5443498995161349
    Total Energy =                       -611.7175995324912492
 Dipole X            :        -82.4007755           79.4736454           -2.9271301
 Dipole Y            :         -0.0000000            0.0000000           -0.0000000
 Dipole Z            :          0.0000000            0.0000000            0.0000000
 Magnitude           :                                                    2.9271301
  Basis Set: (AUG-CC-PVTZ AUX)
    Blend: AUG-CC-PVTZ-RI
	 Reference Energy          =    -611.7175995324912492 [Eh]
	 Singles Energy            =      -0.0000000000000000 [Eh]
	 Same-Spin Energy          =      -0.2090535671829702 [Eh]
	 Opposite-Spin Energy      =      -0.6224027293226221 [Eh]
	 Correlation Energy        =      -0.8314562965055923 [Eh]
	 Total Energy              =    -612.5490558289968703 [Eh]

	 ================> DF-SCS-MP2 Energies <==================
	-----------------------------------------------------------
	 SCS Same-Spin Scale       =       0.3333333333333333 [-]
	 SCS Opposite-Spin Scale   =       1.2000000000000000 [-]
	 SCS Same-Spin Energy      =      -0.0696845223943234 [Eh]
	 SCS Opposite-Spin Energy  =      -0.7468832751871465 [Eh]
	 SCS Correlation Energy    =      -0.8165677975814699 [Eh]
	 SCS Total Energy          =    -612.5341673300727052 [Eh]
	-----------------------------------------------------------

*** Psi4 exiting successfully. Buy a developer a beer!
