                               Psi4 1.8.2 release

  ==> Input File <==

--------------------------------------------------------------------------
MEMORY 60 GB

molecule dimer {
-1 1
Cl         3.480851     0.000000     0.000000
O          0.000000    -0.107289     1.572847
H         -0.369135     0.578119     1.010976
H          0.913486    -0.160341     1.215831
O          0.000000     0.107289    -1.572847
H         -0.369135    -0.578119    -1.010976
H          0.913486     0.160341    -1.215831

units ang
no_reorient
no_com
symmetry c1
}

set {
basis        aug-cc-pVTZ
scf_type     df
}

energy("mp2")
--------------------------------------------------------------------------

    Molecular point group: c1

    Geometry (in Angstrom), charge = -1, multiplicity = 1:

       Center              X                  Y                   Z               Mass
    ------------   -----------------  -----------------  -----------------  -----------------
         CL           3.480851000000     0.000000000000     0.000000000000    34.968852682000
         O            0.000000000000    -0.107289000000     1.572847000000    15.994914619570
         H           -0.369135000000     0.578119000000     1.010976000000     1.007825032230
         H            0.913486000000    -0.160341000000     1.215831000000     1.007825032230
         O            0.000000000000     0.107289000000    -1.572847000000    15.994914619570
         H           -0.369135000000    -0.578119000000    -1.010976000000     1.007825032230
         H            0.913486000000     0.160341000000    -1.215831000000     1.007825032230

  Charge       = -1
  Multiplicity = 1
  Basis Set: AUG-CC-PVTZ
    Blend: AUG-CC-PVTZ
  Basis Set: (AUG-CC-PVTZ AUX)
    Blend: AUG-CC-PVTZ-JKFIT

    Orbital Energies [Eh]
    ---------------------

    Doubly Occupied:

       1A   -104.540480     2A    -20.431621     3A    -20.431617
       4A    -10.264216     5A     -7.730304     6A     -7.730253
       7A     -7.730249     8A     -1.216248     9A     -1.209259
      10A     -0.769674    11A     -0.568409    12A     -0.562583
      13A     -0.465509    14A     -0.449558    15A     -0.380057
      16A     -0.368623    17A     -0.189003    18A     -0.185486
      19A     -0.184607

  @DF-RHF Final Energy:  -611.72230915060265

   => Energetics <=

    Nuclear Repulsion Energy =             84.2683354665740723
    One-Electron Energy =               -1021.1657741465861591
    Two-Electron Energy =                 325.1751295294093893
    Total Energy =                       -611.7223091506027686
 Dipole X            :       -119.1580934          113.8808849           -5.2772085
 Dipole Y            :         -0.0000000            0.0000000           -0.0000000
 Dipole Z            :         -0.0000000            0.0000000           -0.0000000
 Magnitude           :                                                    5.2772085
  Basis Set: (AUG-CC-PVTZ AUX)
    Blend: AUG-CC-PVTZ-RI
	 Reference Energy          =    -611.7223091506026549 [Eh]
	 Singles Energy            =      -0.0000000000000000 [Eh]
	 Same-Spin Energy          =      -0.2025350925818181 [Eh]
	 Opposite-Spin Energy      =      -0.6145386267190052 [Eh]
	 Correlation Energy        =      -0.8170737193008233 [Eh]
	 Total Energy              =    -612.5393828699035339 [Eh]

	 ================> DF-SCS-MP2 Energies <==================
	-----------------------------------------------------------
	 SCS Same-Spin Scale       =       0.3333333333333333 [-]
	 SCS Opposite-Spin Scale   =       1.2000000000000000 [-]
	 SCS Same-Spin Energy      =      -0.0675116975272727 [Eh]
	 SCS Opposite-Spin Energy  =      -0.7374463520628062 [Eh]
	 SCS Correlation Energy    =      -0.8049580495900789 [Eh]
	 SCS Total Energy          =    -612.5272672001926821 [Eh]
	-----------------------------------------------------------

*** Psi4 exiting successfully. Buy a developer a beer!
