                               Psi4 1.8.2 release

  ==> Input File <==

--------------------------------------------------------------------------
MEMORY 60 GB

molecule dimer {
-1 1
Cl         5.355156     0.000000     0.000000
O          0.000000    -0.107289     1.572847
H         -0.369135     0.578119     1.010976
H          0.913486    -0.160341     1.215831
O          0.000000     0.107289    -1.572847
H         -0.369135    -0.578119    -1.010976
H          0.913486     0.160341    -1.215831

units ang
no_reorient
no_com
symmetry c1
}

set {
basis        aug-cc-pVTZ
scf_type     df
}

energy("mp2")
--------------------------------------------------------------------------

    Molecular point group: c1

    Geometry (in Angstrom), charge = -1, multiplicity = 1:

       Center              X                  Y                   Z               Mass
    ------------   -----------------  -----------------  -----------------  -----------------
         CL           5.355156000000     0.000000000000     0.000000000000    34.968852682000
         O            0.000000000000    -0.107289000000     1.572847000000    15.994914619570
         H           -0.369135000000     0.578119000000     1.010976000000     1.007825032230
         H            0.913486000000    -0.160341000000     1.215831000000     1.007825032230
         O            0.000000000000     0.107289000000    -1.572847000000    15.994914619570
         H           -0.369135000000    -0.578119000000    -1.010976000000     1.007825032230
         H            0.913486000000     0.160341000000    -1.215831000000     1.007825032230

  Charge       = -1
  Multiplicity = 1
  Basis Set: AUG-CC-PVTZ
    Blend: AUG-CC-PVTZ
  Basis Set: (AUG-CC-PVTZ AUX)
    Blend: AUG-CC-PVTZ-JKFIT

    Orbital Energies [Eh]
    ---------------------

    Doubly Occupied:

       1A   -104.519237     2A    -20.483832     3A    -20.483828
       4A    -10.243004     5A     -7.709054     6A     -7.709025
       7A     -7.709024     8A     -1.267253     9A     -1.260169
      10A     -0.746743    11A     -0.619245    12A     -0.613252
      13A     -0.514632    14A     -0.497979    15A     -0.430156
      16A     -0.418658    17A     -0.163965    18A     -0.163365
      19A     -0.163357

  @DF-RHF Final Energy:  -611.70214020629044

   => Energetics <=

    Nuclear Repulsion Energy =             68.5726260762181283
    One-Electron Energy =                -989.1179755283917530
    Two-Electron Energy =                 308.8432092458830880
    Total Energy =                       -611.7021402062905509
 Dipole X            :       -183.2937642          174.0935780           -9.2001862
 Dipole Y            :          0.0000000            0.0000000            0.0000000
 Dipole Z            :         -0.0000000            0.0000000           -0.0000000
 Magnitude           :                                                    9.2001862
  Basis Set: (AUG-CC-PVTZ AUX)
    Blend: AUG-CC-PVTZ-RI
	 Reference Energy          =    -611.7021402062904372 [Eh]
	 Singles Energy            =      -0.0000000000000000 [Eh]
	 Same-Spin Energy          =      -0.2006820301523069 [Eh]
	 Opposite-Spin Energy      =      -0.6120879513961691 [Eh]
	 Correlation Energy        =      -0.8127699815484760 [Eh]
	 Total Energy              =    -612.5149101878389502 [Eh]

	 ================> DF-SCS-MP2 Energies <==================
	-----------------------------------------------------------
	 SCS Same-Spin Scale       =       0.3333333333333333 [-]
	 SCS Opposite-Spin Scale   =       1.2000000000000000 [-]
	 SCS Same-Spin Energy      =      -0.0668940100507690 [Eh]
	 SCS Opposite-Spin Energy  =      -0.7345055416754029 [Eh]
	 SCS Correlation Energy    =      -0.8013995517261719 [Eh]
	 SCS Total Energy          =    -612.5035397580165863 [Eh]
	-----------------------------------------------------------

*** Psi4 exiting successfully. Buy a developer a beer!
