                               Psi4 1.8.2 release

  ==> Input File <==

--------------------------------------------------------------------------
MEMORY 60 GB

molecule dimer {
-1 1
Cl     5.355156     0.000000     0.000000
--
0 1
O      0.000000    -0.107289     1.572847
H     -0.369135     0.578119     1.010976
H      0.913486    -0.160341     1.215831
--
0 1
O      0.000000     0.107289    -1.572847
H     -0.369135    -0.578119    -1.010976
H      0.913486     0.160341    -1.215831

units ang
no_reorient
no_com
symmetry c1
}

set {
basis        aug-cc-pVTZ
scf_type     df
}

energy("mp2", bsse_type="cp")
--------------------------------------------------------------------------

                               Psi4 1.8.2 release
    Molecular point group: c1
  Charge       = -1
  Multiplicity = 1
  Basis Set: AUG-CC-PVTZ
    Blend: AUG-CC-PVTZ
  Basis Set: (AUG-CC-PVTZ AUX)
    Blend: AUG-CC-PVTZ-JKFIT
  @DF-RHF Final Energy:  -459.57348588806082
    Total Energy =                       -459.5734858880608726
 Dipole X            :       -182.1557794          172.0362294          -10.1195500
 Dipole Y            :          0.0000000            0.0000000            0.0000000
 Dipole Z            :         -0.0000000            0.0000000           -0.0000000
 Magnitude           :                                                   10.1195500
  Basis Set: (AUG-CC-PVTZ AUX)
    Blend: AUG-CC-PVTZ-RI
	 Reference Energy          =    -459.5734858880608158 [Eh]
	 Singles Energy            =      -0.0000000000000000 [Eh]
	 Same-Spin Energy          =      -0.0623008725174543 [Eh]
	 Opposite-Spin Energy      =      -0.1787503246403649 [Eh]
	 Correlation Energy        =      -0.2410511971578192 [Eh]
	 Total Energy              =    -459.8145370852186602 [Eh]
	 SCS Total Energy          =    -459.8087532351351001 [Eh]
                               Psi4 1.8.2 release
    Molecular point group: c1
  Basis Set: AUG-CC-PVTZ
    Blend: AUG-CC-PVTZ
  Basis Set: (AUG-CC-PVTZ AUX)
    Blend: AUG-CC-PVTZ-JKFIT
  @DF-RHF Final Energy:   -76.05857812663078
    Total Energy =                        -76.0585781266307919
  Basis Set: (AUG-CC-PVTZ AUX)
                               Psi4 1.8.2 release
  @DF-RHF Final Energy:  -152.11626184022845
    Total Energy =                       -152.1162618402284465
                               Psi4 1.8.2 release
  @DF-RHF Final Energy:  -535.63846906750553
    Total Energy =                       -535.6384690675055253
                               Psi4 1.8.2 release
  @DF-RHF Final Energy:  -535.63846906754202
    Total Energy =                       -535.6384690675420188
                               Psi4 1.8.2 release
  Multiplicity = 1
  @DF-RHF Final Energy:   -76.05857812660774
    Total Energy =                        -76.0585781266077561
	 Singles Energy            =      -0.0000000000000000 [Eh]
	 Same-Spin Energy          =      -0.0687008723082267 [Eh]
	 Opposite-Spin Energy      =      -0.2164125388517364 [Eh]
	 Correlation Energy        =      -0.2851134111599631 [Eh]
	 Total Energy              =     -76.3436915377677110 [Eh]
	 SCS Total Energy          =     -76.3411734639992403 [Eh]
                               Psi4 1.8.2 release
    Molecular point group: c1

    Geometry (in Bohr), charge = -1, multiplicity = 1:

       Center              X                  Y                   Z               Mass
    ------------   -----------------  -----------------  -----------------  -----------------
         CL          10.119778199102     0.000000000000     0.000000000000    34.968852682000
         O            0.000000000000    -0.202746826274     2.972250067248    15.994914619570
         H           -0.697564053321     1.092486577924     1.910467759411     1.007825032230
         H            1.726238359440    -0.303000576682     2.297587604842     1.007825032230
         O            0.000000000000     0.202746826274    -2.972250067248    15.994914619570
         H           -0.697564053321    -1.092486577924    -1.910467759411     1.007825032230
         H            1.726238359440     0.303000576682    -2.297587604842     1.007825032230

  Charge       = -1
  Multiplicity = 1
  Basis Set: AUG-CC-PVTZ
    Blend: AUG-CC-PVTZ
  Basis Set: (AUG-CC-PVTZ AUX)
    Blend: AUG-CC-PVTZ-JKFIT

    Orbital Energies [Eh]
    ---------------------

    Doubly Occupied:

       1A   -104.519237     2A    -20.483832     3A    -20.483828
       4A    -10.243004     5A     -7.709054     6A     -7.709025
       7A     -7.709024     8A     -1.267253     9A     -1.260169
      10A     -0.746743    11A     -0.619245    12A     -0.613252
      13A     -0.514632    14A     -0.497979    15A     -0.430156
      16A     -0.418658    17A     -0.163965    18A     -0.163365
      19A     -0.163357

  @DF-RHF Final Energy:  -611.70214020629021

   => Energetics <=

    Nuclear Repulsion Energy =             68.5726260762181283
    One-Electron Energy =                -989.1179755283915256
    Two-Electron Energy =                 308.8432092458830880
    Total Energy =                       -611.7021402062903235
 Dipole X            :       -183.2937642          174.0935780           -9.2001862
 Dipole Y            :          0.0000000            0.0000000            0.0000000
 Dipole Z            :         -0.0000000            0.0000000           -0.0000000
 Magnitude           :                                                    9.2001862
  Basis Set: (AUG-CC-PVTZ AUX)
    Blend: AUG-CC-PVTZ-RI
	 Reference Energy          =    -611.7021402062902098 [Eh]
	 Singles Energy            =      -0.0000000000000000 [Eh]
	 Same-Spin Energy          =      -0.2006820301523062 [Eh]
	 Opposite-Spin Energy      =      -0.6120879513961746 [Eh]
	 Correlation Energy        =      -0.8127699815484808 [Eh]
	 Total Energy              =    -612.5149101878387228 [Eh]

	 ================> DF-SCS-MP2 Energies <==================
	-----------------------------------------------------------
	 SCS Same-Spin Scale       =       0.3333333333333333 [-]
	 SCS Opposite-Spin Scale   =       1.2000000000000000 [-]
	 SCS Same-Spin Energy      =      -0.0668940100507687 [Eh]
	 SCS Opposite-Spin Energy  =      -0.7345055416754095 [Eh]
	 SCS Correlation Energy    =      -0.8013995517261783 [Eh]
	 SCS Total Energy          =    -612.5035397580163590 [Eh]
	-----------------------------------------------------------

*** Psi4 exiting successfully. Buy a developer a beer!
