                               Psi4 1.8.2 release

  ==> Input File <==

--------------------------------------------------------------------------
MEMORY 60 GB

molecule dimer {
-1 1
Cl         3.748609     0.000000     0.000000
O          0.000000    -0.107289     1.572847
H         -0.369135     0.578119     1.010976
H          0.913486    -0.160341     1.215831
O          0.000000     0.107289    -1.572847
H         -0.369135    -0.578119    -1.010976
H          0.913486     0.160341    -1.215831

units ang
no_reorient
no_com
symmetry c1
}

set {
basis        aug-cc-pVTZ
scf_type     df
}

energy("mp2")
--------------------------------------------------------------------------

    Molecular point group: c1

    Geometry (in Angstrom), charge = -1, multiplicity = 1:

       Center              X                  Y                   Z               Mass
    ------------   -----------------  -----------------  -----------------  -----------------
         CL           3.748609000000     0.000000000000     0.000000000000    34.968852682000
         O            0.000000000000    -0.107289000000     1.572847000000    15.994914619570
         H           -0.369135000000     0.578119000000     1.010976000000     1.007825032230
         H            0.913486000000    -0.160341000000     1.215831000000     1.007825032230
         O            0.000000000000     0.107289000000    -1.572847000000    15.994914619570
         H           -0.369135000000    -0.578119000000    -1.010976000000     1.007825032230
         H            0.913486000000     0.160341000000    -1.215831000000     1.007825032230

  Charge       = -1
  Multiplicity = 1
  Basis Set: AUG-CC-PVTZ
    Blend: AUG-CC-PVTZ
  Basis Set: (AUG-CC-PVTZ AUX)
    Blend: AUG-CC-PVTZ-JKFIT

    Orbital Energies [Eh]
    ---------------------

    Doubly Occupied:

       1A   -104.536132     2A    -20.442041     3A    -20.442037
       4A    -10.259826     5A     -7.725905     6A     -7.725852
       7A     -7.725849     8A     -1.226251     9A     -1.219243
      10A     -0.764384    11A     -0.578256    12A     -0.572381
      13A     -0.474967    14A     -0.458914    15A     -0.389906
      16A     -0.378441    17A     -0.183309    18A     -0.180462
      19A     -0.179958

  @DF-RHF Final Energy:  -611.71813760233408

   => Energetics <=

    Nuclear Repulsion Energy =             81.2275491291264586
    One-Electron Energy =               -1014.9631434487750994
    Two-Electron Energy =                 322.0174567173145874
    Total Energy =                       -611.7181376023340817
 Dipole X            :       -128.3417192          122.4827028           -5.8590164
 Dipole Y            :          0.0000000            0.0000000            0.0000000
 Dipole Z            :         -0.0000000            0.0000000           -0.0000000
 Magnitude           :                                                    5.8590164
  Basis Set: (AUG-CC-PVTZ AUX)
    Blend: AUG-CC-PVTZ-RI
	 Reference Energy          =    -611.7181376023340817 [Eh]
	 Singles Energy            =      -0.0000000000000000 [Eh]
	 Same-Spin Energy          =      -0.2019077219289392 [Eh]
	 Opposite-Spin Energy      =      -0.6136437136091951 [Eh]
	 Correlation Energy        =      -0.8155514355381343 [Eh]
	 Total Energy              =    -612.5336890378722501 [Eh]

	 ================> DF-SCS-MP2 Energies <==================
	-----------------------------------------------------------
	 SCS Same-Spin Scale       =       0.3333333333333333 [-]
	 SCS Opposite-Spin Scale   =       1.2000000000000000 [-]
	 SCS Same-Spin Energy      =      -0.0673025739763130 [Eh]
	 SCS Opposite-Spin Energy  =      -0.7363724563310341 [Eh]
	 SCS Correlation Energy    =      -0.8036750303073471 [Eh]
	 SCS Total Energy          =    -612.5218126326413994 [Eh]
	-----------------------------------------------------------

*** Psi4 exiting successfully. Buy a developer a beer!
