                               Psi4 1.8.2 release

  ==> Input File <==

--------------------------------------------------------------------------
MEMORY 60 GB

molecule dimer {
0 1
Gh(Cl)     2.945336     0.000000     0.000000
Gh(O)      0.000000    -0.107289     1.572847
Gh(H)     -0.369135     0.578119     1.010976
Gh(H)      0.913486    -0.160341     1.215831
O          0.000000     0.107289    -1.572847
H         -0.369135    -0.578119    -1.010976
H          0.913486     0.160341    -1.215831

units ang
no_reorient
no_com
symmetry c1
}

set {
basis        aug-cc-pVTZ
scf_type     df
}

energy("mp2")
--------------------------------------------------------------------------

    Molecular point group: c1

    Geometry (in Angstrom), charge = 0, multiplicity = 1:

       Center              X                  Y                   Z               Mass
    ------------   -----------------  -----------------  -----------------  -----------------
      Gh(CL)          2.945336000000     0.000000000000     0.000000000000    34.968852682000
      Gh(O)           0.000000000000    -0.107289000000     1.572847000000    15.994914619570
      Gh(H)          -0.369135000000     0.578119000000     1.010976000000     1.007825032230
      Gh(H)           0.913486000000    -0.160341000000     1.215831000000     1.007825032230
         O            0.000000000000     0.107289000000    -1.572847000000    15.994914619570
         H           -0.369135000000    -0.578119000000    -1.010976000000     1.007825032230
         H            0.913486000000     0.160341000000    -1.215831000000     1.007825032230

  Charge       = 0
  Multiplicity = 1
  Basis Set: AUG-CC-PVTZ
    Blend: AUG-CC-PVTZ
  Basis Set: (AUG-CC-PVTZ AUX)
    Blend: AUG-CC-PVTZ-JKFIT

    Orbital Energies [Eh]
    ---------------------

    Doubly Occupied:

       1A    -20.571288     2A     -1.349412     3A     -0.702625
       4A     -0.589896     5A     -0.510386

  @DF-RHF Final Energy:   -76.05859573301078

   => Energetics <=

    Nuclear Repulsion Energy =              9.0737435594059122
    One-Electron Energy =                -122.8174613471308874
    Two-Electron Energy =                  37.6851220547141992
    Total Energy =                        -76.0585957330107760
 Dipole X            :         -0.6772170            1.0286743            0.3514573
 Dipole Y            :         -1.2469571            0.8324886           -0.4144685
 Dipole Z            :         28.5860658          -27.9860559            0.6000099
 Magnitude           :                                                    0.8095173
  Basis Set: (AUG-CC-PVTZ AUX)
    Blend: AUG-CC-PVTZ-RI
	 Reference Energy          =     -76.0585957330107760 [Eh]
	 Singles Energy            =      -0.0000000000000000 [Eh]
	 Same-Spin Energy          =      -0.0687224154744428 [Eh]
	 Opposite-Spin Energy      =      -0.2168009740477623 [Eh]
	 Correlation Energy        =      -0.2855233895222051 [Eh]
	 Total Energy              =     -76.3441191225329874 [Eh]

	 ================> DF-SCS-MP2 Energies <==================
	-----------------------------------------------------------
	 SCS Same-Spin Scale       =       0.3333333333333333 [-]
	 SCS Opposite-Spin Scale   =       1.2000000000000000 [-]
	 SCS Same-Spin Energy      =      -0.0229074718248143 [Eh]
	 SCS Opposite-Spin Energy  =      -0.2601611688573148 [Eh]
	 SCS Correlation Energy    =      -0.2830686406821291 [Eh]
	 SCS Total Energy          =     -76.3416643736929075 [Eh]
	-----------------------------------------------------------

*** Psi4 exiting successfully. Buy a developer a beer!
