                               Psi4 1.8.2 release

  ==> Input File <==

--------------------------------------------------------------------------
MEMORY 60 GB

molecule dimer {
-1 1
Br     2.549543     0.000000     0.000000
--
0 1
O      0.000000    -0.112811     1.567716
H     -0.349529     0.578740     1.000386
H      0.921124    -0.169041     1.237825
--
0 1
O      0.000000     0.112811    -1.567716
H     -0.349529    -0.578740    -1.000386
H      0.921124     0.169041    -1.237825

units ang
no_reorient
no_com
symmetry c1
}

set {
basis        aug-cc-pVTZ
scf_type     df
}

energy("mp2", bsse_type="cp")
--------------------------------------------------------------------------

                               Psi4 1.8.2 release
    Molecular point group: c1
  Charge       = -1
  Multiplicity = 1
  Basis Set: AUG-CC-PVTZ
    Blend: AUG-CC-PVTZ
  Basis Set: (AUG-CC-PVTZ AUX)
    Blend: AUG-CC-PVTZ-JKFIT
  @DF-RHF Final Energy: -2572.53370614794767
    Total Energy =                      -2572.5337061479476688
 Dipole X            :       -173.4458304          168.6278305           -4.8179999
 Dipole Y            :         -0.0000000            0.0000000           -0.0000000
 Dipole Z            :         -0.0000000            0.0000000           -0.0000000
 Magnitude           :                                                    4.8179999
  Basis Set: (AUG-CC-PVTZ AUX)
    Blend: AUG-CC-PVTZ-RI
	 Reference Energy          =   -2572.5337061479476688 [Eh]
	 Singles Energy            =      -0.0000000000000000 [Eh]
	 Same-Spin Energy          =      -0.0899207615272072 [Eh]
	 Opposite-Spin Energy      =      -0.2095658129798355 [Eh]
	 Correlation Energy        =      -0.2994865745070426 [Eh]
	 Total Energy              =   -2572.8331927224548963 [Eh]
	 SCS Total Energy          =   -2572.8151587106990519 [Eh]
                               Psi4 1.8.2 release
    Molecular point group: c1
  Basis Set: AUG-CC-PVTZ
    Blend: AUG-CC-PVTZ
  Basis Set: (AUG-CC-PVTZ AUX)
    Blend: AUG-CC-PVTZ-JKFIT
  @DF-RHF Final Energy:   -76.05877515472366
    Total Energy =                        -76.0587751547236621
  Basis Set: (AUG-CC-PVTZ AUX)
                               Psi4 1.8.2 release
  @DF-RHF Final Energy:  -152.11689044397886
    Total Energy =                       -152.1168904439788605
                               Psi4 1.8.2 release
  @DF-RHF Final Energy: -2648.60168101278396
    Total Energy =                      -2648.6016810127839562
                               Psi4 1.8.2 release
  @DF-RHF Final Energy: -2648.60168101276940
    Total Energy =                      -2648.6016810127694043
                               Psi4 1.8.2 release
  Multiplicity = 1
  @DF-RHF Final Energy:   -76.05877515472687
    Total Energy =                        -76.0587751547268738
	 Singles Energy            =      -0.0000000000000000 [Eh]
	 Same-Spin Energy          =      -0.0687134031491035 [Eh]
	 Opposite-Spin Energy      =      -0.2168489023336334 [Eh]
	 Correlation Energy        =      -0.2855623054827369 [Eh]
	 Total Energy              =     -76.3443374602096156 [Eh]
	 SCS Total Energy          =     -76.3418983052436033 [Eh]
                               Psi4 1.8.2 release
    Molecular point group: c1

    Geometry (in Bohr), charge = -1, multiplicity = 1:

       Center              X                  Y                   Z               Mass
    ------------   -----------------  -----------------  -----------------  -----------------
         BR           4.817938015078     0.000000000000     0.000000000000    78.918337600000
         O            0.000000000000    -0.213181893939     2.962553882498    15.994914619570
         H           -0.660514082905     1.093660097847     1.890455559742     1.007825032230
         H            1.740672087586    -0.319441193974     2.339150241245     1.007825032230
         O            0.000000000000     0.213181893939    -2.962553882498    15.994914619570
         H           -0.660514082905    -1.093660097847    -1.890455559742     1.007825032230
         H            1.740672087586     0.319441193974    -2.339150241245     1.007825032230

  Charge       = -1
  Multiplicity = 1
  Basis Set: AUG-CC-PVTZ
    Blend: AUG-CC-PVTZ
  Basis Set: (AUG-CC-PVTZ AUX)
    Blend: AUG-CC-PVTZ-JKFIT

    Orbital Energies [Eh]
    ---------------------

    Doubly Occupied:

       1A   -489.764333     2A    -64.905269     3A    -58.259716
       4A    -58.259698     5A    -58.259668     6A    -20.381336
       7A    -20.381333     8A     -9.578259     9A     -7.185863
      10A     -7.185862    11A     -7.185564    12A     -2.927502
      13A     -2.927437    14A     -2.927275    15A     -2.927140
      16A     -2.927120    17A     -1.174334    18A     -1.166766
      19A     -0.751060    20A     -0.526901    21A     -0.526623
      22A     -0.428049    23A     -0.413675    24A     -0.336355
      25A     -0.324828    26A     -0.193233    27A     -0.190541
      28A     -0.188982

  @DF-RHF Final Energy: -2724.66811369841480

   => Energetics <=

    Nuclear Repulsion Energy =            164.7127141813666924
    One-Electron Energy =               -4134.3522111970096375
    Two-Electron Energy =                1244.9713833172281738
    Total Energy =                      -2724.6681136984147997
 Dipole X            :       -173.9816599          170.7881465           -3.1935134
 Dipole Y            :         -0.0000000            0.0000000           -0.0000000
 Dipole Z            :          0.0000000            0.0000000            0.0000000
 Magnitude           :                                                    3.1935134
  Basis Set: (AUG-CC-PVTZ AUX)
    Blend: AUG-CC-PVTZ-RI
	 Reference Energy          =   -2724.6681136984147997 [Eh]
	 Singles Energy            =      -0.0000000000000000 [Eh]
	 Same-Spin Energy          =      -0.2364252735287159 [Eh]
	 Opposite-Spin Energy      =      -0.6501969052358675 [Eh]
	 Correlation Energy        =      -0.8866221787645834 [Eh]
	 Total Energy              =   -2725.5547358771796098 [Eh]

	 ================> DF-SCS-MP2 Energies <==================
	-----------------------------------------------------------
	 SCS Same-Spin Scale       =       0.3333333333333333 [-]
	 SCS Opposite-Spin Scale   =       1.2000000000000000 [-]
	 SCS Same-Spin Energy      =      -0.0788084245095720 [Eh]
	 SCS Opposite-Spin Energy  =      -0.7802362862830410 [Eh]
	 SCS Correlation Energy    =      -0.8590447107926129 [Eh]
	 SCS Total Energy          =   -2725.5271584092074590 [Eh]
	-----------------------------------------------------------

*** Psi4 exiting successfully. Buy a developer a beer!
