                               Psi4 1.8.2 release

  ==> Input File <==

--------------------------------------------------------------------------
MEMORY 60 GB

molecule dimer {
-1 1
Br         4.249238     0.000000     0.000000
O          0.000000    -0.112811     1.567716
H         -0.349529     0.578740     1.000386
H          0.921124    -0.169041     1.237825
O          0.000000     0.112811    -1.567716
H         -0.349529    -0.578740    -1.000386
H          0.921124     0.169041    -1.237825

units ang
no_reorient
no_com
symmetry c1
}

set {
basis        aug-cc-pVTZ
scf_type     df
}

energy("mp2")
--------------------------------------------------------------------------

    Molecular point group: c1

    Geometry (in Angstrom), charge = -1, multiplicity = 1:

       Center              X                  Y                   Z               Mass
    ------------   -----------------  -----------------  -----------------  -----------------
         BR           4.249238000000     0.000000000000     0.000000000000    78.918337600000
         O            0.000000000000    -0.112811000000     1.567716000000    15.994914619570
         H           -0.349529000000     0.578740000000     1.000386000000     1.007825032230
         H            0.921124000000    -0.169041000000     1.237825000000     1.007825032230
         O            0.000000000000     0.112811000000    -1.567716000000    15.994914619570
         H           -0.349529000000    -0.578740000000    -1.000386000000     1.007825032230
         H            0.921124000000     0.169041000000    -1.237825000000     1.007825032230

  Charge       = -1
  Multiplicity = 1
  Basis Set: AUG-CC-PVTZ
    Blend: AUG-CC-PVTZ
  Basis Set: (AUG-CC-PVTZ AUX)
    Blend: AUG-CC-PVTZ-JKFIT

    Orbital Energies [Eh]
    ---------------------

    Doubly Occupied:

       1A   -489.743351     2A    -64.883408     3A    -58.237917
       4A    -58.237866     5A    -58.237863     6A    -20.456689
       7A    -20.456686     8A     -9.555746     9A     -7.163275
      10A     -7.163008    11A     -7.162989    12A     -2.904994
      13A     -2.904889    14A     -2.904866    15A     -2.904522
      16A     -2.904521    17A     -1.241231    18A     -1.234107
      19A     -0.709176    20A     -0.593444    21A     -0.587417
      22A     -0.488718    23A     -0.473119    24A     -0.404530
      25A     -0.392466    26A     -0.164329    27A     -0.161842
      28A     -0.161584

  @DF-RHF Final Energy: -2724.67224174471085

   => Energetics <=

    Nuclear Repulsion Energy =            119.4947750196303105
    One-Electron Energy =               -4043.4649297391479195
    Two-Electron Energy =                1199.2979129748068772
    Total Energy =                      -2724.6722417447108455
 Dipole X            :       -290.0406432          283.2066782           -6.8339650
 Dipole Y            :          0.0000000            0.0000000            0.0000000
 Dipole Z            :         -0.0000000            0.0000000           -0.0000000
 Magnitude           :                                                    6.8339650
  Basis Set: (AUG-CC-PVTZ AUX)
    Blend: AUG-CC-PVTZ-RI
	 Reference Energy          =   -2724.6722417447108455 [Eh]
	 Singles Energy            =      -0.0000000000000000 [Eh]
	 Same-Spin Energy          =      -0.2261522515467397 [Eh]
	 Opposite-Spin Energy      =      -0.6357954694624031 [Eh]
	 Correlation Energy        =      -0.8619477210091427 [Eh]
	 Total Energy              =   -2725.5341894657199191 [Eh]

	 ================> DF-SCS-MP2 Energies <==================
	-----------------------------------------------------------
	 SCS Same-Spin Scale       =       0.3333333333333333 [-]
	 SCS Opposite-Spin Scale   =       1.2000000000000000 [-]
	 SCS Same-Spin Energy      =      -0.0753840838489132 [Eh]
	 SCS Opposite-Spin Energy  =      -0.7629545633548837 [Eh]
	 SCS Correlation Energy    =      -0.8383386472037969 [Eh]
	 SCS Total Energy          =   -2725.5105803919145728 [Eh]
	-----------------------------------------------------------

*** Psi4 exiting successfully. Buy a developer a beer!
