                               Psi4 1.8.2 release

  ==> Input File <==

--------------------------------------------------------------------------
MEMORY 60 GB

molecule dimer {
-1 1
Br         2.691184     0.000000     0.000000
O          0.000000    -0.112811     1.567716
H         -0.349529     0.578740     1.000386
H          0.921124    -0.169041     1.237825
O          0.000000     0.112811    -1.567716
H         -0.349529    -0.578740    -1.000386
H          0.921124     0.169041    -1.237825

units ang
no_reorient
no_com
symmetry c1
}

set {
basis        aug-cc-pVTZ
scf_type     df
}

energy("mp2")
--------------------------------------------------------------------------

    Molecular point group: c1

    Geometry (in Angstrom), charge = -1, multiplicity = 1:

       Center              X                  Y                   Z               Mass
    ------------   -----------------  -----------------  -----------------  -----------------
         BR           2.691184000000     0.000000000000     0.000000000000    78.918337600000
         O            0.000000000000    -0.112811000000     1.567716000000    15.994914619570
         H           -0.349529000000     0.578740000000     1.000386000000     1.007825032230
         H            0.921124000000    -0.169041000000     1.237825000000     1.007825032230
         O            0.000000000000     0.112811000000    -1.567716000000    15.994914619570
         H           -0.349529000000    -0.578740000000    -1.000386000000     1.007825032230
         H            0.921124000000     0.169041000000    -1.237825000000     1.007825032230

  Charge       = -1
  Multiplicity = 1
  Basis Set: AUG-CC-PVTZ
    Blend: AUG-CC-PVTZ
  Basis Set: (AUG-CC-PVTZ AUX)
    Blend: AUG-CC-PVTZ-JKFIT

    Orbital Energies [Eh]
    ---------------------

    Doubly Occupied:

       1A   -489.763246     2A    -64.903890     3A    -58.258359
       4A    -58.258342     5A    -58.258327     6A    -20.389901
       7A    -20.389898     8A     -9.576599     9A     -7.184191
      10A     -7.184128    11A     -7.183906    12A     -2.925822
      13A     -2.925787    14A     -2.925572    15A     -2.925535
      16A     -2.925498    17A     -1.180649    18A     -1.173307
      19A     -0.744450    20A     -0.533649    21A     -0.531069
      22A     -0.433355    23A     -0.418458    24A     -0.343384
      25A     -0.331720    26A     -0.190503    27A     -0.190171
      28A     -0.186214

  @DF-RHF Final Energy: -2724.67631222457749

   => Energetics <=

    Nuclear Repulsion Energy =            159.4247823849324277
    One-Electron Energy =               -4123.7303262960631400
    Two-Electron Energy =                1239.6292316865533394
    Total Energy =                      -2724.6763122245774866
 Dipole X            :       -183.6410852          180.1563410           -3.4847443
 Dipole Y            :          0.0000000            0.0000000            0.0000000
 Dipole Z            :         -0.0000000            0.0000000           -0.0000000
 Magnitude           :                                                    3.4847443
  Basis Set: (AUG-CC-PVTZ AUX)
    Blend: AUG-CC-PVTZ-RI
	 Reference Energy          =   -2724.6763122245774866 [Eh]
	 Singles Energy            =      -0.0000000000000000 [Eh]
	 Same-Spin Energy          =      -0.2346344992872770 [Eh]
	 Opposite-Spin Energy      =      -0.6478461141735333 [Eh]
	 Correlation Energy        =      -0.8824806134608103 [Eh]
	 Total Energy              =   -2725.5587928380382436 [Eh]

	 ================> DF-SCS-MP2 Energies <==================
	-----------------------------------------------------------
	 SCS Same-Spin Scale       =       0.3333333333333333 [-]
	 SCS Opposite-Spin Scale   =       1.2000000000000000 [-]
	 SCS Same-Spin Energy      =      -0.0782114997624257 [Eh]
	 SCS Opposite-Spin Energy  =      -0.7774153370082399 [Eh]
	 SCS Correlation Energy    =      -0.8556268367706656 [Eh]
	 SCS Total Energy          =   -2725.5319390613481119 [Eh]
	-----------------------------------------------------------

*** Psi4 exiting successfully. Buy a developer a beer!
