                               Psi4 1.9 release

  ==> Input File <==

--------------------------------------------------------------------------
MEMORY 60 GB

molecule dimer {
-1 1
Br     5.665650     0.000000     0.000000
--
0 1
O      0.000000    -0.112811     1.567716
H     -0.349529     0.578740     1.000386
H      0.921124    -0.169041     1.237825
O      0.000000     0.112811    -1.567716
H     -0.349529    -0.578740    -1.000386
H      0.921124     0.169041    -1.237825

units ang
no_reorient
no_com
symmetry c1
}

set {
basis        aug-cc-pVTZ
scf_type     df
}

energy("mp2", bsse_type="cp")
--------------------------------------------------------------------------

                               Psi4 1.9 release
    Molecular point group: c1
  Charge       = 0
  Multiplicity = 1
  Basis Set: AUG-CC-PVTZ
    Blend: AUG-CC-PVTZ
  Basis Set: (AUG-CC-PVTZ AUX)
    Blend: AUG-CC-PVTZ-JKFIT
  @DF-RHF Final Energy:  -152.11682900044053
    Total Energy =                       -152.1168290004405321
 Dipole X            :         -1.4581935            2.1603160            0.7021225
 Dipole Y            :          0.0000000            0.0000000            0.0000000
 Dipole Z            :         -0.0000000            0.0000000           -0.0000000
 Magnitude           :                                                    0.7021225
  Basis Set: (AUG-CC-PVTZ AUX)
    Blend: AUG-CC-PVTZ-RI
	 Reference Energy          =    -152.1168290004405321 [Eh]
	 Singles Energy            =      -0.0000000000000000 [Eh]
	 Same-Spin Energy          =      -0.1382698579686348 [Eh]
	 Opposite-Spin Energy      =      -0.4335131208958608 [Eh]
	 Correlation Energy        =      -0.5717829788644956 [Eh]
	 Total Energy              =    -152.6886119793050227 [Eh]
	 SCS Total Energy          =    -152.6831346981717843 [Eh]
                               Psi4 1.9 release
    Molecular point group: c1
  Multiplicity = 1
  Basis Set: AUG-CC-PVTZ
    Blend: AUG-CC-PVTZ
  Basis Set: (AUG-CC-PVTZ AUX)
    Blend: AUG-CC-PVTZ-JKFIT
  @DF-RHF Final Energy: -2572.53366877928784
    Total Energy =                      -2572.5336687792878365
  Basis Set: (AUG-CC-PVTZ AUX)
	 Singles Energy            =      -0.0000000000000000 [Eh]
	 Same-Spin Energy          =      -0.0867936345832802 [Eh]
	 Opposite-Spin Energy      =      -0.2012428040942161 [Eh]
	 Correlation Energy        =      -0.2880364386774963 [Eh]
	 Total Energy              =   -2572.8217052179652455 [Eh]
	 SCS Total Energy          =   -2572.8040913557288150 [Eh]
                               Psi4 1.9 release
    Molecular point group: c1

    Geometry (in Bohr), charge = -1, multiplicity = 1:

       Center              X                  Y                   Z               Mass
    ------------   -----------------  -----------------  -----------------  -----------------
         BR          10.706526822700     0.000000000000     0.000000000000    78.918337600000
         O            0.000000000000    -0.213181893939     2.962553882498    15.994914619570
         H           -0.660514082905     1.093660097847     1.890455559742     1.007825032230
         H            1.740672087586    -0.319441193974     2.339150241245     1.007825032230
         O            0.000000000000     0.213181893939    -2.962553882498    15.994914619570
         H           -0.660514082905    -1.093660097847    -1.890455559742     1.007825032230
         H            1.740672087586     0.319441193974    -2.339150241245     1.007825032230

  Charge       = -1
  Multiplicity = 1
  Basis Set: AUG-CC-PVTZ
    Blend: AUG-CC-PVTZ
  Basis Set: (AUG-CC-PVTZ AUX)
    Blend: AUG-CC-PVTZ-JKFIT

    Orbital Energies [Eh]
    ---------------------

    Doubly Occupied:

       1A   -489.732059     2A    -64.872158     3A    -58.226639
       4A    -58.226617     5A    -58.226617     6A    -20.488225
       7A    -20.488221     8A     -9.544568     9A     -7.151987
      10A     -7.151870    11A     -7.151868    12A     -2.893668
      13A     -2.893624    14A     -2.893621    15A     -2.893477
      16A     -2.893477    17A     -1.272292    18A     -1.265120
      19A     -0.697697    20A     -0.624538    21A     -0.618445
      22A     -0.518880    23A     -0.502855    24A     -0.435048
      25A     -0.422969    26A     -0.151499    27A     -0.150798
      28A     -0.150789

  @DF-RHF Final Energy: -2724.66153274059297

   => Energetics <=

    Nuclear Repulsion Energy =             99.8530917362890023
    One-Electron Energy =               -4003.9499914696480118
    Two-Electron Energy =                1179.4353669927661485
    Total Energy =                      -2724.6615327405925200
 Dipole X            :       -386.6408983          376.8887548           -9.7521435
 Dipole Y            :          0.0000000            0.0000000            0.0000000
 Dipole Z            :         -0.0000000            0.0000000           -0.0000000
 Magnitude           :                                                    9.7521435
  Basis Set: (AUG-CC-PVTZ AUX)
    Blend: AUG-CC-PVTZ-RI
	 Reference Energy          =   -2724.6615327405929747 [Eh]
	 Singles Energy            =      -0.0000000000000000 [Eh]
	 Same-Spin Energy          =      -0.2251389498569072 [Eh]
	 Opposite-Spin Energy      =      -0.6344917096474560 [Eh]
	 Correlation Energy        =      -0.8596306595043632 [Eh]
	 Total Energy              =   -2725.5211634000975209 [Eh]

	 ================> DF-SCS-MP2 Energies <==================
	-----------------------------------------------------------
	 SCS Same-Spin Scale       =       0.3333333333333333 [-]
	 SCS Opposite-Spin Scale   =       1.2000000000000000 [-]
	 SCS Same-Spin Energy      =      -0.0750463166189691 [Eh]
	 SCS Opposite-Spin Energy  =      -0.7613900515769473 [Eh]
	 SCS Correlation Energy    =      -0.8364363681959164 [Eh]
	 SCS Total Energy          =   -2725.4979691087887659 [Eh]
	-----------------------------------------------------------

*** Psi4 exiting successfully. Buy a developer a beer!
