                               Psi4 1.8.2 release

  ==> Input File <==

--------------------------------------------------------------------------
MEMORY 60 GB

molecule dimer {
-1 1
Br     3.399390     0.000000     0.000000
--
0 1
O      0.000000    -0.112811     1.567716
H     -0.349529     0.578740     1.000386
H      0.921124    -0.169041     1.237825
--
0 1
O      0.000000     0.112811    -1.567716
H     -0.349529    -0.578740    -1.000386
H      0.921124     0.169041    -1.237825

units ang
no_reorient
no_com
symmetry c1
}

set {
basis        aug-cc-pVTZ
scf_type     df
}

energy("mp2", bsse_type="cp")
--------------------------------------------------------------------------

                               Psi4 1.8.2 release
    Molecular point group: c1
  Charge       = -1
  Multiplicity = 1
  Basis Set: AUG-CC-PVTZ
    Blend: AUG-CC-PVTZ
  Basis Set: (AUG-CC-PVTZ AUX)
    Blend: AUG-CC-PVTZ-JKFIT
  @DF-RHF Final Energy: -2572.53368680011226
    Total Energy =                      -2572.5336868001122639
 Dipole X            :       -231.2613224          224.8370633           -6.4242591
 Dipole Y            :          0.0000000            0.0000000            0.0000000
 Dipole Z            :          0.0000000            0.0000000            0.0000000
 Magnitude           :                                                    6.4242591
  Basis Set: (AUG-CC-PVTZ AUX)
    Blend: AUG-CC-PVTZ-RI
	 Reference Energy          =   -2572.5336868001122639 [Eh]
	 Singles Energy            =      -0.0000000000000000 [Eh]
	 Same-Spin Energy          =      -0.0879790923890533 [Eh]
	 Opposite-Spin Energy      =      -0.2042128958507871 [Eh]
	 Correlation Energy        =      -0.2921919882398404 [Eh]
	 Total Energy              =   -2572.8258787883519290 [Eh]
	 SCS Total Energy          =   -2572.8080686392627285 [Eh]
                               Psi4 1.8.2 release
    Molecular point group: c1
  Basis Set: AUG-CC-PVTZ
    Blend: AUG-CC-PVTZ
  Basis Set: (AUG-CC-PVTZ AUX)
    Blend: AUG-CC-PVTZ-JKFIT
  @DF-RHF Final Energy:   -76.05875844739703
    Total Energy =                        -76.0587584473970253
  Basis Set: (AUG-CC-PVTZ AUX)
                               Psi4 1.8.2 release
  @DF-RHF Final Energy:  -152.11685813422883
    Total Energy =                       -152.1168581342288633
                               Psi4 1.8.2 release
  @DF-RHF Final Energy: -2648.60863042011124
    Total Energy =                      -2648.6086304201112398
                               Psi4 1.8.2 release
  @DF-RHF Final Energy: -2648.60863042013307
    Total Energy =                      -2648.6086304201330677
                               Psi4 1.8.2 release
  Multiplicity = 1
  @DF-RHF Final Energy:   -76.05875844739003
    Total Energy =                        -76.0587584473900336
	 Singles Energy            =      -0.0000000000000000 [Eh]
	 Same-Spin Energy          =      -0.0686985304436002 [Eh]
	 Opposite-Spin Energy      =      -0.2166458890390389 [Eh]
	 Correlation Energy        =      -0.2853444194826391 [Eh]
	 Total Energy              =     -76.3441028668726744 [Eh]
	 SCS Total Energy          =     -76.3416330243847483 [Eh]
                               Psi4 1.8.2 release
    Molecular point group: c1

    Geometry (in Bohr), charge = -1, multiplicity = 1:

       Center              X                  Y                   Z               Mass
    ------------   -----------------  -----------------  -----------------  -----------------
         BR           6.423916093620     0.000000000000     0.000000000000    78.918337600000
         O            0.000000000000    -0.213181893939     2.962553882498    15.994914619570
         H           -0.660514082905     1.093660097847     1.890455559742     1.007825032230
         H            1.740672087586    -0.319441193974     2.339150241245     1.007825032230
         O            0.000000000000     0.213181893939    -2.962553882498    15.994914619570
         H           -0.660514082905    -1.093660097847    -1.890455559742     1.007825032230
         H            1.740672087586     0.319441193974    -2.339150241245     1.007825032230

  Charge       = -1
  Multiplicity = 1
  Basis Set: AUG-CC-PVTZ
    Blend: AUG-CC-PVTZ
  Basis Set: (AUG-CC-PVTZ AUX)
    Blend: AUG-CC-PVTZ-JKFIT

    Orbital Energies [Eh]
    ---------------------

    Doubly Occupied:

       1A   -489.754458     2A    -64.894544     3A    -58.249060
       4A    -58.249023     5A    -58.249013     6A    -20.426027
       7A    -20.426023     8A     -9.566820     9A     -7.174400
      10A     -7.174138    11A     -7.174069    12A     -2.916112
      13A     -2.916020    14A     -2.915936    15A     -2.915603
      16A     -2.915596    17A     -1.211854    18A     -1.204771
      19A     -0.722912    20A     -0.564473    21A     -0.558673
      22A     -0.460936    23A     -0.445612    24A     -0.375527
      25A     -0.363553    26A     -0.179190    27A     -0.174600
      28A     -0.173176

  @DF-RHF Final Energy: -2724.68235909761370

   => Energetics <=

    Nuclear Repulsion Energy =            137.7694073285628917
    One-Electron Energy =               -4080.1992958501932662
    Two-Electron Energy =                1217.7475294240164203
    Total Energy =                      -2724.6823590976136984
 Dipole X            :       -232.0009771          226.9973793           -5.0035978
 Dipole Y            :          0.0000000            0.0000000            0.0000000
 Dipole Z            :         -0.0000000            0.0000000           -0.0000000
 Magnitude           :                                                    5.0035978
  Basis Set: (AUG-CC-PVTZ AUX)
    Blend: AUG-CC-PVTZ-RI
	 Reference Energy          =   -2724.6823590976136984 [Eh]
	 Singles Energy            =      -0.0000000000000000 [Eh]
	 Same-Spin Energy          =      -0.2288134078361689 [Eh]
	 Opposite-Spin Energy      =      -0.6398000623223906 [Eh]
	 Correlation Energy        =      -0.8686134701585595 [Eh]
	 Total Energy              =   -2725.5509725677720780 [Eh]

	 ================> DF-SCS-MP2 Energies <==================
	-----------------------------------------------------------
	 SCS Same-Spin Scale       =       0.3333333333333333 [-]
	 SCS Opposite-Spin Scale   =       1.2000000000000000 [-]
	 SCS Same-Spin Energy      =      -0.0762711359453896 [Eh]
	 SCS Opposite-Spin Energy  =      -0.7677600747868687 [Eh]
	 SCS Correlation Energy    =      -0.8440312107322583 [Eh]
	 SCS Total Energy          =   -2725.5263903083459809 [Eh]
	-----------------------------------------------------------

*** Psi4 exiting successfully. Buy a developer a beer!
