                               Psi4 1.8.2 release

  ==> Input File <==

--------------------------------------------------------------------------
MEMORY 60 GB

molecule dimer {
-1 1
Br     5.665650     0.000000     0.000000
--
0 1
O      0.000000    -0.112811     1.567716
H     -0.349529     0.578740     1.000386
H      0.921124    -0.169041     1.237825
--
0 1
O      0.000000     0.112811    -1.567716
H     -0.349529    -0.578740    -1.000386
H      0.921124     0.169041    -1.237825

units ang
no_reorient
no_com
symmetry c1
}

set {
basis        aug-cc-pVTZ
scf_type     df
}

energy("mp2", bsse_type="cp")
--------------------------------------------------------------------------

                               Psi4 1.8.2 release
    Molecular point group: c1
  Charge       = -1
  Multiplicity = 1
  Basis Set: AUG-CC-PVTZ
    Blend: AUG-CC-PVTZ
  Basis Set: (AUG-CC-PVTZ AUX)
    Blend: AUG-CC-PVTZ-JKFIT
  @DF-RHF Final Energy: -2572.53366877917097
    Total Energy =                      -2572.5336687791709664
 Dipole X            :       -385.4348253          374.7284388          -10.7063865
 Dipole Y            :          0.0000000            0.0000000            0.0000000
 Dipole Z            :         -0.0000000            0.0000000           -0.0000000
 Magnitude           :                                                   10.7063865
  Basis Set: (AUG-CC-PVTZ AUX)
    Blend: AUG-CC-PVTZ-RI
	 Reference Energy          =   -2572.5336687791709664 [Eh]
	 Singles Energy            =      -0.0000000000000000 [Eh]
	 Same-Spin Energy          =      -0.0867936345833310 [Eh]
	 Opposite-Spin Energy      =      -0.2012428040943268 [Eh]
	 Correlation Energy        =      -0.2880364386776578 [Eh]
	 Total Energy              =   -2572.8217052178488302 [Eh]
	 SCS Total Energy          =   -2572.8040913556119449 [Eh]
                               Psi4 1.8.2 release
    Molecular point group: c1
  Basis Set: AUG-CC-PVTZ
    Blend: AUG-CC-PVTZ
  Basis Set: (AUG-CC-PVTZ AUX)
    Blend: AUG-CC-PVTZ-JKFIT
  @DF-RHF Final Energy:   -76.05874425424562
    Total Energy =                        -76.0587442542456245
  Basis Set: (AUG-CC-PVTZ AUX)
                               Psi4 1.8.2 release
  @DF-RHF Final Energy:  -152.11682900049709
    Total Energy =                       -152.1168290004970913
                               Psi4 1.8.2 release
  @DF-RHF Final Energy: -2648.59810440086358
    Total Energy =                      -2648.5981044008640310
                               Psi4 1.8.2 release
  @DF-RHF Final Energy: -2648.59810440094861
    Total Energy =                      -2648.5981044009486141
                               Psi4 1.8.2 release
  Multiplicity = 1
  @DF-RHF Final Energy:   -76.05874425419971
    Total Energy =                        -76.0587442541997092
	 Singles Energy            =      -0.0000000000000000 [Eh]
	 Same-Spin Energy          =      -0.0686829425604982 [Eh]
	 Opposite-Spin Energy      =      -0.2163594487350588 [Eh]
	 Correlation Energy        =      -0.2850423912955570 [Eh]
	 Total Energy              =     -76.3437866454952712 [Eh]
	 SCS Total Energy          =     -76.3412699068686180 [Eh]
                               Psi4 1.8.2 release
    Molecular point group: c1

    Geometry (in Bohr), charge = -1, multiplicity = 1:

       Center              X                  Y                   Z               Mass
    ------------   -----------------  -----------------  -----------------  -----------------
         BR          10.706526822700     0.000000000000     0.000000000000    78.918337600000
         O            0.000000000000    -0.213181893939     2.962553882498    15.994914619570
         H           -0.660514082905     1.093660097847     1.890455559742     1.007825032230
         H            1.740672087586    -0.319441193974     2.339150241245     1.007825032230
         O            0.000000000000     0.213181893939    -2.962553882498    15.994914619570
         H           -0.660514082905    -1.093660097847    -1.890455559742     1.007825032230
         H            1.740672087586     0.319441193974    -2.339150241245     1.007825032230

  Charge       = -1
  Multiplicity = 1
  Basis Set: AUG-CC-PVTZ
    Blend: AUG-CC-PVTZ
  Basis Set: (AUG-CC-PVTZ AUX)
    Blend: AUG-CC-PVTZ-JKFIT

    Orbital Energies [Eh]
    ---------------------

    Doubly Occupied:

       1A   -489.732059     2A    -64.872158     3A    -58.226639
       4A    -58.226617     5A    -58.226617     6A    -20.488225
       7A    -20.488221     8A     -9.544568     9A     -7.151987
      10A     -7.151870    11A     -7.151868    12A     -2.893668
      13A     -2.893624    14A     -2.893621    15A     -2.893477
      16A     -2.893477    17A     -1.272292    18A     -1.265120
      19A     -0.697697    20A     -0.624538    21A     -0.618445
      22A     -0.518880    23A     -0.502855    24A     -0.435048
      25A     -0.422969    26A     -0.151499    27A     -0.150798
      28A     -0.150789

  @DF-RHF Final Energy: -2724.66153274057206

   => Energetics <=

    Nuclear Repulsion Energy =             99.8530917362890023
    One-Electron Energy =               -4003.9499914695370535
    Two-Electron Energy =                1179.4353669926763359
    Total Energy =                      -2724.6615327405716016
 Dipole X            :       -386.6408983          376.8887548           -9.7521435
 Dipole Y            :         -0.0000000            0.0000000           -0.0000000
 Dipole Z            :         -0.0000000            0.0000000           -0.0000000
 Magnitude           :                                                    9.7521435
  Basis Set: (AUG-CC-PVTZ AUX)
    Blend: AUG-CC-PVTZ-RI
	 Reference Energy          =   -2724.6615327405720564 [Eh]
	 Singles Energy            =      -0.0000000000000000 [Eh]
	 Same-Spin Energy          =      -0.2251389498567984 [Eh]
	 Opposite-Spin Energy      =      -0.6344917096477155 [Eh]
	 Correlation Energy        =      -0.8596306595045139 [Eh]
	 Total Energy              =   -2725.5211634000766026 [Eh]

	 ================> DF-SCS-MP2 Energies <==================
	-----------------------------------------------------------
	 SCS Same-Spin Scale       =       0.3333333333333333 [-]
	 SCS Opposite-Spin Scale   =       1.2000000000000000 [-]
	 SCS Same-Spin Energy      =      -0.0750463166189328 [Eh]
	 SCS Opposite-Spin Energy  =      -0.7613900515772586 [Eh]
	 SCS Correlation Energy    =      -0.8364363681961914 [Eh]
	 SCS Total Energy          =   -2725.4979691087683022 [Eh]
	-----------------------------------------------------------

*** Psi4 exiting successfully. Buy a developer a beer!
