                               Psi4 1.9 release

  ==> Input File <==

--------------------------------------------------------------------------
MEMORY 60 GB

molecule dimer {
-1 1
Br     2.549543     0.000000     0.000000
--
0 1
O      0.000000    -0.112811     1.567716
H     -0.349529     0.578740     1.000386
H      0.921124    -0.169041     1.237825
O      0.000000     0.112811    -1.567716
H     -0.349529    -0.578740    -1.000386
H      0.921124     0.169041    -1.237825

units ang
no_reorient
no_com
symmetry c1
}

set {
basis        aug-cc-pVTZ
scf_type     df
}

energy("mp2", bsse_type="cp")
--------------------------------------------------------------------------

                               Psi4 1.9 release
    Molecular point group: c1
  Charge       = 0
  Multiplicity = 1
  Basis Set: AUG-CC-PVTZ
    Blend: AUG-CC-PVTZ
  Basis Set: (AUG-CC-PVTZ AUX)
    Blend: AUG-CC-PVTZ-JKFIT
  @DF-RHF Final Energy:  -152.11689044399134
    Total Energy =                       -152.1168904439913661
 Dipole X            :         -1.4580009            2.1603160            0.7023151
 Dipole Y            :          0.0000000            0.0000000            0.0000000
 Dipole Z            :          0.0000000            0.0000000            0.0000000
 Magnitude           :                                                    0.7023151
  Basis Set: (AUG-CC-PVTZ AUX)
    Blend: AUG-CC-PVTZ-RI
	 Reference Energy          =    -152.1168904439913376 [Eh]
	 Singles Energy            =      -0.0000000000000000 [Eh]
	 Same-Spin Energy          =      -0.1383337893126828 [Eh]
	 Opposite-Spin Energy      =      -0.4344966902061070 [Eh]
	 Correlation Energy        =      -0.5728304795187897 [Eh]
	 Total Energy              =    -152.6897209235101229 [Eh]
	 SCS Total Energy          =    -152.6843977353428841 [Eh]
                               Psi4 1.9 release
    Molecular point group: c1
  Multiplicity = 1
  Basis Set: AUG-CC-PVTZ
    Blend: AUG-CC-PVTZ
  Basis Set: (AUG-CC-PVTZ AUX)
    Blend: AUG-CC-PVTZ-JKFIT
  @DF-RHF Final Energy: -2572.53370614775440
    Total Energy =                      -2572.5337061477548559
  Basis Set: (AUG-CC-PVTZ AUX)
	 Singles Energy            =      -0.0000000000000000 [Eh]
	 Same-Spin Energy          =      -0.0899207615271977 [Eh]
	 Opposite-Spin Energy      =      -0.2095658129798054 [Eh]
	 Correlation Energy        =      -0.2994865745070031 [Eh]
	 Total Energy              =   -2572.8331927222616287 [Eh]
	 SCS Total Energy          =   -2572.8151587105057843 [Eh]
                               Psi4 1.9 release
    Molecular point group: c1

    Geometry (in Bohr), charge = -1, multiplicity = 1:

       Center              X                  Y                   Z               Mass
    ------------   -----------------  -----------------  -----------------  -----------------
         BR           4.817938015078     0.000000000000     0.000000000000    78.918337600000
         O            0.000000000000    -0.213181893939     2.962553882498    15.994914619570
         H           -0.660514082905     1.093660097847     1.890455559742     1.007825032230
         H            1.740672087586    -0.319441193974     2.339150241245     1.007825032230
         O            0.000000000000     0.213181893939    -2.962553882498    15.994914619570
         H           -0.660514082905    -1.093660097847    -1.890455559742     1.007825032230
         H            1.740672087586     0.319441193974    -2.339150241245     1.007825032230

  Charge       = -1
  Multiplicity = 1
  Basis Set: AUG-CC-PVTZ
    Blend: AUG-CC-PVTZ
  Basis Set: (AUG-CC-PVTZ AUX)
    Blend: AUG-CC-PVTZ-JKFIT

    Orbital Energies [Eh]
    ---------------------

    Doubly Occupied:

       1A   -489.764333     2A    -64.905269     3A    -58.259716
       4A    -58.259698     5A    -58.259668     6A    -20.381336
       7A    -20.381333     8A     -9.578259     9A     -7.185863
      10A     -7.185862    11A     -7.185564    12A     -2.927502
      13A     -2.927437    14A     -2.927275    15A     -2.927140
      16A     -2.927120    17A     -1.174334    18A     -1.166766
      19A     -0.751060    20A     -0.526901    21A     -0.526623
      22A     -0.428049    23A     -0.413675    24A     -0.336355
      25A     -0.324828    26A     -0.193233    27A     -0.190541
      28A     -0.188982

  @DF-RHF Final Energy: -2724.66811369817560

   => Energetics <=

    Nuclear Repulsion Energy =            164.7127141813666924
    One-Electron Energy =               -4134.3522111967904493
    Two-Electron Energy =                1244.9713833172484101
    Total Energy =                      -2724.6681136981751479
 Dipole X            :       -173.9816599          170.7881465           -3.1935134
 Dipole Y            :          0.0000000            0.0000000            0.0000000
 Dipole Z            :          0.0000000            0.0000000            0.0000000
 Magnitude           :                                                    3.1935134
  Basis Set: (AUG-CC-PVTZ AUX)
    Blend: AUG-CC-PVTZ-RI
	 Reference Energy          =   -2724.6681136981756026 [Eh]
	 Singles Energy            =      -0.0000000000000000 [Eh]
	 Same-Spin Energy          =      -0.2364252735286087 [Eh]
	 Opposite-Spin Energy      =      -0.6501969052357834 [Eh]
	 Correlation Energy        =      -0.8866221787643921 [Eh]
	 Total Energy              =   -2725.5547358769399580 [Eh]

	 ================> DF-SCS-MP2 Energies <==================
	-----------------------------------------------------------
	 SCS Same-Spin Scale       =       0.3333333333333333 [-]
	 SCS Opposite-Spin Scale   =       1.2000000000000000 [-]
	 SCS Same-Spin Energy      =      -0.0788084245095362 [Eh]
	 SCS Opposite-Spin Energy  =      -0.7802362862829401 [Eh]
	 SCS Correlation Energy    =      -0.8590447107924762 [Eh]
	 SCS Total Energy          =   -2725.5271584089682619 [Eh]
	-----------------------------------------------------------

*** Psi4 exiting successfully. Buy a developer a beer!
