                               Psi4 1.8.2 release

  ==> Input File <==

--------------------------------------------------------------------------
MEMORY 60 GB

molecule dimer {
0 1
Gh(Br)     3.399390     0.000000     0.000000
O          0.000000    -0.112811     1.567716
H         -0.349529     0.578740     1.000386
H          0.921124    -0.169041     1.237825
Gh(O)      0.000000     0.112811    -1.567716
Gh(H)     -0.349529    -0.578740    -1.000386
Gh(H)      0.921124     0.169041    -1.237825

units ang
no_reorient
no_com
symmetry c1
}

set {
basis        aug-cc-pVTZ
scf_type     df
}

energy("mp2")
--------------------------------------------------------------------------

    Molecular point group: c1

    Geometry (in Angstrom), charge = 0, multiplicity = 1:

       Center              X                  Y                   Z               Mass
    ------------   -----------------  -----------------  -----------------  -----------------
      Gh(BR)          3.399390000000     0.000000000000     0.000000000000    78.918337600000
         O            0.000000000000    -0.112811000000     1.567716000000    15.994914619570
         H           -0.349529000000     0.578740000000     1.000386000000     1.007825032230
         H            0.921124000000    -0.169041000000     1.237825000000     1.007825032230
      Gh(O)           0.000000000000     0.112811000000    -1.567716000000    15.994914619570
      Gh(H)          -0.349529000000    -0.578740000000    -1.000386000000     1.007825032230
      Gh(H)           0.921124000000     0.169041000000    -1.237825000000     1.007825032230

  Charge       = 0
  Multiplicity = 1
  Basis Set: AUG-CC-PVTZ
    Blend: AUG-CC-PVTZ
  Basis Set: (AUG-CC-PVTZ AUX)
    Blend: AUG-CC-PVTZ-JKFIT

    Orbital Energies [Eh]
    ---------------------

    Doubly Occupied:

       1A    -20.571100     2A     -1.349826     3A     -0.703245
       4A     -0.589969     5A     -0.510440

  @DF-RHF Final Energy:   -76.05875844740753

   => Energetics <=

    Nuclear Repulsion Energy =              9.0822270455069987
    One-Electron Energy =                -122.8328083708723000
    Two-Electron Energy =                  37.6918228779577689
    Total Energy =                        -76.0587584474075413
 Dipole X            :         -0.7102658            1.0801580            0.3698922
 Dipole Y            :          1.3477462           -0.9312362            0.4165099
 Dipole Z            :        -28.5164144           27.9300369           -0.5863776
 Magnitude           :                                                    0.8087889
  Basis Set: (AUG-CC-PVTZ AUX)
    Blend: AUG-CC-PVTZ-RI
	 Reference Energy          =     -76.0587584474075271 [Eh]
	 Singles Energy            =      -0.0000000000000000 [Eh]
	 Same-Spin Energy          =      -0.0686985304435833 [Eh]
	 Opposite-Spin Energy      =      -0.2166458890389464 [Eh]
	 Correlation Energy        =      -0.2853444194825296 [Eh]
	 Total Energy              =     -76.3441028668900543 [Eh]

	 ================> DF-SCS-MP2 Energies <==================
	-----------------------------------------------------------
	 SCS Same-Spin Scale       =       0.3333333333333333 [-]
	 SCS Opposite-Spin Scale   =       1.2000000000000000 [-]
	 SCS Same-Spin Energy      =      -0.0228995101478611 [Eh]
	 SCS Opposite-Spin Energy  =      -0.2599750668467356 [Eh]
	 SCS Correlation Energy    =      -0.2828745769945967 [Eh]
	 SCS Total Energy          =     -76.3416330244021282 [Eh]
	-----------------------------------------------------------

*** Psi4 exiting successfully. Buy a developer a beer!
