                               Psi4 1.8.2 release

  ==> Input File <==

--------------------------------------------------------------------------
MEMORY 60 GB

molecule dimer {
-1 1
Br         4.249238     0.000000     0.000000
Gh(O)      0.000000    -0.112811     1.567716
Gh(H)     -0.349529     0.578740     1.000386
Gh(H)      0.921124    -0.169041     1.237825
Gh(O)      0.000000     0.112811    -1.567716
Gh(H)     -0.349529    -0.578740    -1.000386
Gh(H)      0.921124     0.169041    -1.237825

units ang
no_reorient
no_com
symmetry c1
}

set {
basis        aug-cc-pVTZ
scf_type     df
}

energy("mp2")
--------------------------------------------------------------------------

    Molecular point group: c1

    Geometry (in Angstrom), charge = -1, multiplicity = 1:

       Center              X                  Y                   Z               Mass
    ------------   -----------------  -----------------  -----------------  -----------------
         BR           4.249238000000     0.000000000000     0.000000000000    78.918337600000
      Gh(O)           0.000000000000    -0.112811000000     1.567716000000    15.994914619570
      Gh(H)          -0.349529000000     0.578740000000     1.000386000000     1.007825032230
      Gh(H)           0.921124000000    -0.169041000000     1.237825000000     1.007825032230
      Gh(O)           0.000000000000     0.112811000000    -1.567716000000    15.994914619570
      Gh(H)          -0.349529000000    -0.578740000000    -1.000386000000     1.007825032230
      Gh(H)           0.921124000000     0.169041000000    -1.237825000000     1.007825032230

  Charge       = -1
  Multiplicity = 1
  Basis Set: AUG-CC-PVTZ
    Blend: AUG-CC-PVTZ
  Basis Set: (AUG-CC-PVTZ AUX)
    Blend: AUG-CC-PVTZ-JKFIT

    Orbital Energies [Eh]
    ---------------------

    Doubly Occupied:

       1A   -489.720530     2A    -64.860568     3A    -58.215044
       4A    -58.215043     5A    -58.215043     6A     -9.532885
       7A     -7.140229     8A     -7.140227     9A     -7.140223
      10A     -2.881900    11A     -2.881898    12A     -2.881897
      13A     -2.881895    14A     -2.881892    15A     -0.685998
      16A     -0.139340    17A     -0.139335    18A     -0.139334

  @DF-RHF Final Energy: -2572.53367478153359

   => Energetics <=

    Nuclear Repulsion Energy =              0.0000000000000000
    One-Electron Energy =               -3593.6807836757011501
    Two-Electron Energy =                1021.1471088941675589
    Total Energy =                      -2572.5336747815335912
 Dipole X            :       -289.0761818          281.0463622           -8.0298197
 Dipole Y            :          0.0000000            0.0000000            0.0000000
 Dipole Z            :          0.0000000            0.0000000            0.0000000
 Magnitude           :                                                    8.0298197
  Basis Set: (AUG-CC-PVTZ AUX)
    Blend: AUG-CC-PVTZ-RI
	 Reference Energy          =   -2572.5336747815335912 [Eh]
	 Singles Energy            =      -0.0000000000000000 [Eh]
	 Same-Spin Energy          =      -0.0871384770289956 [Eh]
	 Opposite-Spin Energy      =      -0.2020268777252975 [Eh]
	 Correlation Energy        =      -0.2891653547542931 [Eh]
	 Total Energy              =   -2572.8228401362880504 [Eh]

	 ================> DF-SCS-MP2 Energies <==================
	-----------------------------------------------------------
	 SCS Same-Spin Scale       =       0.3333333333333333 [-]
	 SCS Opposite-Spin Scale   =       1.2000000000000000 [-]
	 SCS Same-Spin Energy      =      -0.0290461590096652 [Eh]
	 SCS Opposite-Spin Energy  =      -0.2424322532703570 [Eh]
	 SCS Correlation Energy    =      -0.2714784122800222 [Eh]
	 SCS Total Energy          =   -2572.8051531938135668 [Eh]
	-----------------------------------------------------------

*** Psi4 exiting successfully. Buy a developer a beer!
