                               Psi4 1.8.2 release

  ==> Input File <==

--------------------------------------------------------------------------
MEMORY 60 GB

molecule dimer {
-1 1
Br     4.249238     0.000000     0.000000
--
0 1
O      0.000000    -0.112811     1.567716
H     -0.349529     0.578740     1.000386
H      0.921124    -0.169041     1.237825
--
0 1
O      0.000000     0.112811    -1.567716
H     -0.349529    -0.578740    -1.000386
H      0.921124     0.169041    -1.237825

units ang
no_reorient
no_com
symmetry c1
}

set {
basis        aug-cc-pVTZ
scf_type     df
}

energy("mp2", bsse_type="cp")
--------------------------------------------------------------------------

                               Psi4 1.8.2 release
    Molecular point group: c1
  Charge       = -1
  Multiplicity = 1
  Basis Set: AUG-CC-PVTZ
    Blend: AUG-CC-PVTZ
  Basis Set: (AUG-CC-PVTZ AUX)
    Blend: AUG-CC-PVTZ-JKFIT
  @DF-RHF Final Energy: -2572.53367478134851
    Total Energy =                      -2572.5336747813480542
 Dipole X            :       -289.0761818          281.0463622           -8.0298197
 Dipole Y            :          0.0000000            0.0000000            0.0000000
 Dipole Z            :          0.0000000            0.0000000            0.0000000
 Magnitude           :                                                    8.0298197
  Basis Set: (AUG-CC-PVTZ AUX)
    Blend: AUG-CC-PVTZ-RI
	 Reference Energy          =   -2572.5336747813485090 [Eh]
	 Singles Energy            =      -0.0000000000000000 [Eh]
	 Same-Spin Energy          =      -0.0871384770290225 [Eh]
	 Opposite-Spin Energy      =      -0.2020268777253678 [Eh]
	 Correlation Energy        =      -0.2891653547543903 [Eh]
	 Total Energy              =   -2572.8228401361029682 [Eh]
	 SCS Total Energy          =   -2572.8051531936284846 [Eh]
                               Psi4 1.8.2 release
    Molecular point group: c1
  Basis Set: AUG-CC-PVTZ
    Blend: AUG-CC-PVTZ
  Basis Set: (AUG-CC-PVTZ AUX)
    Blend: AUG-CC-PVTZ-JKFIT
  @DF-RHF Final Energy:   -76.05875034506369
    Total Energy =                        -76.0587503450636859
  Basis Set: (AUG-CC-PVTZ AUX)
                               Psi4 1.8.2 release
  @DF-RHF Final Energy:  -152.11684114155781
    Total Energy =                       -152.1168411415578134
                               Psi4 1.8.2 release
  @DF-RHF Final Energy: -2648.60350573117012
    Total Energy =                      -2648.6035057311696619
                               Psi4 1.8.2 release
  @DF-RHF Final Energy: -2648.60350573113237
    Total Energy =                      -2648.6035057311319179
                               Psi4 1.8.2 release
  Multiplicity = 1
  @DF-RHF Final Energy:   -76.05875034508011
    Total Energy =                        -76.0587503450801137
	 Singles Energy            =      -0.0000000000000000 [Eh]
	 Same-Spin Energy          =      -0.0686864499035956 [Eh]
	 Opposite-Spin Energy      =      -0.2164286202169441 [Eh]
	 Correlation Energy        =      -0.2851150701205397 [Eh]
	 Total Energy              =     -76.3438654152006535 [Eh]
	 SCS Total Energy          =     -76.3413601726416431 [Eh]
                               Psi4 1.8.2 release
    Molecular point group: c1

    Geometry (in Bohr), charge = -1, multiplicity = 1:

       Center              X                  Y                   Z               Mass
    ------------   -----------------  -----------------  -----------------  -----------------
         BR           8.029896061888     0.000000000000     0.000000000000    78.918337600000
         O            0.000000000000    -0.213181893939     2.962553882498    15.994914619570
         H           -0.660514082905     1.093660097847     1.890455559742     1.007825032230
         H            1.740672087586    -0.319441193974     2.339150241245     1.007825032230
         O            0.000000000000     0.213181893939    -2.962553882498    15.994914619570
         H           -0.660514082905    -1.093660097847    -1.890455559742     1.007825032230
         H            1.740672087586     0.319441193974    -2.339150241245     1.007825032230

  Charge       = -1
  Multiplicity = 1
  Basis Set: AUG-CC-PVTZ
    Blend: AUG-CC-PVTZ
  Basis Set: (AUG-CC-PVTZ AUX)
    Blend: AUG-CC-PVTZ-JKFIT

    Orbital Energies [Eh]
    ---------------------

    Doubly Occupied:

       1A   -489.743351     2A    -64.883408     3A    -58.237917
       4A    -58.237866     5A    -58.237863     6A    -20.456689
       7A    -20.456686     8A     -9.555746     9A     -7.163275
      10A     -7.163008    11A     -7.162989    12A     -2.904994
      13A     -2.904889    14A     -2.904866    15A     -2.904522
      16A     -2.904521    17A     -1.241231    18A     -1.234107
      19A     -0.709176    20A     -0.593444    21A     -0.587417
      22A     -0.488718    23A     -0.473119    24A     -0.404530
      25A     -0.392466    26A     -0.164329    27A     -0.161842
      28A     -0.161584

  @DF-RHF Final Energy: -2724.67224174454759

   => Energetics <=

    Nuclear Repulsion Energy =            119.4947750196303247
    One-Electron Energy =               -4043.4649297389646563
    Two-Electron Energy =                1199.2979129747870957
    Total Energy =                      -2724.6722417445471365
 Dipole X            :       -290.0406432          283.2066782           -6.8339650
 Dipole Y            :         -0.0000000            0.0000000           -0.0000000
 Dipole Z            :          0.0000000            0.0000000            0.0000000
 Magnitude           :                                                    6.8339650
  Basis Set: (AUG-CC-PVTZ AUX)
    Blend: AUG-CC-PVTZ-RI
	 Reference Energy          =   -2724.6722417445475912 [Eh]
	 Singles Energy            =      -0.0000000000000000 [Eh]
	 Same-Spin Energy          =      -0.2261522515467335 [Eh]
	 Opposite-Spin Energy      =      -0.6357954694625282 [Eh]
	 Correlation Energy        =      -0.8619477210092616 [Eh]
	 Total Energy              =   -2725.5341894655566648 [Eh]

	 ================> DF-SCS-MP2 Energies <==================
	-----------------------------------------------------------
	 SCS Same-Spin Scale       =       0.3333333333333333 [-]
	 SCS Opposite-Spin Scale   =       1.2000000000000000 [-]
	 SCS Same-Spin Energy      =      -0.0753840838489112 [Eh]
	 SCS Opposite-Spin Energy  =      -0.7629545633550338 [Eh]
	 SCS Correlation Energy    =      -0.8383386472039449 [Eh]
	 SCS Total Energy          =   -2725.5105803917513185 [Eh]
	-----------------------------------------------------------

*** Psi4 exiting successfully. Buy a developer a beer!
