                               Psi4 1.8.2 release

  ==> Input File <==

--------------------------------------------------------------------------
MEMORY 60 GB

molecule dimer {
-1 1
Br         3.116108     0.000000     0.000000
O          0.000000    -0.112811     1.567716
H         -0.349529     0.578740     1.000386
H          0.921124    -0.169041     1.237825
O          0.000000     0.112811    -1.567716
H         -0.349529    -0.578740    -1.000386
H          0.921124     0.169041    -1.237825

units ang
no_reorient
no_com
symmetry c1
}

set {
basis        aug-cc-pVTZ
scf_type     df
}

energy("mp2")
--------------------------------------------------------------------------

    Molecular point group: c1

    Geometry (in Angstrom), charge = -1, multiplicity = 1:

       Center              X                  Y                   Z               Mass
    ------------   -----------------  -----------------  -----------------  -----------------
         BR           3.116108000000     0.000000000000     0.000000000000    78.918337600000
         O            0.000000000000    -0.112811000000     1.567716000000    15.994914619570
         H           -0.349529000000     0.578740000000     1.000386000000     1.007825032230
         H            0.921124000000    -0.169041000000     1.237825000000     1.007825032230
         O            0.000000000000     0.112811000000    -1.567716000000    15.994914619570
         H           -0.349529000000    -0.578740000000    -1.000386000000     1.007825032230
         H            0.921124000000     0.169041000000    -1.237825000000     1.007825032230

  Charge       = -1
  Multiplicity = 1
  Basis Set: AUG-CC-PVTZ
    Blend: AUG-CC-PVTZ
  Basis Set: (AUG-CC-PVTZ AUX)
    Blend: AUG-CC-PVTZ-JKFIT

    Orbital Energies [Eh]
    ---------------------

    Doubly Occupied:

       1A   -489.758361     2A    -64.898553     3A    -58.253054
       4A    -58.253038     5A    -58.253025     6A    -20.412900
       7A    -20.412896     8A     -9.570882     9A     -7.178466
      10A     -7.178260    11A     -7.178153    12A     -2.920146
      13A     -2.920089    14A     -2.919956    15A     -2.919723
      16A     -2.919707    17A     -1.199886    18A     -1.192782
      19A     -0.729796    20A     -0.552798    21A     -0.547461
      22A     -0.450057    23A     -0.434773    24A     -0.363493
      25A     -0.351596    26A     -0.184802    27A     -0.180391
      28A     -0.178068

  @DF-RHF Final Energy: -2724.68392533526276

   => Energetics <=

    Nuclear Repulsion Energy =            145.5699701961470964
    One-Electron Energy =               -4095.8815693790711521
    Two-Electron Energy =                1225.6276738476615265
    Total Energy =                      -2724.6839253352627566
 Dipole X            :       -212.6505684          208.2609904           -4.3895780
 Dipole Y            :         -0.0000000            0.0000000           -0.0000000
 Dipole Z            :          0.0000000            0.0000000            0.0000000
 Magnitude           :                                                    4.3895780
  Basis Set: (AUG-CC-PVTZ AUX)
    Blend: AUG-CC-PVTZ-RI
	 Reference Energy          =   -2724.6839253352627566 [Eh]
	 Singles Energy            =      -0.0000000000000000 [Eh]
	 Same-Spin Energy          =      -0.2306162797934819 [Eh]
	 Opposite-Spin Energy      =      -0.6424261865382923 [Eh]
	 Correlation Energy        =      -0.8730424663317742 [Eh]
	 Total Energy              =   -2725.5569678015945101 [Eh]

	 ================> DF-SCS-MP2 Energies <==================
	-----------------------------------------------------------
	 SCS Same-Spin Scale       =       0.3333333333333333 [-]
	 SCS Opposite-Spin Scale   =       1.2000000000000000 [-]
	 SCS Same-Spin Energy      =      -0.0768720932644940 [Eh]
	 SCS Opposite-Spin Energy  =      -0.7709114238459508 [Eh]
	 SCS Correlation Energy    =      -0.8477835171104448 [Eh]
	 SCS Total Energy          =   -2725.5317088523734128 [Eh]
	-----------------------------------------------------------

*** Psi4 exiting successfully. Buy a developer a beer!
