                               Psi4 1.8.2 release

  ==> Input File <==

--------------------------------------------------------------------------
MEMORY 60 GB

molecule dimer {
-1 1
Br         3.965955     0.000000     0.000000
O          0.000000    -0.112811     1.567716
H         -0.349529     0.578740     1.000386
H          0.921124    -0.169041     1.237825
O          0.000000     0.112811    -1.567716
H         -0.349529    -0.578740    -1.000386
H          0.921124     0.169041    -1.237825

units ang
no_reorient
no_com
symmetry c1
}

set {
basis        aug-cc-pVTZ
scf_type     df
}

energy("mp2")
--------------------------------------------------------------------------

    Molecular point group: c1

    Geometry (in Angstrom), charge = -1, multiplicity = 1:

       Center              X                  Y                   Z               Mass
    ------------   -----------------  -----------------  -----------------  -----------------
         BR           3.965955000000     0.000000000000     0.000000000000    78.918337600000
         O            0.000000000000    -0.112811000000     1.567716000000    15.994914619570
         H           -0.349529000000     0.578740000000     1.000386000000     1.007825032230
         H            0.921124000000    -0.169041000000     1.237825000000     1.007825032230
         O            0.000000000000     0.112811000000    -1.567716000000    15.994914619570
         H           -0.349529000000    -0.578740000000    -1.000386000000     1.007825032230
         H            0.921124000000     0.169041000000    -1.237825000000     1.007825032230

  Charge       = -1
  Multiplicity = 1
  Basis Set: AUG-CC-PVTZ
    Blend: AUG-CC-PVTZ
  Basis Set: (AUG-CC-PVTZ AUX)
    Blend: AUG-CC-PVTZ-JKFIT

    Orbital Energies [Eh]
    ---------------------

    Doubly Occupied:

       1A   -489.746750     2A    -64.886797     3A    -58.241313
       4A    -58.241260     5A    -58.241255     6A    -20.447746
       7A    -20.447742     8A     -9.559111     9A     -7.166663
      10A     -7.166377    11A     -7.166347    12A     -2.908389
      13A     -2.908278    14A     -2.908241    15A     -2.907868
      16A     -2.907867    17A     -1.232529    18A     -1.225421
      19A     -0.712929    20A     -0.584803    21A     -0.578798
      22A     -0.480375    23A     -0.464886    24A     -0.395978
      25A     -0.383930    26A     -0.168625    27A     -0.165414
      28A     -0.164944

  @DF-RHF Final Energy: -2724.67557577367597

   => Energetics <=

    Nuclear Repulsion Energy =            124.8654225025372142
    One-Electron Energy =               -4054.2607204153368912
    Two-Electron Energy =                1204.7197221391240873
    Total Energy =                      -2724.6755757736755186
 Dipole X            :       -270.6992874          264.4702232           -6.2290642
 Dipole Y            :         -0.0000000            0.0000000           -0.0000000
 Dipole Z            :          0.0000000            0.0000000            0.0000000
 Magnitude           :                                                    6.2290642
  Basis Set: (AUG-CC-PVTZ AUX)
    Blend: AUG-CC-PVTZ-RI
	 Reference Energy          =   -2724.6755757736759733 [Eh]
	 Singles Energy            =      -0.0000000000000000 [Eh]
	 Same-Spin Energy          =      -0.2267073535117966 [Eh]
	 Opposite-Spin Energy      =      -0.6366101460073132 [Eh]
	 Correlation Energy        =      -0.8633174995191099 [Eh]
	 Total Energy              =   -2725.5388932731952991 [Eh]

	 ================> DF-SCS-MP2 Energies <==================
	-----------------------------------------------------------
	 SCS Same-Spin Scale       =       0.3333333333333333 [-]
	 SCS Opposite-Spin Scale   =       1.2000000000000000 [-]
	 SCS Same-Spin Energy      =      -0.0755691178372655 [Eh]
	 SCS Opposite-Spin Energy  =      -0.7639321752087759 [Eh]
	 SCS Correlation Energy    =      -0.8395012930460414 [Eh]
	 SCS Total Energy          =   -2725.5150770667219149 [Eh]
	-----------------------------------------------------------

*** Psi4 exiting successfully. Buy a developer a beer!
