                               Psi4 1.8.2 release

  ==> Input File <==

--------------------------------------------------------------------------
MEMORY 60 GB

molecule dimer {
-1 1
Br         5.665650     0.000000     0.000000
O          0.000000    -0.112811     1.567716
H         -0.349529     0.578740     1.000386
H          0.921124    -0.169041     1.237825
O          0.000000     0.112811    -1.567716
H         -0.349529    -0.578740    -1.000386
H          0.921124     0.169041    -1.237825

units ang
no_reorient
no_com
symmetry c1
}

set {
basis        aug-cc-pVTZ
scf_type     df
}

energy("mp2")
--------------------------------------------------------------------------

    Molecular point group: c1

    Geometry (in Angstrom), charge = -1, multiplicity = 1:

       Center              X                  Y                   Z               Mass
    ------------   -----------------  -----------------  -----------------  -----------------
         BR           5.665650000000     0.000000000000     0.000000000000    78.918337600000
         O            0.000000000000    -0.112811000000     1.567716000000    15.994914619570
         H           -0.349529000000     0.578740000000     1.000386000000     1.007825032230
         H            0.921124000000    -0.169041000000     1.237825000000     1.007825032230
         O            0.000000000000     0.112811000000    -1.567716000000    15.994914619570
         H           -0.349529000000    -0.578740000000    -1.000386000000     1.007825032230
         H            0.921124000000     0.169041000000    -1.237825000000     1.007825032230

  Charge       = -1
  Multiplicity = 1
  Basis Set: AUG-CC-PVTZ
    Blend: AUG-CC-PVTZ
  Basis Set: (AUG-CC-PVTZ AUX)
    Blend: AUG-CC-PVTZ-JKFIT

    Orbital Energies [Eh]
    ---------------------

    Doubly Occupied:

       1A   -489.732059     2A    -64.872158     3A    -58.226639
       4A    -58.226617     5A    -58.226617     6A    -20.488225
       7A    -20.488221     8A     -9.544568     9A     -7.151987
      10A     -7.151870    11A     -7.151868    12A     -2.893668
      13A     -2.893624    14A     -2.893621    15A     -2.893477
      16A     -2.893477    17A     -1.272292    18A     -1.265120
      19A     -0.697697    20A     -0.624538    21A     -0.618445
      22A     -0.518880    23A     -0.502855    24A     -0.435048
      25A     -0.422969    26A     -0.151499    27A     -0.150798
      28A     -0.150789

  @DF-RHF Final Energy: -2724.66153274046974

   => Energetics <=

    Nuclear Repulsion Energy =             99.8530917362890023
    One-Electron Energy =               -4003.9499914695052212
    Two-Electron Energy =                1179.4353669927463670
    Total Energy =                      -2724.6615327404697382
 Dipole X            :       -386.6408983          376.8887548           -9.7521435
 Dipole Y            :          0.0000000            0.0000000            0.0000000
 Dipole Z            :         -0.0000000            0.0000000           -0.0000000
 Magnitude           :                                                    9.7521435
  Basis Set: (AUG-CC-PVTZ AUX)
    Blend: AUG-CC-PVTZ-RI
	 Reference Energy          =   -2724.6615327404697382 [Eh]
	 Singles Energy            =      -0.0000000000000000 [Eh]
	 Same-Spin Energy          =      -0.2251389498569976 [Eh]
	 Opposite-Spin Energy      =      -0.6344917096482268 [Eh]
	 Correlation Energy        =      -0.8596306595052243 [Eh]
	 Total Energy              =   -2725.5211633999747391 [Eh]

	 ================> DF-SCS-MP2 Energies <==================
	-----------------------------------------------------------
	 SCS Same-Spin Scale       =       0.3333333333333333 [-]
	 SCS Opposite-Spin Scale   =       1.2000000000000000 [-]
	 SCS Same-Spin Energy      =      -0.0750463166189992 [Eh]
	 SCS Opposite-Spin Energy  =      -0.7613900515778721 [Eh]
	 SCS Correlation Energy    =      -0.8364363681968713 [Eh]
	 SCS Total Energy          =   -2725.4979691086664388 [Eh]
	-----------------------------------------------------------

*** Psi4 exiting successfully. Buy a developer a beer!
