                               Psi4 1.9 release

  ==> Input File <==

--------------------------------------------------------------------------
MEMORY 60 GB

molecule dimer {
-1 1
Br     2.691184     0.000000     0.000000
--
0 1
O      0.000000    -0.112811     1.567716
H     -0.349529     0.578740     1.000386
H      0.921124    -0.169041     1.237825
O      0.000000     0.112811    -1.567716
H     -0.349529    -0.578740    -1.000386
H      0.921124     0.169041    -1.237825

units ang
no_reorient
no_com
symmetry c1
}

set {
basis        aug-cc-pVTZ
scf_type     df
}

energy("mp2", bsse_type="cp")
--------------------------------------------------------------------------

                               Psi4 1.9 release
    Molecular point group: c1
  Charge       = 0
  Multiplicity = 1
  Basis Set: AUG-CC-PVTZ
    Blend: AUG-CC-PVTZ
  Basis Set: (AUG-CC-PVTZ AUX)
    Blend: AUG-CC-PVTZ-JKFIT
  @DF-RHF Final Energy:  -152.11688184569414
    Total Energy =                       -152.1168818456941381
 Dipole X            :         -1.4580533            2.1603160            0.7022627
 Dipole Y            :         -0.0000000            0.0000000           -0.0000000
 Dipole Z            :         -0.0000000            0.0000000           -0.0000000
 Magnitude           :                                                    0.7022627
  Basis Set: (AUG-CC-PVTZ AUX)
    Blend: AUG-CC-PVTZ-RI
	 Reference Energy          =    -152.1168818456941381 [Eh]
	 Singles Energy            =      -0.0000000000000000 [Eh]
	 Same-Spin Energy          =      -0.1383274660388589 [Eh]
	 Opposite-Spin Energy      =      -0.4344396642980473 [Eh]
	 Correlation Energy        =      -0.5727671303369062 [Eh]
	 Total Energy              =    -152.6896489760310374 [Eh]
	 SCS Total Energy          =    -152.6843185981980753 [Eh]
                               Psi4 1.9 release
    Molecular point group: c1
  Multiplicity = 1
  Basis Set: AUG-CC-PVTZ
    Blend: AUG-CC-PVTZ
  Basis Set: (AUG-CC-PVTZ AUX)
    Blend: AUG-CC-PVTZ-JKFIT
  @DF-RHF Final Energy: -2572.53370272122447
    Total Energy =                      -2572.5337027212244720
  Basis Set: (AUG-CC-PVTZ AUX)
	 Singles Energy            =      -0.0000000000000000 [Eh]
	 Same-Spin Energy          =      -0.0895417837028886 [Eh]
	 Opposite-Spin Energy      =      -0.2084636300744369 [Eh]
	 Correlation Energy        =      -0.2980054137773255 [Eh]
	 Total Energy              =   -2572.8317081350019180 [Eh]
	 SCS Total Energy          =   -2572.8137063385479451 [Eh]
                               Psi4 1.9 release
    Molecular point group: c1

    Geometry (in Bohr), charge = -1, multiplicity = 1:

       Center              X                  Y                   Z               Mass
    ------------   -----------------  -----------------  -----------------  -----------------
         BR           5.085600713214     0.000000000000     0.000000000000    78.918337600000
         O            0.000000000000    -0.213181893939     2.962553882498    15.994914619570
         H           -0.660514082905     1.093660097847     1.890455559742     1.007825032230
         H            1.740672087586    -0.319441193974     2.339150241245     1.007825032230
         O            0.000000000000     0.213181893939    -2.962553882498    15.994914619570
         H           -0.660514082905    -1.093660097847    -1.890455559742     1.007825032230
         H            1.740672087586     0.319441193974    -2.339150241245     1.007825032230

  Charge       = -1
  Multiplicity = 1
  Basis Set: AUG-CC-PVTZ
    Blend: AUG-CC-PVTZ
  Basis Set: (AUG-CC-PVTZ AUX)
    Blend: AUG-CC-PVTZ-JKFIT

    Orbital Energies [Eh]
    ---------------------

    Doubly Occupied:

       1A   -489.763246     2A    -64.903890     3A    -58.258359
       4A    -58.258342     5A    -58.258327     6A    -20.389901
       7A    -20.389898     8A     -9.576599     9A     -7.184191
      10A     -7.184128    11A     -7.183906    12A     -2.925822
      13A     -2.925787    14A     -2.925572    15A     -2.925535
      16A     -2.925498    17A     -1.180649    18A     -1.173307
      19A     -0.744450    20A     -0.533649    21A     -0.531069
      22A     -0.433355    23A     -0.418458    24A     -0.343384
      25A     -0.331720    26A     -0.190503    27A     -0.190171
      28A     -0.186214

  @DF-RHF Final Energy: -2724.67631222458976

   => Energetics <=

    Nuclear Repulsion Energy =            159.4247823849324277
    One-Electron Energy =               -4123.7303262959540007
    Two-Electron Energy =                1239.6292316864316945
    Total Energy =                      -2724.6763122245902196
 Dipole X            :       -183.6410852          180.1563410           -3.4847443
 Dipole Y            :          0.0000000            0.0000000            0.0000000
 Dipole Z            :         -0.0000000            0.0000000           -0.0000000
 Magnitude           :                                                    3.4847443
  Basis Set: (AUG-CC-PVTZ AUX)
    Blend: AUG-CC-PVTZ-RI
	 Reference Energy          =   -2724.6763122245897648 [Eh]
	 Singles Energy            =      -0.0000000000000000 [Eh]
	 Same-Spin Energy          =      -0.2346344992874521 [Eh]
	 Opposite-Spin Energy      =      -0.6478461141743246 [Eh]
	 Correlation Energy        =      -0.8824806134617766 [Eh]
	 Total Energy              =   -2725.5587928380514313 [Eh]

	 ================> DF-SCS-MP2 Energies <==================
	-----------------------------------------------------------
	 SCS Same-Spin Scale       =       0.3333333333333333 [-]
	 SCS Opposite-Spin Scale   =       1.2000000000000000 [-]
	 SCS Same-Spin Energy      =      -0.0782114997624840 [Eh]
	 SCS Opposite-Spin Energy  =      -0.7774153370091895 [Eh]
	 SCS Correlation Energy    =      -0.8556268367716735 [Eh]
	 SCS Total Energy          =   -2725.5319390613612995 [Eh]
	-----------------------------------------------------------

*** Psi4 exiting successfully. Buy a developer a beer!
