                               Psi4 1.8.2 release

  ==> Input File <==

--------------------------------------------------------------------------
MEMORY 60 GB

molecule dimer {
-1 1
Br     2.974466     0.000000     0.000000
--
0 1
O      0.000000    -0.112811     1.567716
H     -0.349529     0.578740     1.000386
H      0.921124    -0.169041     1.237825
--
0 1
O      0.000000     0.112811    -1.567716
H     -0.349529    -0.578740    -1.000386
H      0.921124     0.169041    -1.237825

units ang
no_reorient
no_com
symmetry c1
}

set {
basis        aug-cc-pVTZ
scf_type     df
}

energy("mp2", bsse_type="cp")
--------------------------------------------------------------------------

                               Psi4 1.8.2 release
    Molecular point group: c1
  Charge       = -1
  Multiplicity = 1
  Basis Set: AUG-CC-PVTZ
    Blend: AUG-CC-PVTZ
  Basis Set: (AUG-CC-PVTZ AUX)
    Blend: AUG-CC-PVTZ-JKFIT
  @DF-RHF Final Energy: -2572.53369521464219
    Total Energy =                      -2572.5336952146421936
 Dipole X            :       -202.3535042          196.7324138           -5.6210903
 Dipole Y            :         -0.0000000            0.0000000           -0.0000000
 Dipole Z            :          0.0000000            0.0000000            0.0000000
 Magnitude           :                                                    5.6210903
  Basis Set: (AUG-CC-PVTZ AUX)
    Blend: AUG-CC-PVTZ-RI
	 Reference Energy          =   -2572.5336952146421936 [Eh]
	 Singles Energy            =      -0.0000000000000000 [Eh]
	 Same-Spin Energy          =      -0.0888454704027740 [Eh]
	 Opposite-Spin Energy      =      -0.2065309166083125 [Eh]
	 Correlation Energy        =      -0.2953763870110865 [Eh]
	 Total Energy              =   -2572.8290716016531405 [Eh]
	 SCS Total Energy          =   -2572.8111474713732605 [Eh]
                               Psi4 1.8.2 release
    Molecular point group: c1
  Basis Set: AUG-CC-PVTZ
    Blend: AUG-CC-PVTZ
  Basis Set: (AUG-CC-PVTZ AUX)
    Blend: AUG-CC-PVTZ-JKFIT
  @DF-RHF Final Energy:   -76.05876499086908
    Total Energy =                        -76.0587649908690935
  Basis Set: (AUG-CC-PVTZ AUX)
                               Psi4 1.8.2 release
  @DF-RHF Final Energy:  -152.11687124541530
    Total Energy =                       -152.1168712454152967
                               Psi4 1.8.2 release
  @DF-RHF Final Energy: -2648.60918948459675
    Total Energy =                      -2648.6091894845967545
                               Psi4 1.8.2 release
  @DF-RHF Final Energy: -2648.60918948464268
    Total Energy =                      -2648.6091894846431387
                               Psi4 1.8.2 release
  Multiplicity = 1
  @DF-RHF Final Energy:   -76.05876499086276
    Total Energy =                        -76.0587649908627554
	 Singles Energy            =      -0.0000000000000000 [Eh]
	 Same-Spin Energy          =      -0.0687055786443000 [Eh]
	 Opposite-Spin Energy      =      -0.2167657173660005 [Eh]
	 Correlation Energy        =      -0.2854712960103005 [Eh]
	 Total Energy              =     -76.3442362868730555 [Eh]
	 SCS Total Energy          =     -76.3417857112500542 [Eh]
                               Psi4 1.8.2 release
    Molecular point group: c1

    Geometry (in Bohr), charge = -1, multiplicity = 1:

       Center              X                  Y                   Z               Mass
    ------------   -----------------  -----------------  -----------------  -----------------
         BR           5.620926109486     0.000000000000     0.000000000000    78.918337600000
         O            0.000000000000    -0.213181893939     2.962553882498    15.994914619570
         H           -0.660514082905     1.093660097847     1.890455559742     1.007825032230
         H            1.740672087586    -0.319441193974     2.339150241245     1.007825032230
         O            0.000000000000     0.213181893939    -2.962553882498    15.994914619570
         H           -0.660514082905    -1.093660097847    -1.890455559742     1.007825032230
         H            1.740672087586     0.319441193974    -2.339150241245     1.007825032230

  Charge       = -1
  Multiplicity = 1
  Basis Set: AUG-CC-PVTZ
    Blend: AUG-CC-PVTZ
  Basis Set: (AUG-CC-PVTZ AUX)
    Blend: AUG-CC-PVTZ-JKFIT

    Orbital Energies [Eh]
    ---------------------

    Doubly Occupied:

       1A   -489.760175     2A    -64.900466     3A    -58.254953
       4A    -58.254951     5A    -58.254937     6A    -20.405690
       7A    -20.405686     8A     -9.572870     9A     -7.180455
      10A     -7.180289    11A     -7.180155    12A     -2.922111
      13A     -2.922081    14A     -2.921910    15A     -2.921751
      16A     -2.921727    17A     -1.193572    18A     -1.186431
      19A     -0.733975    20A     -0.546616    21A     -0.541781
      22A     -0.444464    23A     -0.429219    24A     -0.357032
      25A     -0.345191    26A     -0.187299    27A     -0.183573
      28A     -0.180696

  @DF-RHF Final Energy: -2724.68329513139815

   => Energetics <=

    Nuclear Repulsion Energy =            149.8778082641417768
    One-Electron Energy =               -4104.5420917247092802
    Two-Electron Energy =                1229.9809883291693495
    Total Energy =                      -2724.6832951313981539
 Dipole X            :       -202.9773525          198.8927298           -4.0846227
 Dipole Y            :         -0.0000000            0.0000000           -0.0000000
 Dipole Z            :          0.0000000            0.0000000            0.0000000
 Magnitude           :                                                    4.0846227
  Basis Set: (AUG-CC-PVTZ AUX)
    Blend: AUG-CC-PVTZ-RI
	 Reference Energy          =   -2724.6832951313981539 [Eh]
	 Singles Energy            =      -0.0000000000000000 [Eh]
	 Same-Spin Energy          =      -0.2317585581407943 [Eh]
	 Opposite-Spin Energy      =      -0.6440131618640199 [Eh]
	 Correlation Energy        =      -0.8757717200048143 [Eh]
	 Total Energy              =   -2725.5590668514028039 [Eh]

	 ================> DF-SCS-MP2 Energies <==================
	-----------------------------------------------------------
	 SCS Same-Spin Scale       =       0.3333333333333333 [-]
	 SCS Opposite-Spin Scale   =       1.2000000000000000 [-]
	 SCS Same-Spin Energy      =      -0.0772528527135981 [Eh]
	 SCS Opposite-Spin Energy  =      -0.7728157942368239 [Eh]
	 SCS Correlation Energy    =      -0.8500686469504219 [Eh]
	 SCS Total Energy          =   -2725.5333637783487575 [Eh]
	-----------------------------------------------------------

*** Psi4 exiting successfully. Buy a developer a beer!
