                               Psi4 1.9 release

  ==> Input File <==

--------------------------------------------------------------------------
MEMORY 60 GB

molecule dimer {
-1 1
Br     4.249238     0.000000     0.000000
--
0 1
O      0.000000    -0.112811     1.567716
H     -0.349529     0.578740     1.000386
H      0.921124    -0.169041     1.237825
O      0.000000     0.112811    -1.567716
H     -0.349529    -0.578740    -1.000386
H      0.921124     0.169041    -1.237825

units ang
no_reorient
no_com
symmetry c1
}

set {
basis        aug-cc-pVTZ
scf_type     df
}

energy("mp2", bsse_type="cp")
--------------------------------------------------------------------------

                               Psi4 1.9 release
    Molecular point group: c1
  Charge       = 0
  Multiplicity = 1
  Basis Set: AUG-CC-PVTZ
    Blend: AUG-CC-PVTZ
  Basis Set: (AUG-CC-PVTZ AUX)
    Blend: AUG-CC-PVTZ-JKFIT
  @DF-RHF Final Energy:  -152.11684114153090
    Total Energy =                       -152.1168411415308981
 Dipole X            :         -1.4582363            2.1603160            0.7020797
 Dipole Y            :          0.0000000            0.0000000            0.0000000
 Dipole Z            :          0.0000000            0.0000000            0.0000000
 Magnitude           :                                                    0.7020797
  Basis Set: (AUG-CC-PVTZ AUX)
    Blend: AUG-CC-PVTZ-RI
	 Reference Energy          =    -152.1168411415308981 [Eh]
	 Singles Energy            =      -0.0000000000000000 [Eh]
	 Same-Spin Energy          =      -0.1382773772521458 [Eh]
	 Opposite-Spin Energy      =      -0.4336520818552941 [Eh]
	 Correlation Energy        =      -0.5719294591074400 [Eh]
	 Total Energy              =    -152.6887706006383496 [Eh]
	 SCS Total Energy          =    -152.6833160988412885 [Eh]
                               Psi4 1.9 release
    Molecular point group: c1
  Multiplicity = 1
  Basis Set: AUG-CC-PVTZ
    Blend: AUG-CC-PVTZ
  Basis Set: (AUG-CC-PVTZ AUX)
    Blend: AUG-CC-PVTZ-JKFIT
  @DF-RHF Final Energy: -2572.53367478106520
    Total Energy =                      -2572.5336747810652014
  Basis Set: (AUG-CC-PVTZ AUX)
	 Singles Energy            =      -0.0000000000000000 [Eh]
	 Same-Spin Energy          =      -0.0871384770292371 [Eh]
	 Opposite-Spin Energy      =      -0.2020268777256710 [Eh]
	 Correlation Energy        =      -0.2891653547549081 [Eh]
	 Total Energy              =   -2572.8228401358201154 [Eh]
	 SCS Total Energy          =   -2572.8051531933456317 [Eh]
                               Psi4 1.9 release
    Molecular point group: c1

    Geometry (in Bohr), charge = -1, multiplicity = 1:

       Center              X                  Y                   Z               Mass
    ------------   -----------------  -----------------  -----------------  -----------------
         BR           8.029896061888     0.000000000000     0.000000000000    78.918337600000
         O            0.000000000000    -0.213181893939     2.962553882498    15.994914619570
         H           -0.660514082905     1.093660097847     1.890455559742     1.007825032230
         H            1.740672087586    -0.319441193974     2.339150241245     1.007825032230
         O            0.000000000000     0.213181893939    -2.962553882498    15.994914619570
         H           -0.660514082905    -1.093660097847    -1.890455559742     1.007825032230
         H            1.740672087586     0.319441193974    -2.339150241245     1.007825032230

  Charge       = -1
  Multiplicity = 1
  Basis Set: AUG-CC-PVTZ
    Blend: AUG-CC-PVTZ
  Basis Set: (AUG-CC-PVTZ AUX)
    Blend: AUG-CC-PVTZ-JKFIT

    Orbital Energies [Eh]
    ---------------------

    Doubly Occupied:

       1A   -489.743351     2A    -64.883408     3A    -58.237917
       4A    -58.237866     5A    -58.237863     6A    -20.456689
       7A    -20.456686     8A     -9.555746     9A     -7.163275
      10A     -7.163008    11A     -7.162989    12A     -2.904994
      13A     -2.904889    14A     -2.904866    15A     -2.904522
      16A     -2.904521    17A     -1.241231    18A     -1.234107
      19A     -0.709176    20A     -0.593444    21A     -0.587417
      22A     -0.488718    23A     -0.473119    24A     -0.404530
      25A     -0.392466    26A     -0.164329    27A     -0.161842
      28A     -0.161584

  @DF-RHF Final Energy: -2724.67224174420744

   => Energetics <=

    Nuclear Repulsion Energy =            119.4947750196303247
    One-Electron Energy =               -4043.4649297387227307
    Two-Electron Energy =                1199.2979129748855485
    Total Energy =                      -2724.6722417442069855
 Dipole X            :       -290.0406432          283.2066782           -6.8339650
 Dipole Y            :          0.0000000            0.0000000            0.0000000
 Dipole Z            :          0.0000000            0.0000000            0.0000000
 Magnitude           :                                                    6.8339650
  Basis Set: (AUG-CC-PVTZ AUX)
    Blend: AUG-CC-PVTZ-RI
	 Reference Energy          =   -2724.6722417442074402 [Eh]
	 Singles Energy            =      -0.0000000000000000 [Eh]
	 Same-Spin Energy          =      -0.2261522515469276 [Eh]
	 Opposite-Spin Energy      =      -0.6357954694625110 [Eh]
	 Correlation Energy        =      -0.8619477210094386 [Eh]
	 Total Energy              =   -2725.5341894652169685 [Eh]

	 ================> DF-SCS-MP2 Energies <==================
	-----------------------------------------------------------
	 SCS Same-Spin Scale       =       0.3333333333333333 [-]
	 SCS Opposite-Spin Scale   =       1.2000000000000000 [-]
	 SCS Same-Spin Energy      =      -0.0753840838489759 [Eh]
	 SCS Opposite-Spin Energy  =      -0.7629545633550131 [Eh]
	 SCS Correlation Energy    =      -0.8383386472039890 [Eh]
	 SCS Total Energy          =   -2725.5105803914116223 [Eh]
	-----------------------------------------------------------

*** Psi4 exiting successfully. Buy a developer a beer!
