                               Psi4 1.9 release

  ==> Input File <==

--------------------------------------------------------------------------
MEMORY 60 GB

molecule dimer {
-1 1
Br     3.399390     0.000000     0.000000
--
0 1
O      0.000000    -0.112811     1.567716
H     -0.349529     0.578740     1.000386
H      0.921124    -0.169041     1.237825
O      0.000000     0.112811    -1.567716
H     -0.349529    -0.578740    -1.000386
H      0.921124     0.169041    -1.237825

units ang
no_reorient
no_com
symmetry c1
}

set {
basis        aug-cc-pVTZ
scf_type     df
}

energy("mp2", bsse_type="cp")
--------------------------------------------------------------------------

                               Psi4 1.9 release
    Molecular point group: c1
  Charge       = 0
  Multiplicity = 1
  Basis Set: AUG-CC-PVTZ
    Blend: AUG-CC-PVTZ
  Basis Set: (AUG-CC-PVTZ AUX)
    Blend: AUG-CC-PVTZ-JKFIT
  @DF-RHF Final Energy:  -152.11685813422150
    Total Energy =                       -152.1168581342215020
 Dipole X            :         -1.4582103            2.1603160            0.7021057
 Dipole Y            :          0.0000000            0.0000000            0.0000000
 Dipole Z            :         -0.0000000            0.0000000           -0.0000000
 Magnitude           :                                                    0.7021057
  Basis Set: (AUG-CC-PVTZ AUX)
    Blend: AUG-CC-PVTZ-RI
	 Reference Energy          =    -152.1168581342215020 [Eh]
	 Singles Energy            =      -0.0000000000000000 [Eh]
	 Same-Spin Energy          =      -0.1383022508342800 [Eh]
	 Opposite-Spin Energy      =      -0.4340876443092385 [Eh]
	 Correlation Energy        =      -0.5723898951435185 [Eh]
	 Total Energy              =    -152.6892480293650181 [Eh]
	 SCS Total Energy          =    -152.6838640576706894 [Eh]
                               Psi4 1.9 release
    Molecular point group: c1
  Multiplicity = 1
  Basis Set: AUG-CC-PVTZ
    Blend: AUG-CC-PVTZ
  Basis Set: (AUG-CC-PVTZ AUX)
    Blend: AUG-CC-PVTZ-JKFIT
  @DF-RHF Final Energy: -2572.53368679980804
    Total Energy =                      -2572.5336867998080379
  Basis Set: (AUG-CC-PVTZ AUX)
	 Singles Energy            =      -0.0000000000000000 [Eh]
	 Same-Spin Energy          =      -0.0879790923892381 [Eh]
	 Opposite-Spin Energy      =      -0.2042128958512363 [Eh]
	 Correlation Energy        =      -0.2921919882404744 [Eh]
	 Total Energy              =   -2572.8258787880486125 [Eh]
	 SCS Total Energy          =   -2572.8080686389594121 [Eh]
                               Psi4 1.9 release
    Molecular point group: c1

    Geometry (in Bohr), charge = -1, multiplicity = 1:

       Center              X                  Y                   Z               Mass
    ------------   -----------------  -----------------  -----------------  -----------------
         BR           6.423916093620     0.000000000000     0.000000000000    78.918337600000
         O            0.000000000000    -0.213181893939     2.962553882498    15.994914619570
         H           -0.660514082905     1.093660097847     1.890455559742     1.007825032230
         H            1.740672087586    -0.319441193974     2.339150241245     1.007825032230
         O            0.000000000000     0.213181893939    -2.962553882498    15.994914619570
         H           -0.660514082905    -1.093660097847    -1.890455559742     1.007825032230
         H            1.740672087586     0.319441193974    -2.339150241245     1.007825032230

  Charge       = -1
  Multiplicity = 1
  Basis Set: AUG-CC-PVTZ
    Blend: AUG-CC-PVTZ
  Basis Set: (AUG-CC-PVTZ AUX)
    Blend: AUG-CC-PVTZ-JKFIT

    Orbital Energies [Eh]
    ---------------------

    Doubly Occupied:

       1A   -489.754458     2A    -64.894544     3A    -58.249060
       4A    -58.249023     5A    -58.249013     6A    -20.426027
       7A    -20.426023     8A     -9.566820     9A     -7.174400
      10A     -7.174138    11A     -7.174069    12A     -2.916112
      13A     -2.916020    14A     -2.915936    15A     -2.915603
      16A     -2.915596    17A     -1.211854    18A     -1.204771
      19A     -0.722912    20A     -0.564473    21A     -0.558673
      22A     -0.460936    23A     -0.445612    24A     -0.375527
      25A     -0.363553    26A     -0.179190    27A     -0.174600
      28A     -0.173176

  @DF-RHF Final Energy: -2724.68235909725627

   => Energetics <=

    Nuclear Repulsion Energy =            137.7694073285628917
    One-Electron Energy =               -4080.1992958499145061
    Two-Electron Energy =                1217.7475294240955463
    Total Energy =                      -2724.6823590972562670
 Dipole X            :       -232.0009771          226.9973793           -5.0035978
 Dipole Y            :          0.0000000            0.0000000            0.0000000
 Dipole Z            :         -0.0000000            0.0000000           -0.0000000
 Magnitude           :                                                    5.0035978
  Basis Set: (AUG-CC-PVTZ AUX)
    Blend: AUG-CC-PVTZ-RI
	 Reference Energy          =   -2724.6823590972562670 [Eh]
	 Singles Energy            =      -0.0000000000000000 [Eh]
	 Same-Spin Energy          =      -0.2288134078362552 [Eh]
	 Opposite-Spin Energy      =      -0.6398000623222139 [Eh]
	 Correlation Energy        =      -0.8686134701584691 [Eh]
	 Total Energy              =   -2725.5509725674146466 [Eh]

	 ================> DF-SCS-MP2 Energies <==================
	-----------------------------------------------------------
	 SCS Same-Spin Scale       =       0.3333333333333333 [-]
	 SCS Opposite-Spin Scale   =       1.2000000000000000 [-]
	 SCS Same-Spin Energy      =      -0.0762711359454184 [Eh]
	 SCS Opposite-Spin Energy  =      -0.7677600747866566 [Eh]
	 SCS Correlation Energy    =      -0.8440312107320751 [Eh]
	 SCS Total Energy          =   -2725.5263903079885495 [Eh]
	-----------------------------------------------------------

*** Psi4 exiting successfully. Buy a developer a beer!
