                               Psi4 1.8.2 release

  ==> Input File <==

--------------------------------------------------------------------------
MEMORY 60 GB

molecule dimer {
-1 1
Br         2.549543     0.000000     0.000000
O          0.000000    -0.112811     1.567716
H         -0.349529     0.578740     1.000386
H          0.921124    -0.169041     1.237825
O          0.000000     0.112811    -1.567716
H         -0.349529    -0.578740    -1.000386
H          0.921124     0.169041    -1.237825

units ang
no_reorient
no_com
symmetry c1
}

set {
basis        aug-cc-pVTZ
scf_type     df
}

energy("mp2")
--------------------------------------------------------------------------

    Molecular point group: c1

    Geometry (in Angstrom), charge = -1, multiplicity = 1:

       Center              X                  Y                   Z               Mass
    ------------   -----------------  -----------------  -----------------  -----------------
         BR           2.549543000000     0.000000000000     0.000000000000    78.918337600000
         O            0.000000000000    -0.112811000000     1.567716000000    15.994914619570
         H           -0.349529000000     0.578740000000     1.000386000000     1.007825032230
         H            0.921124000000    -0.169041000000     1.237825000000     1.007825032230
         O            0.000000000000     0.112811000000    -1.567716000000    15.994914619570
         H           -0.349529000000    -0.578740000000    -1.000386000000     1.007825032230
         H            0.921124000000     0.169041000000    -1.237825000000     1.007825032230

  Charge       = -1
  Multiplicity = 1
  Basis Set: AUG-CC-PVTZ
    Blend: AUG-CC-PVTZ
  Basis Set: (AUG-CC-PVTZ AUX)
    Blend: AUG-CC-PVTZ-JKFIT

    Orbital Energies [Eh]
    ---------------------

    Doubly Occupied:

       1A   -489.764333     2A    -64.905269     3A    -58.259716
       4A    -58.259698     5A    -58.259668     6A    -20.381336
       7A    -20.381333     8A     -9.578259     9A     -7.185863
      10A     -7.185862    11A     -7.185564    12A     -2.927502
      13A     -2.927437    14A     -2.927275    15A     -2.927140
      16A     -2.927120    17A     -1.174334    18A     -1.166766
      19A     -0.751060    20A     -0.526901    21A     -0.526623
      22A     -0.428049    23A     -0.413675    24A     -0.336355
      25A     -0.324828    26A     -0.193233    27A     -0.190541
      28A     -0.188982

  @DF-RHF Final Energy: -2724.66811369807010

   => Energetics <=

    Nuclear Repulsion Energy =            164.7127141813666924
    One-Electron Energy =               -4134.3522111966576631
    Two-Electron Energy =                1244.9713833172204431
    Total Energy =                      -2724.6681136980705560
 Dipole X            :       -173.9816599          170.7881465           -3.1935134
 Dipole Y            :         -0.0000000            0.0000000           -0.0000000
 Dipole Z            :         -0.0000000            0.0000000           -0.0000000
 Magnitude           :                                                    3.1935134
  Basis Set: (AUG-CC-PVTZ AUX)
    Blend: AUG-CC-PVTZ-RI
	 Reference Energy          =   -2724.6681136980701012 [Eh]
	 Singles Energy            =      -0.0000000000000000 [Eh]
	 Same-Spin Energy          =      -0.2364252735287035 [Eh]
	 Opposite-Spin Energy      =      -0.6501969052357932 [Eh]
	 Correlation Energy        =      -0.8866221787644967 [Eh]
	 Total Energy              =   -2725.5547358768344566 [Eh]

	 ================> DF-SCS-MP2 Energies <==================
	-----------------------------------------------------------
	 SCS Same-Spin Scale       =       0.3333333333333333 [-]
	 SCS Opposite-Spin Scale   =       1.2000000000000000 [-]
	 SCS Same-Spin Energy      =      -0.0788084245095678 [Eh]
	 SCS Opposite-Spin Energy  =      -0.7802362862829518 [Eh]
	 SCS Correlation Energy    =      -0.8590447107925197 [Eh]
	 SCS Total Energy          =   -2725.5271584088627606 [Eh]
	-----------------------------------------------------------

*** Psi4 exiting successfully. Buy a developer a beer!
