                               Psi4 1.8.2 release

  ==> Input File <==

--------------------------------------------------------------------------
MEMORY 60 GB

molecule dimer {
-1 1
Br         2.832825     0.000000     0.000000
O          0.000000    -0.112811     1.567716
H         -0.349529     0.578740     1.000386
H          0.921124    -0.169041     1.237825
O          0.000000     0.112811    -1.567716
H         -0.349529    -0.578740    -1.000386
H          0.921124     0.169041    -1.237825

units ang
no_reorient
no_com
symmetry c1
}

set {
basis        aug-cc-pVTZ
scf_type     df
}

energy("mp2")
--------------------------------------------------------------------------

    Molecular point group: c1

    Geometry (in Angstrom), charge = -1, multiplicity = 1:

       Center              X                  Y                   Z               Mass
    ------------   -----------------  -----------------  -----------------  -----------------
         BR           2.832825000000     0.000000000000     0.000000000000    78.918337600000
         O            0.000000000000    -0.112811000000     1.567716000000    15.994914619570
         H           -0.349529000000     0.578740000000     1.000386000000     1.007825032230
         H            0.921124000000    -0.169041000000     1.237825000000     1.007825032230
         O            0.000000000000     0.112811000000    -1.567716000000    15.994914619570
         H           -0.349529000000    -0.578740000000    -1.000386000000     1.007825032230
         H            0.921124000000     0.169041000000    -1.237825000000     1.007825032230

  Charge       = -1
  Multiplicity = 1
  Basis Set: AUG-CC-PVTZ
    Blend: AUG-CC-PVTZ
  Basis Set: (AUG-CC-PVTZ AUX)
    Blend: AUG-CC-PVTZ-JKFIT

    Orbital Energies [Eh]
    ---------------------

    Doubly Occupied:

       1A   -489.761826     2A    -64.902263     3A    -58.256744
       4A    -58.256729     5A    -58.256728     6A    -20.398025
       7A    -20.398021     8A     -9.574788     9A     -7.182375
      10A     -7.182257    11A     -7.182086    12A     -2.924003
      13A     -2.924000    14A     -2.923783    15A     -2.923714
      16A     -2.923673    17A     -1.187121    18A     -1.179909
      19A     -0.738809    20A     -0.540226    21A     -0.536239
      22A     -0.438865    23A     -0.423721    24A     -0.350310
      25A     -0.338545    26A     -0.189300    27A     -0.186876
      28A     -0.183425

  @DF-RHF Final Energy: -2724.68101936837093

   => Energetics <=

    Nuclear Repulsion Energy =            154.4879804562333732
    One-Electron Energy =               -4113.8092775265822638
    Two-Electron Energy =                1234.6402777019775385
    Total Energy =                      -2724.6810193683713806
 Dipole X            :       -193.3070284          189.5245354           -3.7824930
 Dipole Y            :          0.0000000            0.0000000            0.0000000
 Dipole Z            :         -0.0000000            0.0000000           -0.0000000
 Magnitude           :                                                    3.7824930
  Basis Set: (AUG-CC-PVTZ AUX)
    Blend: AUG-CC-PVTZ-RI
	 Reference Energy          =   -2724.6810193683709258 [Eh]
	 Singles Energy            =      -0.0000000000000000 [Eh]
	 Same-Spin Energy          =      -0.2330886326419896 [Eh]
	 Opposite-Spin Energy      =      -0.6458046924327845 [Eh]
	 Correlation Energy        =      -0.8788933250747741 [Eh]
	 Total Energy              =   -2725.5599126934457672 [Eh]

	 ================> DF-SCS-MP2 Energies <==================
	-----------------------------------------------------------
	 SCS Same-Spin Scale       =       0.3333333333333333 [-]
	 SCS Opposite-Spin Scale   =       1.2000000000000000 [-]
	 SCS Same-Spin Energy      =      -0.0776962108806632 [Eh]
	 SCS Opposite-Spin Energy  =      -0.7749656309193413 [Eh]
	 SCS Correlation Energy    =      -0.8526618418000045 [Eh]
	 SCS Total Energy          =   -2725.5336812101709256 [Eh]
	-----------------------------------------------------------

*** Psi4 exiting successfully. Buy a developer a beer!
