                               Psi4 1.8.2 release

  ==> Input File <==

--------------------------------------------------------------------------
MEMORY 60 GB

molecule dimer {
-1 1
Br         3.116108     0.000000     0.000000
Gh(O)      0.000000    -0.112811     1.567716
Gh(H)     -0.349529     0.578740     1.000386
Gh(H)      0.921124    -0.169041     1.237825
Gh(O)      0.000000     0.112811    -1.567716
Gh(H)     -0.349529    -0.578740    -1.000386
Gh(H)      0.921124     0.169041    -1.237825

units ang
no_reorient
no_com
symmetry c1
}

set {
basis        aug-cc-pVTZ
scf_type     df
}

energy("mp2")
--------------------------------------------------------------------------

    Molecular point group: c1

    Geometry (in Angstrom), charge = -1, multiplicity = 1:

       Center              X                  Y                   Z               Mass
    ------------   -----------------  -----------------  -----------------  -----------------
         BR           3.116108000000     0.000000000000     0.000000000000    78.918337600000
      Gh(O)           0.000000000000    -0.112811000000     1.567716000000    15.994914619570
      Gh(H)          -0.349529000000     0.578740000000     1.000386000000     1.007825032230
      Gh(H)           0.921124000000    -0.169041000000     1.237825000000     1.007825032230
      Gh(O)           0.000000000000     0.112811000000    -1.567716000000    15.994914619570
      Gh(H)          -0.349529000000    -0.578740000000    -1.000386000000     1.007825032230
      Gh(H)           0.921124000000     0.169041000000    -1.237825000000     1.007825032230

  Charge       = -1
  Multiplicity = 1
  Basis Set: AUG-CC-PVTZ
    Blend: AUG-CC-PVTZ
  Basis Set: (AUG-CC-PVTZ AUX)
    Blend: AUG-CC-PVTZ-JKFIT

    Orbital Energies [Eh]
    ---------------------

    Doubly Occupied:

       1A   -489.721092     2A    -64.860971     3A    -58.215472
       4A    -58.215470     5A    -58.215468     6A     -9.533014
       7A     -7.140371     8A     -7.140356     9A     -7.140343
      10A     -2.882048    11A     -2.882047    12A     -2.882042
      13A     -2.882028    14A     -2.882020    15A     -0.685998
      16A     -0.139341    17A     -0.139339    18A     -0.139337

  @DF-RHF Final Energy: -2572.53369230327462

   => Energetics <=

    Nuclear Repulsion Energy =              0.0000000000000000
    One-Electron Energy =               -3593.6738658802682949
    Two-Electron Energy =                1021.1401735769941297
    Total Energy =                      -2572.5336923032741652
 Dipole X            :       -211.9895002          206.1006744           -5.8888258
 Dipole Y            :         -0.0000000            0.0000000           -0.0000000
 Dipole Z            :          0.0000000            0.0000000            0.0000000
 Magnitude           :                                                    5.8888258
  Basis Set: (AUG-CC-PVTZ AUX)
    Blend: AUG-CC-PVTZ-RI
	 Reference Energy          =   -2572.5336923032746199 [Eh]
	 Singles Energy            =      -0.0000000000000000 [Eh]
	 Same-Spin Energy          =      -0.0885291554985083 [Eh]
	 Opposite-Spin Energy      =      -0.2056778126235875 [Eh]
	 Correlation Energy        =      -0.2942069681220958 [Eh]
	 Total Energy              =   -2572.8278992713967455 [Eh]

	 ================> DF-SCS-MP2 Energies <==================
	-----------------------------------------------------------
	 SCS Same-Spin Scale       =       0.3333333333333333 [-]
	 SCS Opposite-Spin Scale   =       1.2000000000000000 [-]
	 SCS Same-Spin Energy      =      -0.0295097184995028 [Eh]
	 SCS Opposite-Spin Energy  =      -0.2468133751483050 [Eh]
	 SCS Correlation Energy    =      -0.2763230936478078 [Eh]
	 SCS Total Energy          =   -2572.8100153969226085 [Eh]
	-----------------------------------------------------------

*** Psi4 exiting successfully. Buy a developer a beer!
