                               Psi4 1.8.2 release

  ==> Input File <==

--------------------------------------------------------------------------
MEMORY 60 GB

molecule dimer {
-1 1
Br         2.974466     0.000000     0.000000
O          0.000000    -0.112811     1.567716
H         -0.349529     0.578740     1.000386
H          0.921124    -0.169041     1.237825
O          0.000000     0.112811    -1.567716
H         -0.349529    -0.578740    -1.000386
H          0.921124     0.169041    -1.237825

units ang
no_reorient
no_com
symmetry c1
}

set {
basis        aug-cc-pVTZ
scf_type     df
}

energy("mp2")
--------------------------------------------------------------------------

    Molecular point group: c1

    Geometry (in Angstrom), charge = -1, multiplicity = 1:

       Center              X                  Y                   Z               Mass
    ------------   -----------------  -----------------  -----------------  -----------------
         BR           2.974466000000     0.000000000000     0.000000000000    78.918337600000
         O            0.000000000000    -0.112811000000     1.567716000000    15.994914619570
         H           -0.349529000000     0.578740000000     1.000386000000     1.007825032230
         H            0.921124000000    -0.169041000000     1.237825000000     1.007825032230
         O            0.000000000000     0.112811000000    -1.567716000000    15.994914619570
         H           -0.349529000000    -0.578740000000    -1.000386000000     1.007825032230
         H            0.921124000000     0.169041000000    -1.237825000000     1.007825032230

  Charge       = -1
  Multiplicity = 1
  Basis Set: AUG-CC-PVTZ
    Blend: AUG-CC-PVTZ
  Basis Set: (AUG-CC-PVTZ AUX)
    Blend: AUG-CC-PVTZ-JKFIT

    Orbital Energies [Eh]
    ---------------------

    Doubly Occupied:

       1A   -489.760175     2A    -64.900466     3A    -58.254953
       4A    -58.254951     5A    -58.254937     6A    -20.405690
       7A    -20.405686     8A     -9.572870     9A     -7.180455
      10A     -7.180289    11A     -7.180155    12A     -2.922111
      13A     -2.922081    14A     -2.921910    15A     -2.921751
      16A     -2.921727    17A     -1.193572    18A     -1.186431
      19A     -0.733975    20A     -0.546616    21A     -0.541781
      22A     -0.444464    23A     -0.429219    24A     -0.357032
      25A     -0.345191    26A     -0.187299    27A     -0.183573
      28A     -0.180696

  @DF-RHF Final Energy: -2724.68329513112894

   => Energetics <=

    Nuclear Repulsion Energy =            149.8778082641417768
    One-Electron Energy =               -4104.5420917243136500
    Two-Electron Energy =                1229.9809883290429298
    Total Energy =                      -2724.6832951311289435
 Dipole X            :       -202.9773525          198.8927298           -4.0846227
 Dipole Y            :         -0.0000000            0.0000000           -0.0000000
 Dipole Z            :          0.0000000            0.0000000            0.0000000
 Magnitude           :                                                    4.0846227
  Basis Set: (AUG-CC-PVTZ AUX)
    Blend: AUG-CC-PVTZ-RI
	 Reference Energy          =   -2724.6832951311289435 [Eh]
	 Singles Energy            =      -0.0000000000000000 [Eh]
	 Same-Spin Energy          =      -0.2317585581410438 [Eh]
	 Opposite-Spin Energy      =      -0.6440131618647453 [Eh]
	 Correlation Energy        =      -0.8757717200057891 [Eh]
	 Total Energy              =   -2725.5590668511349577 [Eh]

	 ================> DF-SCS-MP2 Energies <==================
	-----------------------------------------------------------
	 SCS Same-Spin Scale       =       0.3333333333333333 [-]
	 SCS Opposite-Spin Scale   =       1.2000000000000000 [-]
	 SCS Same-Spin Energy      =      -0.0772528527136812 [Eh]
	 SCS Opposite-Spin Energy  =      -0.7728157942376944 [Eh]
	 SCS Correlation Energy    =      -0.8500686469513756 [Eh]
	 SCS Total Energy          =   -2725.5333637780804565 [Eh]
	-----------------------------------------------------------

*** Psi4 exiting successfully. Buy a developer a beer!
