                               Psi4 1.9 release

  ==> Input File <==

--------------------------------------------------------------------------
MEMORY 60 GB

molecule dimer {
-1 1
Br     2.974466     0.000000     0.000000
--
0 1
O      0.000000    -0.112811     1.567716
H     -0.349529     0.578740     1.000386
H      0.921124    -0.169041     1.237825
O      0.000000     0.112811    -1.567716
H     -0.349529    -0.578740    -1.000386
H      0.921124     0.169041    -1.237825

units ang
no_reorient
no_com
symmetry c1
}

set {
basis        aug-cc-pVTZ
scf_type     df
}

energy("mp2", bsse_type="cp")
--------------------------------------------------------------------------

                               Psi4 1.9 release
    Molecular point group: c1
  Charge       = 0
  Multiplicity = 1
  Basis Set: AUG-CC-PVTZ
    Blend: AUG-CC-PVTZ
  Basis Set: (AUG-CC-PVTZ AUX)
    Blend: AUG-CC-PVTZ-JKFIT
  @DF-RHF Final Energy:  -152.11687124544244
    Total Energy =                       -152.1168712454424394
 Dipole X            :         -1.4581467            2.1603160            0.7021693
 Dipole Y            :         -0.0000000            0.0000000           -0.0000000
 Dipole Z            :          0.0000000            0.0000000            0.0000000
 Magnitude           :                                                    0.7021693
  Basis Set: (AUG-CC-PVTZ AUX)
    Blend: AUG-CC-PVTZ-RI
	 Reference Energy          =    -152.1168712454424394 [Eh]
	 Singles Energy            =      -0.0000000000000000 [Eh]
	 Same-Spin Energy          =      -0.1383169963349680 [Eh]
	 Opposite-Spin Energy      =      -0.4343283630852769 [Eh]
	 Correlation Energy        =      -0.5726453594202450 [Eh]
	 Total Energy              =    -152.6895166048626891 [Eh]
	 SCS Total Energy          =    -152.6841709465897736 [Eh]
                               Psi4 1.9 release
    Molecular point group: c1
  Multiplicity = 1
  Basis Set: AUG-CC-PVTZ
    Blend: AUG-CC-PVTZ
  Basis Set: (AUG-CC-PVTZ AUX)
    Blend: AUG-CC-PVTZ-JKFIT
  @DF-RHF Final Energy: -2572.53369521454579
    Total Energy =                      -2572.5336952145453324
  Basis Set: (AUG-CC-PVTZ AUX)
	 Singles Energy            =      -0.0000000000000000 [Eh]
	 Same-Spin Energy          =      -0.0888454704028381 [Eh]
	 Opposite-Spin Energy      =      -0.2065309166083639 [Eh]
	 Correlation Energy        =      -0.2953763870112019 [Eh]
	 Total Energy              =   -2572.8290716015571888 [Eh]
	 SCS Total Energy          =   -2572.8111474712768540 [Eh]
                               Psi4 1.9 release
    Molecular point group: c1

    Geometry (in Bohr), charge = -1, multiplicity = 1:

       Center              X                  Y                   Z               Mass
    ------------   -----------------  -----------------  -----------------  -----------------
         BR           5.620926109486     0.000000000000     0.000000000000    78.918337600000
         O            0.000000000000    -0.213181893939     2.962553882498    15.994914619570
         H           -0.660514082905     1.093660097847     1.890455559742     1.007825032230
         H            1.740672087586    -0.319441193974     2.339150241245     1.007825032230
         O            0.000000000000     0.213181893939    -2.962553882498    15.994914619570
         H           -0.660514082905    -1.093660097847    -1.890455559742     1.007825032230
         H            1.740672087586     0.319441193974    -2.339150241245     1.007825032230

  Charge       = -1
  Multiplicity = 1
  Basis Set: AUG-CC-PVTZ
    Blend: AUG-CC-PVTZ
  Basis Set: (AUG-CC-PVTZ AUX)
    Blend: AUG-CC-PVTZ-JKFIT

    Orbital Energies [Eh]
    ---------------------

    Doubly Occupied:

       1A   -489.760175     2A    -64.900466     3A    -58.254953
       4A    -58.254951     5A    -58.254937     6A    -20.405690
       7A    -20.405686     8A     -9.572870     9A     -7.180455
      10A     -7.180289    11A     -7.180155    12A     -2.922111
      13A     -2.922081    14A     -2.921910    15A     -2.921751
      16A     -2.921727    17A     -1.193572    18A     -1.186431
      19A     -0.733975    20A     -0.546616    21A     -0.541781
      22A     -0.444464    23A     -0.429219    24A     -0.357032
      25A     -0.345191    26A     -0.187299    27A     -0.183573
      28A     -0.180696

  @DF-RHF Final Energy: -2724.68329513134813

   => Energetics <=

    Nuclear Repulsion Energy =            149.8778082641417768
    One-Electron Energy =               -4104.5420917245328383
    Two-Electron Energy =                1229.9809883290427024
    Total Energy =                      -2724.6832951313481317
 Dipole X            :       -202.9773525          198.8927298           -4.0846227
 Dipole Y            :          0.0000000            0.0000000            0.0000000
 Dipole Z            :          0.0000000            0.0000000            0.0000000
 Magnitude           :                                                    4.0846227
  Basis Set: (AUG-CC-PVTZ AUX)
    Blend: AUG-CC-PVTZ-RI
	 Reference Energy          =   -2724.6832951313481317 [Eh]
	 Singles Energy            =      -0.0000000000000000 [Eh]
	 Same-Spin Energy          =      -0.2317585581409876 [Eh]
	 Opposite-Spin Energy      =      -0.6440131618644015 [Eh]
	 Correlation Energy        =      -0.8757717200053892 [Eh]
	 Total Energy              =   -2725.5590668513536912 [Eh]

	 ================> DF-SCS-MP2 Energies <==================
	-----------------------------------------------------------
	 SCS Same-Spin Scale       =       0.3333333333333333 [-]
	 SCS Opposite-Spin Scale   =       1.2000000000000000 [-]
	 SCS Same-Spin Energy      =      -0.0772528527136625 [Eh]
	 SCS Opposite-Spin Energy  =      -0.7728157942372818 [Eh]
	 SCS Correlation Energy    =      -0.8500686469509443 [Eh]
	 SCS Total Energy          =   -2725.5333637782991900 [Eh]
	-----------------------------------------------------------

*** Psi4 exiting successfully. Buy a developer a beer!
