                               Psi4 1.9 release

  ==> Input File <==

--------------------------------------------------------------------------
MEMORY 60 GB

molecule dimer {
-1 1
Br     3.965955     0.000000     0.000000
--
0 1
O      0.000000    -0.112811     1.567716
H     -0.349529     0.578740     1.000386
H      0.921124    -0.169041     1.237825
O      0.000000     0.112811    -1.567716
H     -0.349529    -0.578740    -1.000386
H      0.921124     0.169041    -1.237825

units ang
no_reorient
no_com
symmetry c1
}

set {
basis        aug-cc-pVTZ
scf_type     df
}

energy("mp2", bsse_type="cp")
--------------------------------------------------------------------------

                               Psi4 1.9 release
    Molecular point group: c1
  Charge       = 0
  Multiplicity = 1
  Basis Set: AUG-CC-PVTZ
    Blend: AUG-CC-PVTZ
  Basis Set: (AUG-CC-PVTZ AUX)
    Blend: AUG-CC-PVTZ-JKFIT
  @DF-RHF Final Energy:  -152.11684420065703
    Total Energy =                       -152.1168442006570274
 Dipole X            :         -1.4582323            2.1603160            0.7020837
 Dipole Y            :         -0.0000000            0.0000000           -0.0000000
 Dipole Z            :          0.0000000            0.0000000            0.0000000
 Magnitude           :                                                    0.7020837
  Basis Set: (AUG-CC-PVTZ AUX)
    Blend: AUG-CC-PVTZ-RI
	 Reference Energy          =    -152.1168442006570274 [Eh]
	 Singles Energy            =      -0.0000000000000000 [Eh]
	 Same-Spin Energy          =      -0.1382835368804827 [Eh]
	 Opposite-Spin Energy      =      -0.4337640946633257 [Eh]
	 Correlation Energy        =      -0.5720476315438083 [Eh]
	 Total Energy              =    -152.6888918322008237 [Eh]
	 SCS Total Energy          =    -152.6834556265465039 [Eh]
                               Psi4 1.9 release
    Molecular point group: c1
  Multiplicity = 1
  Basis Set: AUG-CC-PVTZ
    Blend: AUG-CC-PVTZ
  Basis Set: (AUG-CC-PVTZ AUX)
    Blend: AUG-CC-PVTZ-JKFIT
  @DF-RHF Final Energy: -2572.53367743384933
    Total Energy =                      -2572.5336774338493342
  Basis Set: (AUG-CC-PVTZ AUX)
	 Singles Energy            =      -0.0000000000000000 [Eh]
	 Same-Spin Energy          =      -0.0873060878914492 [Eh]
	 Opposite-Spin Energy      =      -0.2024478724843540 [Eh]
	 Correlation Energy        =      -0.2897539603758033 [Eh]
	 Total Energy              =   -2572.8234313942252811 [Eh]
	 SCS Total Energy          =   -2572.8057169101275576 [Eh]
                               Psi4 1.9 release
    Molecular point group: c1

    Geometry (in Bohr), charge = -1, multiplicity = 1:

       Center              X                  Y                   Z               Mass
    ------------   -----------------  -----------------  -----------------  -----------------
         BR           7.494568775890     0.000000000000     0.000000000000    78.918337600000
         O            0.000000000000    -0.213181893939     2.962553882498    15.994914619570
         H           -0.660514082905     1.093660097847     1.890455559742     1.007825032230
         H            1.740672087586    -0.319441193974     2.339150241245     1.007825032230
         O            0.000000000000     0.213181893939    -2.962553882498    15.994914619570
         H           -0.660514082905    -1.093660097847    -1.890455559742     1.007825032230
         H            1.740672087586     0.319441193974    -2.339150241245     1.007825032230

  Charge       = -1
  Multiplicity = 1
  Basis Set: AUG-CC-PVTZ
    Blend: AUG-CC-PVTZ
  Basis Set: (AUG-CC-PVTZ AUX)
    Blend: AUG-CC-PVTZ-JKFIT

    Orbital Energies [Eh]
    ---------------------

    Doubly Occupied:

       1A   -489.746750     2A    -64.886797     3A    -58.241313
       4A    -58.241260     5A    -58.241255     6A    -20.447746
       7A    -20.447742     8A     -9.559111     9A     -7.166663
      10A     -7.166377    11A     -7.166347    12A     -2.908389
      13A     -2.908278    14A     -2.908241    15A     -2.907868
      16A     -2.907867    17A     -1.232529    18A     -1.225421
      19A     -0.712929    20A     -0.584803    21A     -0.578798
      22A     -0.480375    23A     -0.464886    24A     -0.395978
      25A     -0.383930    26A     -0.168625    27A     -0.165414
      28A     -0.164944

  @DF-RHF Final Energy: -2724.67557577375283

   => Energetics <=

    Nuclear Repulsion Energy =            124.8654225025372284
    One-Electron Energy =               -4054.2607204154528517
    Two-Electron Energy =                1204.7197221391634230
    Total Energy =                      -2724.6755757737523709
 Dipole X            :       -270.6992874          264.4702232           -6.2290642
 Dipole Y            :         -0.0000000            0.0000000           -0.0000000
 Dipole Z            :          0.0000000            0.0000000            0.0000000
 Magnitude           :                                                    6.2290642
  Basis Set: (AUG-CC-PVTZ AUX)
    Blend: AUG-CC-PVTZ-RI
	 Reference Energy          =   -2724.6755757737528256 [Eh]
	 Singles Energy            =      -0.0000000000000000 [Eh]
	 Same-Spin Energy          =      -0.2267073535117041 [Eh]
	 Opposite-Spin Energy      =      -0.6366101460070761 [Eh]
	 Correlation Energy        =      -0.8633174995187802 [Eh]
	 Total Energy              =   -2725.5388932732716967 [Eh]

	 ================> DF-SCS-MP2 Energies <==================
	-----------------------------------------------------------
	 SCS Same-Spin Scale       =       0.3333333333333333 [-]
	 SCS Opposite-Spin Scale   =       1.2000000000000000 [-]
	 SCS Same-Spin Energy      =      -0.0755691178372347 [Eh]
	 SCS Opposite-Spin Energy  =      -0.7639321752084913 [Eh]
	 SCS Correlation Energy    =      -0.8395012930457260 [Eh]
	 SCS Total Energy          =   -2725.5150770667987672 [Eh]
	-----------------------------------------------------------

*** Psi4 exiting successfully. Buy a developer a beer!
