                               Psi4 1.8.2 release

  ==> Input File <==

--------------------------------------------------------------------------
MEMORY 60 GB

molecule dimer {
-1 1
Br     3.965955     0.000000     0.000000
--
0 1
O      0.000000    -0.112811     1.567716
H     -0.349529     0.578740     1.000386
H      0.921124    -0.169041     1.237825
--
0 1
O      0.000000     0.112811    -1.567716
H     -0.349529    -0.578740    -1.000386
H      0.921124     0.169041    -1.237825

units ang
no_reorient
no_com
symmetry c1
}

set {
basis        aug-cc-pVTZ
scf_type     df
}

energy("mp2", bsse_type="cp")
--------------------------------------------------------------------------

                               Psi4 1.8.2 release
    Molecular point group: c1
  Charge       = -1
  Multiplicity = 1
  Basis Set: AUG-CC-PVTZ
    Blend: AUG-CC-PVTZ
  Basis Set: (AUG-CC-PVTZ AUX)
    Blend: AUG-CC-PVTZ-JKFIT
  @DF-RHF Final Energy: -2572.53367743377930
    Total Energy =                      -2572.5336774337788484
 Dipole X            :       -269.8046730          262.3099072           -7.4947658
 Dipole Y            :         -0.0000000            0.0000000           -0.0000000
 Dipole Z            :         -0.0000000            0.0000000           -0.0000000
 Magnitude           :                                                    7.4947658
  Basis Set: (AUG-CC-PVTZ AUX)
    Blend: AUG-CC-PVTZ-RI
	 Reference Energy          =   -2572.5336774337793031 [Eh]
	 Singles Energy            =      -0.0000000000000000 [Eh]
	 Same-Spin Energy          =      -0.0873060878915276 [Eh]
	 Opposite-Spin Energy      =      -0.2024478724845413 [Eh]
	 Correlation Energy        =      -0.2897539603760688 [Eh]
	 Total Energy              =   -2572.8234313941552500 [Eh]
	 SCS Total Energy          =   -2572.8057169100579813 [Eh]
                               Psi4 1.8.2 release
    Molecular point group: c1
  Basis Set: AUG-CC-PVTZ
    Blend: AUG-CC-PVTZ
  Basis Set: (AUG-CC-PVTZ AUX)
    Blend: AUG-CC-PVTZ-JKFIT
  @DF-RHF Final Energy:   -76.05875174969952
    Total Energy =                        -76.0587517496995389
  Basis Set: (AUG-CC-PVTZ AUX)
                               Psi4 1.8.2 release
  @DF-RHF Final Energy:  -152.11684420072044
    Total Energy =                       -152.1168442007204362
                               Psi4 1.8.2 release
  @DF-RHF Final Energy: -2648.60518342051910
    Total Energy =                      -2648.6051834205190971
                               Psi4 1.8.2 release
  @DF-RHF Final Energy: -2648.60518342052455
    Total Energy =                      -2648.6051834205250088
                               Psi4 1.8.2 release
  Multiplicity = 1
  @DF-RHF Final Energy:   -76.05875174969695
    Total Energy =                        -76.0587517496969525
	 Singles Energy            =      -0.0000000000000000 [Eh]
	 Same-Spin Energy          =      -0.0686894277309762 [Eh]
	 Opposite-Spin Energy      =      -0.2164844908745968 [Eh]
	 Correlation Energy        =      -0.2851739186055731 [Eh]
	 Total Energy              =     -76.3439256683025320 [Eh]
	 SCS Total Energy          =     -76.3414296146567892 [Eh]
                               Psi4 1.8.2 release
    Molecular point group: c1

    Geometry (in Bohr), charge = -1, multiplicity = 1:

       Center              X                  Y                   Z               Mass
    ------------   -----------------  -----------------  -----------------  -----------------
         BR           7.494568775890     0.000000000000     0.000000000000    78.918337600000
         O            0.000000000000    -0.213181893939     2.962553882498    15.994914619570
         H           -0.660514082905     1.093660097847     1.890455559742     1.007825032230
         H            1.740672087586    -0.319441193974     2.339150241245     1.007825032230
         O            0.000000000000     0.213181893939    -2.962553882498    15.994914619570
         H           -0.660514082905    -1.093660097847    -1.890455559742     1.007825032230
         H            1.740672087586     0.319441193974    -2.339150241245     1.007825032230

  Charge       = -1
  Multiplicity = 1
  Basis Set: AUG-CC-PVTZ
    Blend: AUG-CC-PVTZ
  Basis Set: (AUG-CC-PVTZ AUX)
    Blend: AUG-CC-PVTZ-JKFIT

    Orbital Energies [Eh]
    ---------------------

    Doubly Occupied:

       1A   -489.746750     2A    -64.886797     3A    -58.241313
       4A    -58.241260     5A    -58.241255     6A    -20.447746
       7A    -20.447742     8A     -9.559111     9A     -7.166663
      10A     -7.166377    11A     -7.166347    12A     -2.908389
      13A     -2.908278    14A     -2.908241    15A     -2.907868
      16A     -2.907867    17A     -1.232529    18A     -1.225421
      19A     -0.712929    20A     -0.584803    21A     -0.578798
      22A     -0.480375    23A     -0.464886    24A     -0.395978
      25A     -0.383930    26A     -0.168625    27A     -0.165414
      28A     -0.164944

  @DF-RHF Final Energy: -2724.67557577380103

   => Energetics <=

    Nuclear Repulsion Energy =            124.8654225025372284
    One-Electron Energy =               -4054.2607204153046041
    Two-Electron Energy =                1204.7197221389665174
    Total Energy =                      -2724.6755757738010288
 Dipole X            :       -270.6992874          264.4702232           -6.2290642
 Dipole Y            :         -0.0000000            0.0000000           -0.0000000
 Dipole Z            :          0.0000000            0.0000000            0.0000000
 Magnitude           :                                                    6.2290642
  Basis Set: (AUG-CC-PVTZ AUX)
    Blend: AUG-CC-PVTZ-RI
	 Reference Energy          =   -2724.6755757738010288 [Eh]
	 Singles Energy            =      -0.0000000000000000 [Eh]
	 Same-Spin Energy          =      -0.2267073535117332 [Eh]
	 Opposite-Spin Energy      =      -0.6366101460073004 [Eh]
	 Correlation Energy        =      -0.8633174995190336 [Eh]
	 Total Energy              =   -2725.5388932733198999 [Eh]

	 ================> DF-SCS-MP2 Energies <==================
	-----------------------------------------------------------
	 SCS Same-Spin Scale       =       0.3333333333333333 [-]
	 SCS Opposite-Spin Scale   =       1.2000000000000000 [-]
	 SCS Same-Spin Energy      =      -0.0755691178372444 [Eh]
	 SCS Opposite-Spin Energy  =      -0.7639321752087604 [Eh]
	 SCS Correlation Energy    =      -0.8395012930460048 [Eh]
	 SCS Total Energy          =   -2725.5150770668469704 [Eh]
	-----------------------------------------------------------

*** Psi4 exiting successfully. Buy a developer a beer!
