                               Psi4 1.8.2 release

  ==> Input File <==

--------------------------------------------------------------------------
MEMORY 60 GB

molecule dimer {
-1 1
Br         3.682673     0.000000     0.000000
O          0.000000    -0.112811     1.567716
H         -0.349529     0.578740     1.000386
H          0.921124    -0.169041     1.237825
O          0.000000     0.112811    -1.567716
H         -0.349529    -0.578740    -1.000386
H          0.921124     0.169041    -1.237825

units ang
no_reorient
no_com
symmetry c1
}

set {
basis        aug-cc-pVTZ
scf_type     df
}

energy("mp2")
--------------------------------------------------------------------------

    Molecular point group: c1

    Geometry (in Angstrom), charge = -1, multiplicity = 1:

       Center              X                  Y                   Z               Mass
    ------------   -----------------  -----------------  -----------------  -----------------
         BR           3.682673000000     0.000000000000     0.000000000000    78.918337600000
         O            0.000000000000    -0.112811000000     1.567716000000    15.994914619570
         H           -0.349529000000     0.578740000000     1.000386000000     1.007825032230
         H            0.921124000000    -0.169041000000     1.237825000000     1.007825032230
         O            0.000000000000     0.112811000000    -1.567716000000    15.994914619570
         H           -0.349529000000    -0.578740000000    -1.000386000000     1.007825032230
         H            0.921124000000     0.169041000000    -1.237825000000     1.007825032230

  Charge       = -1
  Multiplicity = 1
  Basis Set: AUG-CC-PVTZ
    Blend: AUG-CC-PVTZ
  Basis Set: (AUG-CC-PVTZ AUX)
    Blend: AUG-CC-PVTZ-JKFIT

    Orbital Energies [Eh]
    ---------------------

    Doubly Occupied:

       1A   -489.750499     2A    -64.890550     3A    -58.245069
       4A    -58.245019     5A    -58.245012     6A    -20.437581
       7A    -20.437578     8A     -9.562836     9A     -7.170407
      10A     -7.170120    11A     -7.170074    12A     -2.912132
      13A     -2.912024    14A     -2.911968    15A     -2.911594
      16A     -2.911590    17A     -1.222753    18A     -1.215661
      19A     -0.717429    20A     -0.575154    21A     -0.569201
      22A     -0.471102    23A     -0.455710    24A     -0.386341
      25A     -0.374321    26A     -0.173629    27A     -0.169632
      28A     -0.168801

  @DF-RHF Final Energy: -2724.67913505515844

   => Energetics <=

    Nuclear Repulsion Energy =            130.9163468100623504
    One-Electron Energy =               -4066.4233917747469604
    Two-Electron Energy =                1210.8279099095259426
    Total Energy =                      -2724.6791350551584401
 Dipole X            :       -251.3519611          245.7338343           -5.6181268
 Dipole Y            :          0.0000000            0.0000000            0.0000000
 Dipole Z            :          0.0000000            0.0000000            0.0000000
 Magnitude           :                                                    5.6181268
  Basis Set: (AUG-CC-PVTZ AUX)
    Blend: AUG-CC-PVTZ-RI
	 Reference Energy          =   -2724.6791350551584401 [Eh]
	 Singles Energy            =      -0.0000000000000000 [Eh]
	 Same-Spin Energy          =      -0.2275519930867846 [Eh]
	 Opposite-Spin Energy      =      -0.6378897055608130 [Eh]
	 Correlation Energy        =      -0.8654416986475977 [Eh]
	 Total Energy              =   -2725.5445767538058135 [Eh]

	 ================> DF-SCS-MP2 Energies <==================
	-----------------------------------------------------------
	 SCS Same-Spin Scale       =       0.3333333333333333 [-]
	 SCS Opposite-Spin Scale   =       1.2000000000000000 [-]
	 SCS Same-Spin Energy      =      -0.0758506643622615 [Eh]
	 SCS Opposite-Spin Energy  =      -0.7654676466729756 [Eh]
	 SCS Correlation Energy    =      -0.8413183110352371 [Eh]
	 SCS Total Energy          =   -2725.5204533661935784 [Eh]
	-----------------------------------------------------------

*** Psi4 exiting successfully. Buy a developer a beer!
