                               Psi4 1.8.2 release

  ==> Input File <==

--------------------------------------------------------------------------
MEMORY 60 GB

molecule dimer {
-1 1
Br         5.665650     0.000000     0.000000
Gh(O)      0.000000    -0.112811     1.567716
Gh(H)     -0.349529     0.578740     1.000386
Gh(H)      0.921124    -0.169041     1.237825
Gh(O)      0.000000     0.112811    -1.567716
Gh(H)     -0.349529    -0.578740    -1.000386
Gh(H)      0.921124     0.169041    -1.237825

units ang
no_reorient
no_com
symmetry c1
}

set {
basis        aug-cc-pVTZ
scf_type     df
}

energy("mp2")
--------------------------------------------------------------------------

    Molecular point group: c1

    Geometry (in Angstrom), charge = -1, multiplicity = 1:

       Center              X                  Y                   Z               Mass
    ------------   -----------------  -----------------  -----------------  -----------------
         BR           5.665650000000     0.000000000000     0.000000000000    78.918337600000
      Gh(O)           0.000000000000    -0.112811000000     1.567716000000    15.994914619570
      Gh(H)          -0.349529000000     0.578740000000     1.000386000000     1.007825032230
      Gh(H)           0.921124000000    -0.169041000000     1.237825000000     1.007825032230
      Gh(O)           0.000000000000     0.112811000000    -1.567716000000    15.994914619570
      Gh(H)          -0.349529000000    -0.578740000000    -1.000386000000     1.007825032230
      Gh(H)           0.921124000000     0.169041000000    -1.237825000000     1.007825032230

  Charge       = -1
  Multiplicity = 1
  Basis Set: AUG-CC-PVTZ
    Blend: AUG-CC-PVTZ
  Basis Set: (AUG-CC-PVTZ AUX)
    Blend: AUG-CC-PVTZ-JKFIT

    Orbital Energies [Eh]
    ---------------------

    Doubly Occupied:

       1A   -489.720365     2A    -64.860454     3A    -58.214923
       4A    -58.214923     5A    -58.214922     6A     -9.532853
       7A     -7.140194     8A     -7.140194     9A     -7.140193
      10A     -2.881861    11A     -2.881861    12A     -2.881860
      13A     -2.881859    14A     -2.881856    15A     -0.686000
      16A     -0.139337    17A     -0.139337    18A     -0.139337

  @DF-RHF Final Energy: -2572.53366877914323

   => Energetics <=

    Nuclear Repulsion Energy =              0.0000000000000000
    One-Electron Energy =               -3593.6826749483652748
    Two-Electron Energy =                1021.1490061692223890
    Total Energy =                      -2572.5336687791427721
 Dipole X            :       -385.4348253          374.7284388          -10.7063865
 Dipole Y            :          0.0000000            0.0000000            0.0000000
 Dipole Z            :         -0.0000000            0.0000000           -0.0000000
 Magnitude           :                                                   10.7063865
  Basis Set: (AUG-CC-PVTZ AUX)
    Blend: AUG-CC-PVTZ-RI
	 Reference Energy          =   -2572.5336687791432269 [Eh]
	 Singles Energy            =      -0.0000000000000000 [Eh]
	 Same-Spin Energy          =      -0.0867936345833876 [Eh]
	 Opposite-Spin Energy      =      -0.2012428040943957 [Eh]
	 Correlation Energy        =      -0.2880364386777832 [Eh]
	 Total Energy              =   -2572.8217052178210906 [Eh]

	 ================> DF-SCS-MP2 Energies <==================
	-----------------------------------------------------------
	 SCS Same-Spin Scale       =       0.3333333333333333 [-]
	 SCS Opposite-Spin Scale   =       1.2000000000000000 [-]
	 SCS Same-Spin Energy      =      -0.0289312115277959 [Eh]
	 SCS Opposite-Spin Energy  =      -0.2414913649132748 [Eh]
	 SCS Correlation Energy    =      -0.2704225764410707 [Eh]
	 SCS Total Energy          =   -2572.8040913555842053 [Eh]
	-----------------------------------------------------------

*** Psi4 exiting successfully. Buy a developer a beer!
