                               Psi4 1.8.2 release

  ==> Input File <==

--------------------------------------------------------------------------
MEMORY 60 GB

molecule dimer {
-1 1
Br         3.399390     0.000000     0.000000
O          0.000000    -0.112811     1.567716
H         -0.349529     0.578740     1.000386
H          0.921124    -0.169041     1.237825
O          0.000000     0.112811    -1.567716
H         -0.349529    -0.578740    -1.000386
H          0.921124     0.169041    -1.237825

units ang
no_reorient
no_com
symmetry c1
}

set {
basis        aug-cc-pVTZ
scf_type     df
}

energy("mp2")
--------------------------------------------------------------------------

    Molecular point group: c1

    Geometry (in Angstrom), charge = -1, multiplicity = 1:

       Center              X                  Y                   Z               Mass
    ------------   -----------------  -----------------  -----------------  -----------------
         BR           3.399390000000     0.000000000000     0.000000000000    78.918337600000
         O            0.000000000000    -0.112811000000     1.567716000000    15.994914619570
         H           -0.349529000000     0.578740000000     1.000386000000     1.007825032230
         H            0.921124000000    -0.169041000000     1.237825000000     1.007825032230
         O            0.000000000000     0.112811000000    -1.567716000000    15.994914619570
         H           -0.349529000000    -0.578740000000    -1.000386000000     1.007825032230
         H            0.921124000000     0.169041000000    -1.237825000000     1.007825032230

  Charge       = -1
  Multiplicity = 1
  Basis Set: AUG-CC-PVTZ
    Blend: AUG-CC-PVTZ
  Basis Set: (AUG-CC-PVTZ AUX)
    Blend: AUG-CC-PVTZ-JKFIT

    Orbital Energies [Eh]
    ---------------------

    Doubly Occupied:

       1A   -489.754458     2A    -64.894544     3A    -58.249060
       4A    -58.249023     5A    -58.249013     6A    -20.426027
       7A    -20.426023     8A     -9.566820     9A     -7.174400
      10A     -7.174138    11A     -7.174069    12A     -2.916112
      13A     -2.916020    14A     -2.915936    15A     -2.915603
      16A     -2.915596    17A     -1.211854    18A     -1.204771
      19A     -0.722912    20A     -0.564473    21A     -0.558673
      22A     -0.460936    23A     -0.445612    24A     -0.375527
      25A     -0.363553    26A     -0.179190    27A     -0.174600
      28A     -0.173176

  @DF-RHF Final Energy: -2724.68235909781106

   => Energetics <=

    Nuclear Repulsion Energy =            137.7694073285628917
    One-Electron Energy =               -4080.1992958503196860
    Two-Electron Energy =                1217.7475294239457071
    Total Energy =                      -2724.6823590978110587
 Dipole X            :       -232.0009771          226.9973793           -5.0035978
 Dipole Y            :         -0.0000000            0.0000000           -0.0000000
 Dipole Z            :         -0.0000000            0.0000000           -0.0000000
 Magnitude           :                                                    5.0035978
  Basis Set: (AUG-CC-PVTZ AUX)
    Blend: AUG-CC-PVTZ-RI
	 Reference Energy          =   -2724.6823590978110587 [Eh]
	 Singles Energy            =      -0.0000000000000000 [Eh]
	 Same-Spin Energy          =      -0.2288134078361229 [Eh]
	 Opposite-Spin Energy      =      -0.6398000623220893 [Eh]
	 Correlation Energy        =      -0.8686134701582122 [Eh]
	 Total Energy              =   -2725.5509725679694384 [Eh]

	 ================> DF-SCS-MP2 Energies <==================
	-----------------------------------------------------------
	 SCS Same-Spin Scale       =       0.3333333333333333 [-]
	 SCS Opposite-Spin Scale   =       1.2000000000000000 [-]
	 SCS Same-Spin Energy      =      -0.0762711359453743 [Eh]
	 SCS Opposite-Spin Energy  =      -0.7677600747865071 [Eh]
	 SCS Correlation Energy    =      -0.8440312107318814 [Eh]
	 SCS Total Energy          =   -2725.5263903085428865 [Eh]
	-----------------------------------------------------------

*** Psi4 exiting successfully. Buy a developer a beer!
