                               Psi4 1.9 release

  ==> Input File <==

--------------------------------------------------------------------------
MEMORY 60 GB

molecule dimer {
-1 1
Br     2.832825     0.000000     0.000000
--
0 1
O      0.000000    -0.112811     1.567716
H     -0.349529     0.578740     1.000386
H      0.921124    -0.169041     1.237825
O      0.000000     0.112811    -1.567716
H     -0.349529    -0.578740    -1.000386
H      0.921124     0.169041    -1.237825

units ang
no_reorient
no_com
symmetry c1
}

set {
basis        aug-cc-pVTZ
scf_type     df
}

energy("mp2", bsse_type="cp")
--------------------------------------------------------------------------

                               Psi4 1.9 release
    Molecular point group: c1
  Charge       = 0
  Multiplicity = 1
  Basis Set: AUG-CC-PVTZ
    Blend: AUG-CC-PVTZ
  Basis Set: (AUG-CC-PVTZ AUX)
    Blend: AUG-CC-PVTZ-JKFIT
  @DF-RHF Final Energy:  -152.11687584972282
    Total Energy =                       -152.1168758497228168
 Dipole X            :         -1.4581040            2.1603160            0.7022120
 Dipole Y            :          0.0000000            0.0000000            0.0000000
 Dipole Z            :         -0.0000000            0.0000000           -0.0000000
 Magnitude           :                                                    0.7022120
  Basis Set: (AUG-CC-PVTZ AUX)
    Blend: AUG-CC-PVTZ-RI
	 Reference Energy          =    -152.1168758497228168 [Eh]
	 Singles Energy            =      -0.0000000000000000 [Eh]
	 Same-Spin Energy          =      -0.1383219000846130 [Eh]
	 Opposite-Spin Energy      =      -0.4343869062949151 [Eh]
	 Correlation Energy        =      -0.5727088063795280 [Eh]
	 Total Energy              =    -152.6895846561023404 [Eh]
	 SCS Total Energy          =    -152.6842474373049185 [Eh]
                               Psi4 1.9 release
    Molecular point group: c1
  Multiplicity = 1
  Basis Set: AUG-CC-PVTZ
    Blend: AUG-CC-PVTZ
  Basis Set: (AUG-CC-PVTZ AUX)
    Blend: AUG-CC-PVTZ-JKFIT
  @DF-RHF Final Energy: -2572.53369880465061
    Total Energy =                      -2572.5336988046506121
  Basis Set: (AUG-CC-PVTZ AUX)
	 Singles Energy            =      -0.0000000000000000 [Eh]
	 Same-Spin Energy          =      -0.0891831724196263 [Eh]
	 Opposite-Spin Energy      =      -0.2074565361876072 [Eh]
	 Correlation Energy        =      -0.2966397086072335 [Eh]
	 Total Energy              =   -2572.8303385132576295 [Eh]
	 SCS Total Energy          =   -2572.8123743722157997 [Eh]
                               Psi4 1.9 release
    Molecular point group: c1

    Geometry (in Bohr), charge = -1, multiplicity = 1:

       Center              X                  Y                   Z               Mass
    ------------   -----------------  -----------------  -----------------  -----------------
         BR           5.353263411350     0.000000000000     0.000000000000    78.918337600000
         O            0.000000000000    -0.213181893939     2.962553882498    15.994914619570
         H           -0.660514082905     1.093660097847     1.890455559742     1.007825032230
         H            1.740672087586    -0.319441193974     2.339150241245     1.007825032230
         O            0.000000000000     0.213181893939    -2.962553882498    15.994914619570
         H           -0.660514082905    -1.093660097847    -1.890455559742     1.007825032230
         H            1.740672087586     0.319441193974    -2.339150241245     1.007825032230

  Charge       = -1
  Multiplicity = 1
  Basis Set: AUG-CC-PVTZ
    Blend: AUG-CC-PVTZ
  Basis Set: (AUG-CC-PVTZ AUX)
    Blend: AUG-CC-PVTZ-JKFIT

    Orbital Energies [Eh]
    ---------------------

    Doubly Occupied:

       1A   -489.761826     2A    -64.902263     3A    -58.256744
       4A    -58.256729     5A    -58.256728     6A    -20.398025
       7A    -20.398021     8A     -9.574788     9A     -7.182375
      10A     -7.182257    11A     -7.182086    12A     -2.924003
      13A     -2.924000    14A     -2.923783    15A     -2.923714
      16A     -2.923673    17A     -1.187121    18A     -1.179909
      19A     -0.738809    20A     -0.540226    21A     -0.536239
      22A     -0.438865    23A     -0.423721    24A     -0.350310
      25A     -0.338545    26A     -0.189300    27A     -0.186876
      28A     -0.183425

  @DF-RHF Final Energy: -2724.68101936825315

   => Energetics <=

    Nuclear Repulsion Energy =            154.4879804562333732
    One-Electron Energy =               -4113.8092775266341050
    Two-Electron Energy =                1234.6402777021476140
    Total Energy =                      -2724.6810193682531462
 Dipole X            :       -193.3070284          189.5245354           -3.7824930
 Dipole Y            :          0.0000000            0.0000000            0.0000000
 Dipole Z            :         -0.0000000            0.0000000           -0.0000000
 Magnitude           :                                                    3.7824930
  Basis Set: (AUG-CC-PVTZ AUX)
    Blend: AUG-CC-PVTZ-RI
	 Reference Energy          =   -2724.6810193682531462 [Eh]
	 Singles Energy            =      -0.0000000000000000 [Eh]
	 Same-Spin Energy          =      -0.2330886326420795 [Eh]
	 Opposite-Spin Energy      =      -0.6458046924334446 [Eh]
	 Correlation Energy        =      -0.8788933250755242 [Eh]
	 Total Energy              =   -2725.5599126933288971 [Eh]

	 ================> DF-SCS-MP2 Energies <==================
	-----------------------------------------------------------
	 SCS Same-Spin Scale       =       0.3333333333333333 [-]
	 SCS Opposite-Spin Scale   =       1.2000000000000000 [-]
	 SCS Same-Spin Energy      =      -0.0776962108806932 [Eh]
	 SCS Opposite-Spin Energy  =      -0.7749656309201335 [Eh]
	 SCS Correlation Energy    =      -0.8526618418008267 [Eh]
	 SCS Total Energy          =   -2725.5336812100540556 [Eh]
	-----------------------------------------------------------

*** Psi4 exiting successfully. Buy a developer a beer!
