                               Psi4 1.8.2 release

  ==> Input File <==

--------------------------------------------------------------------------
MEMORY 60 GB

molecule dimer {
-1 1
Br     3.682673     0.000000     0.000000
--
0 1
O      0.000000    -0.112811     1.567716
H     -0.349529     0.578740     1.000386
H      0.921124    -0.169041     1.237825
--
0 1
O      0.000000     0.112811    -1.567716
H     -0.349529    -0.578740    -1.000386
H      0.921124     0.169041    -1.237825

units ang
no_reorient
no_com
symmetry c1
}

set {
basis        aug-cc-pVTZ
scf_type     df
}

energy("mp2", bsse_type="cp")
--------------------------------------------------------------------------

                               Psi4 1.8.2 release
    Molecular point group: c1
  Charge       = -1
  Multiplicity = 1
  Basis Set: AUG-CC-PVTZ
    Blend: AUG-CC-PVTZ
  Basis Set: (AUG-CC-PVTZ AUX)
    Blend: AUG-CC-PVTZ-JKFIT
  @DF-RHF Final Energy: -2572.53368160365108
    Total Energy =                      -2572.5336816036515302
 Dipole X            :       -250.5331182          243.5735183           -6.9596000
 Dipole Y            :         -0.0000000            0.0000000           -0.0000000
 Dipole Z            :         -0.0000000            0.0000000           -0.0000000
 Magnitude           :                                                    6.9596000
  Basis Set: (AUG-CC-PVTZ AUX)
    Blend: AUG-CC-PVTZ-RI
	 Reference Energy          =   -2572.5336816036510754 [Eh]
	 Singles Energy            =      -0.0000000000000000 [Eh]
	 Same-Spin Energy          =      -0.0875725740303095 [Eh]
	 Opposite-Spin Energy      =      -0.2031401554684012 [Eh]
	 Correlation Energy        =      -0.2907127294987107 [Eh]
	 Total Energy              =   -2572.8243943331499395 [Eh]
	 SCS Total Energy          =   -2572.8066406482230377 [Eh]
                               Psi4 1.8.2 release
    Molecular point group: c1
  Basis Set: AUG-CC-PVTZ
    Blend: AUG-CC-PVTZ
  Basis Set: (AUG-CC-PVTZ AUX)
    Blend: AUG-CC-PVTZ-JKFIT
  @DF-RHF Final Energy:   -76.05875447590995
    Total Energy =                        -76.0587544759099501
  Basis Set: (AUG-CC-PVTZ AUX)
                               Psi4 1.8.2 release
  @DF-RHF Final Energy:  -152.11684995189245
    Total Energy =                       -152.1168499518924477
                               Psi4 1.8.2 release
  @DF-RHF Final Energy: -2648.60698260027903
    Total Energy =                      -2648.6069826002790251
                               Psi4 1.8.2 release
  @DF-RHF Final Energy: -2648.60698260025902
    Total Energy =                      -2648.6069826002585614
                               Psi4 1.8.2 release
  Multiplicity = 1
  @DF-RHF Final Energy:   -76.05875447591843
    Total Energy =                        -76.0587544759184482
	 Singles Energy            =      -0.0000000000000000 [Eh]
	 Same-Spin Energy          =      -0.0686936236591290 [Eh]
	 Opposite-Spin Energy      =      -0.2165591001606657 [Eh]
	 Correlation Energy        =      -0.2852527238197947 [Eh]
	 Total Energy              =     -76.3440071997382290 [Eh]
	 SCS Total Energy          =     -76.3415232706642826 [Eh]
                               Psi4 1.8.2 release
    Molecular point group: c1

    Geometry (in Bohr), charge = -1, multiplicity = 1:

       Center              X                  Y                   Z               Mass
    ------------   -----------------  -----------------  -----------------  -----------------
         BR           6.959243379618     0.000000000000     0.000000000000    78.918337600000
         O            0.000000000000    -0.213181893939     2.962553882498    15.994914619570
         H           -0.660514082905     1.093660097847     1.890455559742     1.007825032230
         H            1.740672087586    -0.319441193974     2.339150241245     1.007825032230
         O            0.000000000000     0.213181893939    -2.962553882498    15.994914619570
         H           -0.660514082905    -1.093660097847    -1.890455559742     1.007825032230
         H            1.740672087586     0.319441193974    -2.339150241245     1.007825032230

  Charge       = -1
  Multiplicity = 1
  Basis Set: AUG-CC-PVTZ
    Blend: AUG-CC-PVTZ
  Basis Set: (AUG-CC-PVTZ AUX)
    Blend: AUG-CC-PVTZ-JKFIT

    Orbital Energies [Eh]
    ---------------------

    Doubly Occupied:

       1A   -489.750499     2A    -64.890550     3A    -58.245069
       4A    -58.245019     5A    -58.245012     6A    -20.437581
       7A    -20.437578     8A     -9.562836     9A     -7.170407
      10A     -7.170120    11A     -7.170074    12A     -2.912132
      13A     -2.912024    14A     -2.911968    15A     -2.911594
      16A     -2.911590    17A     -1.222753    18A     -1.215661
      19A     -0.717429    20A     -0.575154    21A     -0.569201
      22A     -0.471102    23A     -0.455710    24A     -0.386341
      25A     -0.374321    26A     -0.173629    27A     -0.169632
      28A     -0.168801

  @DF-RHF Final Energy: -2724.67913505494562

   => Energetics <=

    Nuclear Repulsion Energy =            130.9163468100623504
    One-Electron Energy =               -4066.4233917745586950
    Two-Electron Energy =                1210.8279099095511810
    Total Energy =                      -2724.6791350549451636
 Dipole X            :       -251.3519611          245.7338343           -5.6181268
 Dipole Y            :         -0.0000000            0.0000000           -0.0000000
 Dipole Z            :         -0.0000000            0.0000000           -0.0000000
 Magnitude           :                                                    5.6181268
  Basis Set: (AUG-CC-PVTZ AUX)
    Blend: AUG-CC-PVTZ-RI
	 Reference Energy          =   -2724.6791350549456183 [Eh]
	 Singles Energy            =      -0.0000000000000000 [Eh]
	 Same-Spin Energy          =      -0.2275519930867704 [Eh]
	 Opposite-Spin Energy      =      -0.6378897055603597 [Eh]
	 Correlation Energy        =      -0.8654416986471302 [Eh]
	 Total Energy              =   -2725.5445767535925370 [Eh]

	 ================> DF-SCS-MP2 Energies <==================
	-----------------------------------------------------------
	 SCS Same-Spin Scale       =       0.3333333333333333 [-]
	 SCS Opposite-Spin Scale   =       1.2000000000000000 [-]
	 SCS Same-Spin Energy      =      -0.0758506643622568 [Eh]
	 SCS Opposite-Spin Energy  =      -0.7654676466724316 [Eh]
	 SCS Correlation Energy    =      -0.8413183110346885 [Eh]
	 SCS Total Energy          =   -2725.5204533659803019 [Eh]
	-----------------------------------------------------------

*** Psi4 exiting successfully. Buy a developer a beer!
