                               Psi4 1.8.2 release

  ==> Input File <==

--------------------------------------------------------------------------
MEMORY 60 GB

molecule dimer {
-1 1
Br     3.116108     0.000000     0.000000
--
0 1
O      0.000000    -0.112811     1.567716
H     -0.349529     0.578740     1.000386
H      0.921124    -0.169041     1.237825
--
0 1
O      0.000000     0.112811    -1.567716
H     -0.349529    -0.578740    -1.000386
H      0.921124     0.169041    -1.237825

units ang
no_reorient
no_com
symmetry c1
}

set {
basis        aug-cc-pVTZ
scf_type     df
}

energy("mp2", bsse_type="cp")
--------------------------------------------------------------------------

                               Psi4 1.8.2 release
    Molecular point group: c1
  Charge       = -1
  Multiplicity = 1
  Basis Set: AUG-CC-PVTZ
    Blend: AUG-CC-PVTZ
  Basis Set: (AUG-CC-PVTZ AUX)
    Blend: AUG-CC-PVTZ-JKFIT
  @DF-RHF Final Energy: -2572.53369230304315
    Total Energy =                      -2572.5336923030431535
 Dipole X            :       -211.9895002          206.1006744           -5.8888258
 Dipole Y            :         -0.0000000            0.0000000           -0.0000000
 Dipole Z            :          0.0000000            0.0000000            0.0000000
 Magnitude           :                                                    5.8888258
  Basis Set: (AUG-CC-PVTZ AUX)
    Blend: AUG-CC-PVTZ-RI
	 Reference Energy          =   -2572.5336923030431535 [Eh]
	 Singles Energy            =      -0.0000000000000000 [Eh]
	 Same-Spin Energy          =      -0.0885291554985101 [Eh]
	 Opposite-Spin Energy      =      -0.2056778126236248 [Eh]
	 Correlation Energy        =      -0.2942069681221349 [Eh]
	 Total Energy              =   -2572.8278992711652791 [Eh]
	 SCS Total Energy          =   -2572.8100153966911421 [Eh]
                               Psi4 1.8.2 release
    Molecular point group: c1
  Basis Set: AUG-CC-PVTZ
    Blend: AUG-CC-PVTZ
  Basis Set: (AUG-CC-PVTZ AUX)
    Blend: AUG-CC-PVTZ-JKFIT
  @DF-RHF Final Energy:   -76.05876282152613
    Total Energy =                        -76.0587628215261304
  Basis Set: (AUG-CC-PVTZ AUX)
                               Psi4 1.8.2 release
  @DF-RHF Final Energy:  -152.11686697190569
    Total Energy =                       -152.1168669719056652
                               Psi4 1.8.2 release
  @DF-RHF Final Energy: -2648.60947020040203
    Total Energy =                      -2648.6094702004020291
                               Psi4 1.8.2 release
  @DF-RHF Final Energy: -2648.60947020041840
    Total Energy =                      -2648.6094702004184001
                               Psi4 1.8.2 release
  Multiplicity = 1
  @DF-RHF Final Energy:   -76.05876282151650
    Total Energy =                        -76.0587628215164955
	 Singles Energy            =      -0.0000000000000000 [Eh]
	 Same-Spin Energy          =      -0.0687033528392424 [Eh]
	 Opposite-Spin Energy      =      -0.2167306752716429 [Eh]
	 Correlation Energy        =      -0.2854340281108853 [Eh]
	 Total Energy              =     -76.3441968496273802 [Eh]
	 SCS Total Energy          =     -76.3417407494555533 [Eh]
                               Psi4 1.8.2 release
    Molecular point group: c1

    Geometry (in Bohr), charge = -1, multiplicity = 1:

       Center              X                  Y                   Z               Mass
    ------------   -----------------  -----------------  -----------------  -----------------
         BR           5.888590697348     0.000000000000     0.000000000000    78.918337600000
         O            0.000000000000    -0.213181893939     2.962553882498    15.994914619570
         H           -0.660514082905     1.093660097847     1.890455559742     1.007825032230
         H            1.740672087586    -0.319441193974     2.339150241245     1.007825032230
         O            0.000000000000     0.213181893939    -2.962553882498    15.994914619570
         H           -0.660514082905    -1.093660097847    -1.890455559742     1.007825032230
         H            1.740672087586     0.319441193974    -2.339150241245     1.007825032230

  Charge       = -1
  Multiplicity = 1
  Basis Set: AUG-CC-PVTZ
    Blend: AUG-CC-PVTZ
  Basis Set: (AUG-CC-PVTZ AUX)
    Blend: AUG-CC-PVTZ-JKFIT

    Orbital Energies [Eh]
    ---------------------

    Doubly Occupied:

       1A   -489.758361     2A    -64.898553     3A    -58.253054
       4A    -58.253038     5A    -58.253025     6A    -20.412900
       7A    -20.412896     8A     -9.570882     9A     -7.178466
      10A     -7.178260    11A     -7.178153    12A     -2.920146
      13A     -2.920089    14A     -2.919956    15A     -2.919723
      16A     -2.919707    17A     -1.199886    18A     -1.192782
      19A     -0.729796    20A     -0.552798    21A     -0.547461
      22A     -0.450057    23A     -0.434773    24A     -0.363493
      25A     -0.351596    26A     -0.184802    27A     -0.180391
      28A     -0.178068

  @DF-RHF Final Energy: -2724.68392533508131

   => Energetics <=

    Nuclear Repulsion Energy =            145.5699701961470964
    One-Electron Energy =               -4095.8815693788524186
    Two-Electron Energy =                1225.6276738476244645
    Total Energy =                      -2724.6839253350808576
 Dipole X            :       -212.6505684          208.2609904           -4.3895780
 Dipole Y            :         -0.0000000            0.0000000           -0.0000000
 Dipole Z            :          0.0000000            0.0000000            0.0000000
 Magnitude           :                                                    4.3895780
  Basis Set: (AUG-CC-PVTZ AUX)
    Blend: AUG-CC-PVTZ-RI
	 Reference Energy          =   -2724.6839253350813124 [Eh]
	 Singles Energy            =      -0.0000000000000000 [Eh]
	 Same-Spin Energy          =      -0.2306162797933991 [Eh]
	 Opposite-Spin Energy      =      -0.6424261865380100 [Eh]
	 Correlation Energy        =      -0.8730424663314090 [Eh]
	 Total Energy              =   -2725.5569678014126112 [Eh]

	 ================> DF-SCS-MP2 Energies <==================
	-----------------------------------------------------------
	 SCS Same-Spin Scale       =       0.3333333333333333 [-]
	 SCS Opposite-Spin Scale   =       1.2000000000000000 [-]
	 SCS Same-Spin Energy      =      -0.0768720932644664 [Eh]
	 SCS Opposite-Spin Energy  =      -0.7709114238456120 [Eh]
	 SCS Correlation Energy    =      -0.8477835171100783 [Eh]
	 SCS Total Energy          =   -2725.5317088521915139 [Eh]
	-----------------------------------------------------------

*** Psi4 exiting successfully. Buy a developer a beer!
