                               Psi4 1.8.2 release

  ==> Input File <==

--------------------------------------------------------------------------
MEMORY 60 GB

molecule dimer {
0 1
Gh(Br)     2.691184     0.000000     0.000000
O          0.000000    -0.112811     1.567716
H         -0.349529     0.578740     1.000386
H          0.921124    -0.169041     1.237825
Gh(O)      0.000000     0.112811    -1.567716
Gh(H)     -0.349529    -0.578740    -1.000386
Gh(H)      0.921124     0.169041    -1.237825

units ang
no_reorient
no_com
symmetry c1
}

set {
basis        aug-cc-pVTZ
scf_type     df
}

energy("mp2")
--------------------------------------------------------------------------

    Molecular point group: c1

    Geometry (in Angstrom), charge = 0, multiplicity = 1:

       Center              X                  Y                   Z               Mass
    ------------   -----------------  -----------------  -----------------  -----------------
      Gh(BR)          2.691184000000     0.000000000000     0.000000000000    78.918337600000
         O            0.000000000000    -0.112811000000     1.567716000000    15.994914619570
         H           -0.349529000000     0.578740000000     1.000386000000     1.007825032230
         H            0.921124000000    -0.169041000000     1.237825000000     1.007825032230
      Gh(O)           0.000000000000     0.112811000000    -1.567716000000    15.994914619570
      Gh(H)          -0.349529000000    -0.578740000000    -1.000386000000     1.007825032230
      Gh(H)           0.921124000000     0.169041000000    -1.237825000000     1.007825032230

  Charge       = 0
  Multiplicity = 1
  Basis Set: AUG-CC-PVTZ
    Blend: AUG-CC-PVTZ
  Basis Set: (AUG-CC-PVTZ AUX)
    Blend: AUG-CC-PVTZ-JKFIT

    Orbital Energies [Eh]
    ---------------------

    Doubly Occupied:

       1A    -20.571075     2A     -1.349809     3A     -0.703229
       4A     -0.589953     5A     -0.510433

  @DF-RHF Final Energy:   -76.05877056740766

   => Energetics <=

    Nuclear Repulsion Energy =              9.0822270455069987
    One-Electron Energy =                -122.8329915887916854
    Two-Electron Energy =                  37.6919939758770326
    Total Energy =                        -76.0587705674076631
 Dipole X            :         -0.7101764            1.0801580            0.3699816
 Dipole Y            :          1.3477059           -0.9312362            0.4164697
 Dipole Z            :        -28.5162970           27.9300369           -0.5862601
 Magnitude           :                                                    0.8087239
  Basis Set: (AUG-CC-PVTZ AUX)
    Blend: AUG-CC-PVTZ-RI
	 Reference Energy          =     -76.0587705674076631 [Eh]
	 Singles Energy            =      -0.0000000000000000 [Eh]
	 Same-Spin Energy          =      -0.0687104539433600 [Eh]
	 Opposite-Spin Energy      =      -0.2168207609798530 [Eh]
	 Correlation Energy        =      -0.2855312149232130 [Eh]
	 Total Energy              =     -76.3443017823308736 [Eh]

	 ================> DF-SCS-MP2 Energies <==================
	-----------------------------------------------------------
	 SCS Same-Spin Scale       =       0.3333333333333333 [-]
	 SCS Opposite-Spin Scale   =       1.2000000000000000 [-]
	 SCS Same-Spin Energy      =      -0.0229034846477867 [Eh]
	 SCS Opposite-Spin Energy  =      -0.2601849131758237 [Eh]
	 SCS Correlation Energy    =      -0.2830883978236103 [Eh]
	 SCS Total Energy          =     -76.3418589652312676 [Eh]
	-----------------------------------------------------------

*** Psi4 exiting successfully. Buy a developer a beer!
