                               Psi4 1.8.2 release

  ==> Input File <==

--------------------------------------------------------------------------
MEMORY 60 GB

molecule dimer {
-1 1
Br         2.832825     0.000000     0.000000
Gh(O)      0.000000    -0.112811     1.567716
Gh(H)     -0.349529     0.578740     1.000386
Gh(H)      0.921124    -0.169041     1.237825
Gh(O)      0.000000     0.112811    -1.567716
Gh(H)     -0.349529    -0.578740    -1.000386
Gh(H)      0.921124     0.169041    -1.237825

units ang
no_reorient
no_com
symmetry c1
}

set {
basis        aug-cc-pVTZ
scf_type     df
}

energy("mp2")
--------------------------------------------------------------------------

    Molecular point group: c1

    Geometry (in Angstrom), charge = -1, multiplicity = 1:

       Center              X                  Y                   Z               Mass
    ------------   -----------------  -----------------  -----------------  -----------------
         BR           2.832825000000     0.000000000000     0.000000000000    78.918337600000
      Gh(O)           0.000000000000    -0.112811000000     1.567716000000    15.994914619570
      Gh(H)          -0.349529000000     0.578740000000     1.000386000000     1.007825032230
      Gh(H)           0.921124000000    -0.169041000000     1.237825000000     1.007825032230
      Gh(O)           0.000000000000     0.112811000000    -1.567716000000    15.994914619570
      Gh(H)          -0.349529000000    -0.578740000000    -1.000386000000     1.007825032230
      Gh(H)           0.921124000000     0.169041000000    -1.237825000000     1.007825032230

  Charge       = -1
  Multiplicity = 1
  Basis Set: AUG-CC-PVTZ
    Blend: AUG-CC-PVTZ
  Basis Set: (AUG-CC-PVTZ AUX)
    Blend: AUG-CC-PVTZ-JKFIT

    Orbital Energies [Eh]
    ---------------------

    Doubly Occupied:

       1A   -489.721356     2A    -64.861155     3A    -58.215667
       4A    -58.215664     5A    -58.215662     6A     -9.533074
       7A     -7.140432     8A     -7.140410     9A     -7.140400
      10A     -2.882112    11A     -2.882111    12A     -2.882105
      13A     -2.882095    14A     -2.882082    15A     -0.685999
      16A     -0.139343    17A     -0.139340    18A     -0.139338

  @DF-RHF Final Energy: -2572.53369880461332

   => Energetics <=

    Nuclear Repulsion Energy =              0.0000000000000000
    One-Electron Energy =               -3593.6707080852779654
    Two-Electron Energy =                1021.1370092806645289
    Total Energy =                      -2572.5336988046133229
 Dipole X            :       -192.7175822          187.3642194           -5.3533628
 Dipole Y            :          0.0000000            0.0000000            0.0000000
 Dipole Z            :          0.0000000            0.0000000            0.0000000
 Magnitude           :                                                    5.3533628
  Basis Set: (AUG-CC-PVTZ AUX)
    Blend: AUG-CC-PVTZ-RI
	 Reference Energy          =   -2572.5336988046133229 [Eh]
	 Singles Energy            =      -0.0000000000000000 [Eh]
	 Same-Spin Energy          =      -0.0891831724198883 [Eh]
	 Opposite-Spin Energy      =      -0.2074565361884861 [Eh]
	 Correlation Energy        =      -0.2966397086083745 [Eh]
	 Total Energy              =   -2572.8303385132217045 [Eh]

	 ================> DF-SCS-MP2 Energies <==================
	-----------------------------------------------------------
	 SCS Same-Spin Scale       =       0.3333333333333333 [-]
	 SCS Opposite-Spin Scale   =       1.2000000000000000 [-]
	 SCS Same-Spin Energy      =      -0.0297277241399628 [Eh]
	 SCS Opposite-Spin Energy  =      -0.2489478434261834 [Eh]
	 SCS Correlation Energy    =      -0.2786755675661461 [Eh]
	 SCS Total Energy          =   -2572.8123743721794199 [Eh]
	-----------------------------------------------------------

*** Psi4 exiting successfully. Buy a developer a beer!
