                               Psi4 1.8.2 release

  ==> Input File <==

--------------------------------------------------------------------------
MEMORY 60 GB

molecule dimer {
0 1
Gh(Br)     3.116108     0.000000     0.000000
O          0.000000    -0.112811     1.567716
H         -0.349529     0.578740     1.000386
H          0.921124    -0.169041     1.237825
Gh(O)      0.000000     0.112811    -1.567716
Gh(H)     -0.349529    -0.578740    -1.000386
Gh(H)      0.921124     0.169041    -1.237825

units ang
no_reorient
no_com
symmetry c1
}

set {
basis        aug-cc-pVTZ
scf_type     df
}

energy("mp2")
--------------------------------------------------------------------------

    Molecular point group: c1

    Geometry (in Angstrom), charge = 0, multiplicity = 1:

       Center              X                  Y                   Z               Mass
    ------------   -----------------  -----------------  -----------------  -----------------
      Gh(BR)          3.116108000000     0.000000000000     0.000000000000    78.918337600000
         O            0.000000000000    -0.112811000000     1.567716000000    15.994914619570
         H           -0.349529000000     0.578740000000     1.000386000000     1.007825032230
         H            0.921124000000    -0.169041000000     1.237825000000     1.007825032230
      Gh(O)           0.000000000000     0.112811000000    -1.567716000000    15.994914619570
      Gh(H)          -0.349529000000    -0.578740000000    -1.000386000000     1.007825032230
      Gh(H)           0.921124000000     0.169041000000    -1.237825000000     1.007825032230

  Charge       = 0
  Multiplicity = 1
  Basis Set: AUG-CC-PVTZ
    Blend: AUG-CC-PVTZ
  Basis Set: (AUG-CC-PVTZ AUX)
    Blend: AUG-CC-PVTZ-JKFIT

    Orbital Energies [Eh]
    ---------------------

    Doubly Occupied:

       1A    -20.571095     2A     -1.349821     3A     -0.703240
       4A     -0.589965     5A     -0.510438

  @DF-RHF Final Energy:   -76.05876282148513

   => Energetics <=

    Nuclear Repulsion Energy =              9.0822270455069987
    One-Electron Energy =                -122.8328606149700732
    Two-Electron Energy =                  37.6918707479779300
    Total Energy =                        -76.0587628214851463
 Dipole X            :         -0.7102450            1.0801580            0.3699130
 Dipole Y            :          1.3477258           -0.9312362            0.4164896
 Dipole Z            :        -28.5163661           27.9300369           -0.5863293
 Magnitude           :                                                    0.8087529
  Basis Set: (AUG-CC-PVTZ AUX)
    Blend: AUG-CC-PVTZ-RI
	 Reference Energy          =     -76.0587628214851321 [Eh]
	 Singles Energy            =      -0.0000000000000000 [Eh]
	 Same-Spin Energy          =      -0.0687033528393166 [Eh]
	 Opposite-Spin Energy      =      -0.2167306752718838 [Eh]
	 Correlation Energy        =      -0.2854340281112004 [Eh]
	 Total Energy              =     -76.3441968495963295 [Eh]

	 ================> DF-SCS-MP2 Energies <==================
	-----------------------------------------------------------
	 SCS Same-Spin Scale       =       0.3333333333333333 [-]
	 SCS Opposite-Spin Scale   =       1.2000000000000000 [-]
	 SCS Same-Spin Energy      =      -0.0229011176131055 [Eh]
	 SCS Opposite-Spin Energy  =      -0.2600768103262606 [Eh]
	 SCS Correlation Energy    =      -0.2829779279393661 [Eh]
	 SCS Total Energy          =     -76.3417407494245026 [Eh]
	-----------------------------------------------------------

*** Psi4 exiting successfully. Buy a developer a beer!
