                               Psi4 1.9.1 release

  ==> Input File <==

--------------------------------------------------------------------------
MEMORY 60 GB

molecule dimer {
1 1
Li         0.000000     0.000000     0.000000
Gh(O)      1.888392    -0.000000     0.000000
Gh(H)      2.474378     0.761371     0.000000
Gh(H)      2.474378    -0.761371     0.000000
Gh(O)     -0.944196     1.635395     0.000000
Gh(H)     -1.896556     1.762189     0.000000
Gh(H)     -0.577823     2.523560     0.000000
Gh(O)     -0.944196    -1.635395     0.000000
Gh(H)     -0.577823    -2.523560     0.000000
Gh(H)     -1.896556    -1.762189     0.000000

units ang
no_reorient
no_com
symmetry c1
}

set {
basis        aug-cc-pVTZ
scf_type     df
}

energy("mp2")
--------------------------------------------------------------------------

    Molecular point group: c1

    Geometry (in Angstrom), charge = 1, multiplicity = 1:

       Center              X                  Y                   Z               Mass
    ------------   -----------------  -----------------  -----------------  -----------------
         LI           0.000000000000     0.000000000000     0.000000000000     7.016003436600
      Gh(O)           1.888392000000     0.000000000000     0.000000000000    15.994914619570
      Gh(H)           2.474378000000     0.761371000000     0.000000000000     1.007825032230
      Gh(H)           2.474378000000    -0.761371000000     0.000000000000     1.007825032230
      Gh(O)          -0.944196000000     1.635395000000     0.000000000000    15.994914619570
      Gh(H)          -1.896556000000     1.762189000000     0.000000000000     1.007825032230
      Gh(H)          -0.577823000000     2.523560000000     0.000000000000     1.007825032230
      Gh(O)          -0.944196000000    -1.635395000000     0.000000000000    15.994914619570
      Gh(H)          -0.577823000000    -2.523560000000     0.000000000000     1.007825032230
      Gh(H)          -1.896556000000    -1.762189000000     0.000000000000     1.007825032230

  Charge       = 1
  Multiplicity = 1
  Basis Set: AUG-CC-PVTZ
    Blend: AUG-CC-PVTZ
  Basis Set: (AUG-CC-PVTZ AUX)
    Blend: AUG-CC-PVTZ-JKFIT + DEF2-UNIVERSAL-JKFIT

    Orbital Energies [Eh]
    ---------------------

    Doubly Occupied:

       1A     -2.792355

  @DF-RHF Final Energy:    -7.23638454449340

   => Energetics <=

    Nuclear Repulsion Energy =              0.0000000000000000
    One-Electron Energy =                  -8.8880587032127139
    Two-Electron Energy =                   1.6516741587193109
    Total Energy =                         -7.2363845444934025
 Dipole X            :          0.0000000            0.0000000            0.0000000
 Dipole Y            :          0.0000000            0.0000000            0.0000000
 Dipole Z            :          0.0000000            0.0000000            0.0000000
 Magnitude           :                                                    0.0000000
  Basis Set: (AUG-CC-PVTZ AUX)
    Blend: AUG-CC-PVTZ-RI + DEF2-QZVPP-RI
	 Reference Energy          =      -7.2363845444934025 [Eh]
	 Singles Energy            =      -0.0000000000000000 [Eh]
	 Same-Spin Energy          =      -0.0000000000000000 [Eh]
	 Opposite-Spin Energy      =      -0.0161169535300408 [Eh]
	 Correlation Energy        =      -0.0161169535300408 [Eh]
	 Total Energy              =      -7.2525014980234435 [Eh]

	 ================> DF-SCS-MP2 Energies <==================
	-----------------------------------------------------------
	 SCS Same-Spin Scale       =       0.3333333333333333 [-]
	 SCS Opposite-Spin Scale   =       1.2000000000000000 [-]
	 SCS Same-Spin Energy      =      -0.0000000000000000 [Eh]
	 SCS Opposite-Spin Energy  =      -0.0193403442360489 [Eh]
	 SCS Correlation Energy    =      -0.0193403442360489 [Eh]
	 SCS Total Energy          =      -7.2557248887294516 [Eh]
	-----------------------------------------------------------

*** Psi4 exiting successfully. Buy a developer a beer!
