                               Psi4 1.9.1 release

  ==> Input File <==

--------------------------------------------------------------------------
MEMORY 60 GB

molecule dimer {
0 1
Gh(Li)     0.000000     0.000000     0.000000
O          1.888392    -0.000000     0.000000
H          2.474378     0.761371     0.000000
H          2.474378    -0.761371     0.000000
Gh(O)     -0.944196     1.635395     0.000000
Gh(H)     -1.896556     1.762189     0.000000
Gh(H)     -0.577823     2.523560     0.000000
Gh(O)     -0.944196    -1.635395     0.000000
Gh(H)     -0.577823    -2.523560     0.000000
Gh(H)     -1.896556    -1.762189     0.000000

units ang
no_reorient
no_com
symmetry c1
}

set {
basis        aug-cc-pVTZ
scf_type     df
}

energy("mp2")
--------------------------------------------------------------------------

    Molecular point group: c1

    Geometry (in Angstrom), charge = 0, multiplicity = 1:

       Center              X                  Y                   Z               Mass
    ------------   -----------------  -----------------  -----------------  -----------------
      Gh(LI)          0.000000000000     0.000000000000     0.000000000000     7.016003436600
         O            1.888392000000     0.000000000000     0.000000000000    15.994914619570
         H            2.474378000000     0.761371000000     0.000000000000     1.007825032230
         H            2.474378000000    -0.761371000000     0.000000000000     1.007825032230
      Gh(O)          -0.944196000000     1.635395000000     0.000000000000    15.994914619570
      Gh(H)          -1.896556000000     1.762189000000     0.000000000000     1.007825032230
      Gh(H)          -0.577823000000     2.523560000000     0.000000000000     1.007825032230
      Gh(O)          -0.944196000000    -1.635395000000     0.000000000000    15.994914619570
      Gh(H)          -0.577823000000    -2.523560000000     0.000000000000     1.007825032230
      Gh(H)          -1.896556000000    -1.762189000000     0.000000000000     1.007825032230

  Charge       = 0
  Multiplicity = 1
  Basis Set: AUG-CC-PVTZ
    Blend: AUG-CC-PVTZ
  Basis Set: (AUG-CC-PVTZ AUX)
    Blend: AUG-CC-PVTZ-JKFIT + DEF2-UNIVERSAL-JKFIT

    Orbital Energies [Eh]
    ---------------------

    Doubly Occupied:

       1A    -20.567519     2A     -1.351460     3A     -0.716443
       4A     -0.583587     5A     -0.509913

  @DF-RHF Final Energy:   -76.06047087085173

   => Energetics <=

    Nuclear Repulsion Energy =              9.1601327028871964
    One-Electron Energy =                -122.9833607093945602
    Two-Electron Energy =                  37.7627571356556331
    Total Energy =                        -76.0604708708517308
 Dipole X            :        -37.1216983           37.9001431            0.7784448
 Dipole Y            :         -0.0000000            0.0000000           -0.0000000
 Dipole Z            :         -0.0000000            0.0000000           -0.0000000
 Magnitude           :                                                    0.7784448
  Basis Set: (AUG-CC-PVTZ AUX)
    Blend: AUG-CC-PVTZ-RI + DEF2-QZVPP-RI
	 Reference Energy          =     -76.0604708708517308 [Eh]
	 Singles Energy            =      -0.0000000000000000 [Eh]
	 Same-Spin Energy          =      -0.0684595176570138 [Eh]
	 Opposite-Spin Energy      =      -0.2159394375773334 [Eh]
	 Correlation Energy        =      -0.2843989552343471 [Eh]
	 Total Energy              =     -76.3448698260860823 [Eh]

	 ================> DF-SCS-MP2 Energies <==================
	-----------------------------------------------------------
	 SCS Same-Spin Scale       =       0.3333333333333333 [-]
	 SCS Opposite-Spin Scale   =       1.2000000000000000 [-]
	 SCS Same-Spin Energy      =      -0.0228198392190046 [Eh]
	 SCS Opposite-Spin Energy  =      -0.2591273250928000 [Eh]
	 SCS Correlation Energy    =      -0.2819471643118046 [Eh]
	 SCS Total Energy          =     -76.3424180351635329 [Eh]
	-----------------------------------------------------------

*** Psi4 exiting successfully. Buy a developer a beer!
