                               Psi4 1.9.1 release

  ==> Input File <==

--------------------------------------------------------------------------
MEMORY 60 GB

molecule dimer {
1 1
Li         0.000000     0.000000     0.000000
O          1.888392    -0.000000     0.000000
H          2.474378     0.761371     0.000000
H          2.474378    -0.761371     0.000000
O         -0.944196     1.635395     0.000000
H         -1.896556     1.762189     0.000000
H         -0.577823     2.523560     0.000000
O         -0.944196    -1.635395     0.000000
H         -0.577823    -2.523560     0.000000
H         -1.896556    -1.762189     0.000000

units ang
no_reorient
no_com
symmetry c1
}

set {
basis        aug-cc-pVTZ
scf_type     df
}

energy("mp2")
--------------------------------------------------------------------------

    Molecular point group: c1

    Geometry (in Angstrom), charge = 1, multiplicity = 1:

       Center              X                  Y                   Z               Mass
    ------------   -----------------  -----------------  -----------------  -----------------
         LI           0.000000000000     0.000000000000     0.000000000000     7.016003436600
         O            1.888392000000     0.000000000000     0.000000000000    15.994914619570
         H            2.474378000000     0.761371000000     0.000000000000     1.007825032230
         H            2.474378000000    -0.761371000000     0.000000000000     1.007825032230
         O           -0.944196000000     1.635395000000     0.000000000000    15.994914619570
         H           -1.896556000000     1.762189000000     0.000000000000     1.007825032230
         H           -0.577823000000     2.523560000000     0.000000000000     1.007825032230
         O           -0.944196000000    -1.635395000000     0.000000000000    15.994914619570
         H           -0.577823000000    -2.523560000000     0.000000000000     1.007825032230
         H           -1.896556000000    -1.762189000000     0.000000000000     1.007825032230

  Charge       = 1
  Multiplicity = 1
  Basis Set: AUG-CC-PVTZ
    Blend: AUG-CC-PVTZ
  Basis Set: (AUG-CC-PVTZ AUX)
    Blend: AUG-CC-PVTZ-JKFIT + DEF2-UNIVERSAL-JKFIT

    Orbital Energies [Eh]
    ---------------------

    Doubly Occupied:

       1A    -20.764974     2A    -20.764974     3A    -20.764974
       4A     -2.561682     5A     -1.554963     6A     -1.554227
       7A     -1.554227     8A     -0.918590     9A     -0.918590
      10A     -0.913146    11A     -0.817314    12A     -0.809451
      13A     -0.809451    14A     -0.719330    15A     -0.712680
      16A     -0.712680

  @DF-RHF Final Energy:  -235.55824145332181

   => Energetics <=

    Nuclear Repulsion Energy =             97.1549499394771630
    One-Electron Energy =                -511.7238727331632617
    Two-Electron Energy =                 179.0106813403643002
    Total Energy =                       -235.5582414533218127
 Dipole X            :          0.0000025           -0.0000038           -0.0000013
 Dipole Y            :          0.0000000            0.0000000            0.0000000
 Dipole Z            :         -0.0000000            0.0000000           -0.0000000
 Magnitude           :                                                    0.0000013
  Basis Set: (AUG-CC-PVTZ AUX)
    Blend: AUG-CC-PVTZ-RI + DEF2-QZVPP-RI
	 Reference Energy          =    -235.5582414533218127 [Eh]
	 Singles Energy            =      -0.0000000000000000 [Eh]
	 Same-Spin Energy          =      -0.2049245121758911 [Eh]
	 Opposite-Spin Energy      =      -0.6587390212839092 [Eh]
	 Correlation Energy        =      -0.8636635334598003 [Eh]
	 Total Energy              =    -236.4219049867816125 [Eh]

	 ================> DF-SCS-MP2 Energies <==================
	-----------------------------------------------------------
	 SCS Same-Spin Scale       =       0.3333333333333333 [-]
	 SCS Opposite-Spin Scale   =       1.2000000000000000 [-]
	 SCS Same-Spin Energy      =      -0.0683081707252970 [Eh]
	 SCS Opposite-Spin Energy  =      -0.7904868255406909 [Eh]
	 SCS Correlation Energy    =      -0.8587949962659880 [Eh]
	 SCS Total Energy          =    -236.4170364495878118 [Eh]
	-----------------------------------------------------------

*** Psi4 exiting successfully. Buy a developer a beer!
