                               Psi4 1.9 release

  ==> Input File <==

--------------------------------------------------------------------------
MEMORY 60 GB

molecule dimer {
1 1
Li     0.000000     0.000000     0.000000
--
0 1
O      1.888392    -0.000000     0.000000
H      2.474378     0.761371    -0.000000
H      2.474378    -0.761371     0.000000
O     -0.944196     1.635395    -0.000000
H     -1.896556     1.762189    -0.000000
H     -0.577823     2.523560     0.000000
O     -0.944196    -1.635395     0.000000
H     -0.577823    -2.523560    -0.000000
H     -1.896556    -1.762189    -0.000000

units ang
no_reorient
no_com
symmetry c1
}

set {
basis        aug-cc-pVTZ
scf_type     df
}

energy("mp2", bsse_type="cp")
--------------------------------------------------------------------------

                               Psi4 1.9 release
    Molecular point group: c1
  Charge       = 0
  Multiplicity = 1
  Basis Set: AUG-CC-PVTZ
    Blend: AUG-CC-PVTZ
  Basis Set: (AUG-CC-PVTZ AUX)
    Blend: AUG-CC-PVTZ-JKFIT + DEF2-UNIVERSAL-JKFIT
  @DF-RHF Final Energy:  -228.16962811662771
    Total Energy =                       -228.1696281166277060
 Dipole X            :          0.0000029           -0.0000038           -0.0000009
 Dipole Y            :         -0.0000000            0.0000000           -0.0000000
 Dipole Z            :         -0.0000000            0.0000000           -0.0000000
 Magnitude           :                                                    0.0000009
  Basis Set: (AUG-CC-PVTZ AUX)
    Blend: AUG-CC-PVTZ-RI + DEF2-QZVPP-RI
	 Reference Energy          =    -228.1696281166277060 [Eh]
	 Singles Energy            =      -0.0000000000000000 [Eh]
	 Same-Spin Energy          =      -0.2066857517504651 [Eh]
	 Opposite-Spin Energy      =      -0.6498474039567402 [Eh]
	 Correlation Energy        =      -0.8565331557072053 [Eh]
	 Total Energy              =    -229.0261612723349174 [Eh]
	 SCS Total Energy          =    -229.0183402519592732 [Eh]
                               Psi4 1.9 release
    Molecular point group: c1
  Multiplicity = 1
  Basis Set: AUG-CC-PVTZ
    Blend: AUG-CC-PVTZ
  Basis Set: (AUG-CC-PVTZ AUX)
    Blend: AUG-CC-PVTZ-JKFIT + DEF2-UNIVERSAL-JKFIT
  @DF-RHF Final Energy:    -7.23638454449338
    Total Energy =                         -7.2363845444933830
  Basis Set: (AUG-CC-PVTZ AUX)
	 Singles Energy            =      -0.0000000000000000 [Eh]
	 Same-Spin Energy          =       0.0000000000000000 [Eh]
	 Opposite-Spin Energy      =      -0.0161169535300399 [Eh]
	 Correlation Energy        =      -0.0161169535300399 [Eh]
	 Total Energy              =      -7.2525014980234230 [Eh]
	 SCS Total Energy          =      -7.2557248887294312 [Eh]
                               Psi4 1.9 release
    Molecular point group: c1

    Geometry (in Bohr), charge = 1, multiplicity = 1:

       Center              X                  Y                   Z               Mass
    ------------   -----------------  -----------------  -----------------  -----------------
         LI           0.000000000000     0.000000000000     0.000000000000     7.016003436600
         O            3.568543697506     0.000000000000     0.000000000000    15.994914619570
         H            4.675896750858     1.438782669866     0.000000000000     1.007825032230
         H            4.675896750858    -1.438782669866     0.000000000000     1.007825032230
         O           -1.784271848753     3.090448656943     0.000000000000    15.994914619570
         H           -3.583971421594     3.330054591294     0.000000000000     1.007825032230
         H           -1.091927218990     4.768837261160     0.000000000000     1.007825032230
         O           -1.784271848753    -3.090448656943     0.000000000000    15.994914619570
         H           -1.091927218990    -4.768837261160     0.000000000000     1.007825032230
         H           -3.583971421594    -3.330054591294     0.000000000000     1.007825032230

  Charge       = 1
  Multiplicity = 1
  Basis Set: AUG-CC-PVTZ
    Blend: AUG-CC-PVTZ
  Basis Set: (AUG-CC-PVTZ AUX)
    Blend: AUG-CC-PVTZ-JKFIT + DEF2-UNIVERSAL-JKFIT

    Orbital Energies [Eh]
    ---------------------

    Doubly Occupied:

       1A    -20.764974     2A    -20.764974     3A    -20.764974
       4A     -2.561682     5A     -1.554963     6A     -1.554227
       7A     -1.554227     8A     -0.918590     9A     -0.918590
      10A     -0.913146    11A     -0.817314    12A     -0.809451
      13A     -0.809451    14A     -0.719330    15A     -0.712680
      16A     -0.712680

  @DF-RHF Final Energy:  -235.55824145332195

   => Energetics <=

    Nuclear Repulsion Energy =             97.1549499394771630
    One-Electron Energy =                -511.7238727331629775
    Two-Electron Energy =                 179.0106813403638739
    Total Energy =                       -235.5582414533219549
 Dipole X            :          0.0000025           -0.0000038           -0.0000013
 Dipole Y            :          0.0000000            0.0000000            0.0000000
 Dipole Z            :         -0.0000000            0.0000000           -0.0000000
 Magnitude           :                                                    0.0000013
  Basis Set: (AUG-CC-PVTZ AUX)
    Blend: AUG-CC-PVTZ-RI + DEF2-QZVPP-RI
	 Reference Energy          =    -235.5582414533219549 [Eh]
	 Singles Energy            =      -0.0000000000000000 [Eh]
	 Same-Spin Energy          =      -0.2049245121758921 [Eh]
	 Opposite-Spin Energy      =      -0.6587390212839274 [Eh]
	 Correlation Energy        =      -0.8636635334598195 [Eh]
	 Total Energy              =    -236.4219049867817830 [Eh]

	 ================> DF-SCS-MP2 Energies <==================
	-----------------------------------------------------------
	 SCS Same-Spin Scale       =       0.3333333333333333 [-]
	 SCS Opposite-Spin Scale   =       1.2000000000000000 [-]
	 SCS Same-Spin Energy      =      -0.0683081707252974 [Eh]
	 SCS Opposite-Spin Energy  =      -0.7904868255407128 [Eh]
	 SCS Correlation Energy    =      -0.8587949962660102 [Eh]
	 SCS Total Energy          =    -236.4170364495879539 [Eh]
	-----------------------------------------------------------

*** Psi4 exiting successfully. Buy a developer a beer!
