                               Psi4 1.9.1 release

  ==> Input File <==

--------------------------------------------------------------------------
MEMORY 60 GB

molecule dimer {
0 1
Gh(Li)     0.000000     0.000000     0.000000
Gh(O)      1.662605     0.000000    -0.979518
Gh(H)      2.073385     0.762027    -1.395425
Gh(H)      2.073385    -0.762027    -1.395425
O         -1.663924     0.000000    -0.977575
H         -2.075145     0.762032    -1.393035
H         -2.075145    -0.762032    -1.393035
Gh(O)      0.000286     1.663355     0.978432
Gh(H)     -0.761642     2.074836     1.393818
Gh(H)      0.762446     2.074902     1.393328
Gh(O)      0.000286    -1.663355     0.978432
Gh(H)     -0.761642    -2.074835     1.393818
Gh(H)      0.762446    -2.074902     1.393328

units ang
no_reorient
no_com
symmetry c1
}

set {
basis        aug-cc-pVTZ
scf_type     df
}

energy("mp2")
--------------------------------------------------------------------------

    Molecular point group: c1

    Geometry (in Angstrom), charge = 0, multiplicity = 1:

       Center              X                  Y                   Z               Mass
    ------------   -----------------  -----------------  -----------------  -----------------
      Gh(LI)          0.000000000000     0.000000000000     0.000000000000     7.016003436600
      Gh(O)           1.662605000000     0.000000000000    -0.979518000000    15.994914619570
      Gh(H)           2.073385000000     0.762027000000    -1.395425000000     1.007825032230
      Gh(H)           2.073385000000    -0.762027000000    -1.395425000000     1.007825032230
         O           -1.663924000000     0.000000000000    -0.977575000000    15.994914619570
         H           -2.075145000000     0.762032000000    -1.393035000000     1.007825032230
         H           -2.075145000000    -0.762032000000    -1.393035000000     1.007825032230
      Gh(O)           0.000286000000     1.663355000000     0.978432000000    15.994914619570
      Gh(H)          -0.761642000000     2.074836000000     1.393818000000     1.007825032230
      Gh(H)           0.762446000000     2.074902000000     1.393328000000     1.007825032230
      Gh(O)           0.000286000000    -1.663355000000     0.978432000000    15.994914619570
      Gh(H)          -0.761642000000    -2.074835000000     1.393818000000     1.007825032230
      Gh(H)           0.762446000000    -2.074902000000     1.393328000000     1.007825032230

  Charge       = 0
  Multiplicity = 1
  Basis Set: AUG-CC-PVTZ
    Blend: AUG-CC-PVTZ
  Basis Set: (AUG-CC-PVTZ AUX)
    Blend: AUG-CC-PVTZ-JKFIT + DEF2-UNIVERSAL-JKFIT

    Orbital Energies [Eh]
    ---------------------

    Doubly Occupied:

       1A    -20.567302     2A     -1.351465     3A     -0.716941
       4A     -0.583256     5A     -0.509885

  @DF-RHF Final Energy:   -76.06053664335917

   => Energetics <=

    Nuclear Repulsion Energy =              9.1629973617117866
    One-Electron Energy =                -122.9893659745654446
    Two-Electron Energy =                  37.7658319694944780
    Total Energy =                        -76.0605366433591712
 Dipole X            :         32.4511831          -32.9977967           -0.5466136
 Dipole Y            :         -0.0000000            0.0000000           -0.0000000
 Dipole Z            :         19.4915674          -20.0437014           -0.5521340
 Magnitude           :                                                    0.7769417
  Basis Set: (AUG-CC-PVTZ AUX)
    Blend: AUG-CC-PVTZ-RI + DEF2-QZVPP-RI
	 Reference Energy          =     -76.0605366433591712 [Eh]
	 Singles Energy            =      -0.0000000000000000 [Eh]
	 Same-Spin Energy          =      -0.0684676273981410 [Eh]
	 Opposite-Spin Energy      =      -0.2160412213591299 [Eh]
	 Correlation Energy        =      -0.2845088487572709 [Eh]
	 Total Energy              =     -76.3450454921164408 [Eh]

	 ================> DF-SCS-MP2 Energies <==================
	-----------------------------------------------------------
	 SCS Same-Spin Scale       =       0.3333333333333333 [-]
	 SCS Opposite-Spin Scale   =       1.2000000000000000 [-]
	 SCS Same-Spin Energy      =      -0.0228225424660470 [Eh]
	 SCS Opposite-Spin Energy  =      -0.2592494656309559 [Eh]
	 SCS Correlation Energy    =      -0.2820720080970029 [Eh]
	 SCS Total Energy          =     -76.3426086514561746 [Eh]
	-----------------------------------------------------------

*** Psi4 exiting successfully. Buy a developer a beer!
