                               Psi4 1.9.1 release

  ==> Input File <==

--------------------------------------------------------------------------
MEMORY 60 GB

molecule dimer {
1 1
Li         0.000000     0.000000     0.000000
Gh(O)      1.662605     0.000000    -0.979518
Gh(H)      2.073385     0.762027    -1.395425
Gh(H)      2.073385    -0.762027    -1.395425
Gh(O)     -1.663924     0.000000    -0.977575
Gh(H)     -2.075145     0.762032    -1.393035
Gh(H)     -2.075145    -0.762032    -1.393035
Gh(O)      0.000286     1.663355     0.978432
Gh(H)     -0.761642     2.074836     1.393818
Gh(H)      0.762446     2.074902     1.393328
Gh(O)      0.000286    -1.663355     0.978432
Gh(H)     -0.761642    -2.074835     1.393818
Gh(H)      0.762446    -2.074902     1.393328

units ang
no_reorient
no_com
symmetry c1
}

set {
basis        aug-cc-pVTZ
scf_type     df
}

energy("mp2")
--------------------------------------------------------------------------

    Molecular point group: c1

    Geometry (in Angstrom), charge = 1, multiplicity = 1:

       Center              X                  Y                   Z               Mass
    ------------   -----------------  -----------------  -----------------  -----------------
         LI           0.000000000000     0.000000000000     0.000000000000     7.016003436600
      Gh(O)           1.662605000000     0.000000000000    -0.979518000000    15.994914619570
      Gh(H)           2.073385000000     0.762027000000    -1.395425000000     1.007825032230
      Gh(H)           2.073385000000    -0.762027000000    -1.395425000000     1.007825032230
      Gh(O)          -1.663924000000     0.000000000000    -0.977575000000    15.994914619570
      Gh(H)          -2.075145000000     0.762032000000    -1.393035000000     1.007825032230
      Gh(H)          -2.075145000000    -0.762032000000    -1.393035000000     1.007825032230
      Gh(O)           0.000286000000     1.663355000000     0.978432000000    15.994914619570
      Gh(H)          -0.761642000000     2.074836000000     1.393818000000     1.007825032230
      Gh(H)           0.762446000000     2.074902000000     1.393328000000     1.007825032230
      Gh(O)           0.000286000000    -1.663355000000     0.978432000000    15.994914619570
      Gh(H)          -0.761642000000    -2.074835000000     1.393818000000     1.007825032230
      Gh(H)           0.762446000000    -2.074902000000     1.393328000000     1.007825032230

  Charge       = 1
  Multiplicity = 1
  Basis Set: AUG-CC-PVTZ
    Blend: AUG-CC-PVTZ
  Basis Set: (AUG-CC-PVTZ AUX)
    Blend: AUG-CC-PVTZ-JKFIT + DEF2-UNIVERSAL-JKFIT

    Orbital Energies [Eh]
    ---------------------

    Doubly Occupied:

       1A     -2.792354

  @DF-RHF Final Energy:    -7.23638487357210

   => Energetics <=

    Nuclear Repulsion Energy =              0.0000000000000000
    One-Electron Energy =                  -8.8880619013893476
    Two-Electron Energy =                   1.6516770278172483
    Total Energy =                         -7.2363848735720993
 Dipole X            :         -0.0000000            0.0000000           -0.0000000
 Dipole Y            :          0.0000000            0.0000000            0.0000000
 Dipole Z            :         -0.0000000            0.0000000           -0.0000000
 Magnitude           :                                                    0.0000000
  Basis Set: (AUG-CC-PVTZ AUX)
    Blend: AUG-CC-PVTZ-RI + DEF2-QZVPP-RI
	 Reference Energy          =      -7.2363848735720993 [Eh]
	 Singles Energy            =      -0.0000000000000000 [Eh]
	 Same-Spin Energy          =       0.0000000000000000 [Eh]
	 Opposite-Spin Energy      =      -0.0173235087259434 [Eh]
	 Correlation Energy        =      -0.0173235087259434 [Eh]
	 Total Energy              =      -7.2537083822980426 [Eh]

	 ================> DF-SCS-MP2 Energies <==================
	-----------------------------------------------------------
	 SCS Same-Spin Scale       =       0.3333333333333333 [-]
	 SCS Opposite-Spin Scale   =       1.2000000000000000 [-]
	 SCS Same-Spin Energy      =       0.0000000000000000 [Eh]
	 SCS Opposite-Spin Energy  =      -0.0207882104711321 [Eh]
	 SCS Correlation Energy    =      -0.0207882104711321 [Eh]
	 SCS Total Energy          =      -7.2571730840432318 [Eh]
	-----------------------------------------------------------

*** Psi4 exiting successfully. Buy a developer a beer!
