                               Psi4 1.9.1 release

  ==> Input File <==

--------------------------------------------------------------------------
MEMORY 60 GB

molecule dimer {
1 1
Li         0.000000     0.000000     0.000000
O          1.662605     0.000000    -0.979518
H          2.073385     0.762027    -1.395425
H          2.073385    -0.762027    -1.395425
O         -1.663924     0.000000    -0.977575
H         -2.075145     0.762032    -1.393035
H         -2.075145    -0.762032    -1.393035
O          0.000286     1.663355     0.978432
H         -0.761642     2.074836     1.393818
H          0.762446     2.074902     1.393328
O          0.000286    -1.663355     0.978432
H         -0.761642    -2.074835     1.393818
H          0.762446    -2.074902     1.393328

units ang
no_reorient
no_com
symmetry c1
}

set {
basis        aug-cc-pVTZ
scf_type     df
}

energy("mp2")
--------------------------------------------------------------------------

    Molecular point group: c1

    Geometry (in Angstrom), charge = 1, multiplicity = 1:

       Center              X                  Y                   Z               Mass
    ------------   -----------------  -----------------  -----------------  -----------------
         LI           0.000000000000     0.000000000000     0.000000000000     7.016003436600
         O            1.662605000000     0.000000000000    -0.979518000000    15.994914619570
         H            2.073385000000     0.762027000000    -1.395425000000     1.007825032230
         H            2.073385000000    -0.762027000000    -1.395425000000     1.007825032230
         O           -1.663924000000     0.000000000000    -0.977575000000    15.994914619570
         H           -2.075145000000     0.762032000000    -1.393035000000     1.007825032230
         H           -2.075145000000    -0.762032000000    -1.393035000000     1.007825032230
         O            0.000286000000     1.663355000000     0.978432000000    15.994914619570
         H           -0.761642000000     2.074836000000     1.393818000000     1.007825032230
         H            0.762446000000     2.074902000000     1.393328000000     1.007825032230
         O            0.000286000000    -1.663355000000     0.978432000000    15.994914619570
         H           -0.761642000000    -2.074835000000     1.393818000000     1.007825032230
         H            0.762446000000    -2.074902000000     1.393328000000     1.007825032230

  Charge       = 1
  Multiplicity = 1
  Basis Set: AUG-CC-PVTZ
    Blend: AUG-CC-PVTZ
  Basis Set: (AUG-CC-PVTZ AUX)
    Blend: AUG-CC-PVTZ-JKFIT + DEF2-UNIVERSAL-JKFIT

    Orbital Energies [Eh]
    ---------------------

    Doubly Occupied:

       1A    -20.741015     2A    -20.741008     3A    -20.741000
       4A    -20.740999     5A     -2.515696     6A     -1.532769
       7A     -1.530371     8A     -1.530360     9A     -1.528919
      10A     -0.897458    11A     -0.894574    12A     -0.894571
      13A     -0.888012    14A     -0.799392    15A     -0.781931
      16A     -0.781918    17A     -0.770474    18A     -0.699670
      19A     -0.693403    20A     -0.685666    21A     -0.685660

  @DF-RHF Final Energy:  -311.64412330977262

   => Energetics <=

    Nuclear Repulsion Energy =            163.2107386263579372
    One-Electron Energy =                -747.5599825148242417
    Two-Electron Energy =                 272.7051205786936521
    Total Energy =                       -311.6441233097726240
 Dipole X            :          0.0145514           -0.0149062           -0.0003548
 Dipole Y            :         -0.0000013            0.0000019            0.0000006
 Dipole Z            :          0.0069387           -0.0084282           -0.0014895
 Magnitude           :                                                    0.0015312
  Basis Set: (AUG-CC-PVTZ AUX)
    Blend: AUG-CC-PVTZ-RI + DEF2-QZVPP-RI
	 Reference Energy          =    -311.6441233097726240 [Eh]
	 Singles Energy            =      -0.0000000000000000 [Eh]
	 Same-Spin Energy          =      -0.2749168232819698 [Eh]
	 Opposite-Spin Energy      =      -0.8771621221839794 [Eh]
	 Correlation Energy        =      -1.1520789454659490 [Eh]
	 Total Energy              =    -312.7962022552385974 [Eh]

	 ================> DF-SCS-MP2 Energies <==================
	-----------------------------------------------------------
	 SCS Same-Spin Scale       =       0.3333333333333333 [-]
	 SCS Opposite-Spin Scale   =       1.2000000000000000 [-]
	 SCS Same-Spin Energy      =      -0.0916389410939899 [Eh]
	 SCS Opposite-Spin Energy  =      -1.0525945466207751 [Eh]
	 SCS Correlation Energy    =      -1.1442334877147651 [Eh]
	 SCS Total Energy          =    -312.7883567974873813 [Eh]
	-----------------------------------------------------------

*** Psi4 exiting successfully. Buy a developer a beer!
