                               Psi4 1.9.1 release

  ==> Input File <==

--------------------------------------------------------------------------
MEMORY 60 GB

molecule dimer {
0 1
Gh(Li)     0.000000     0.000000     0.000000
O          3.713222     0.016710     0.000648
H          4.294887     0.778687     0.091204
H          4.305980    -0.736703    -0.089705
Gh(O)     -1.187467     1.513210    -0.085851
Gh(H)     -1.998484     1.683057     0.398519
Gh(H)     -0.961041     2.345623    -0.506960
Gh(O)     -1.172691    -1.525054     0.087012
Gh(H)     -0.937416    -2.355207     0.507751
Gh(H)     -1.981389    -1.703558    -0.398129
Gh(O)      1.288730    -0.225964     1.412737
Gh(H)      1.240636    -0.151784     2.367541
Gh(H)      2.223417    -0.153396     1.174699
Gh(O)      1.287118     0.239899    -1.412105
Gh(H)      1.240058     0.167974    -2.367136
Gh(H)      2.222132     0.172652    -1.173732

units ang
no_reorient
no_com
symmetry c1
}

set {
basis        aug-cc-pVTZ
scf_type     df
}

energy("mp2")
--------------------------------------------------------------------------

    Molecular point group: c1

    Geometry (in Angstrom), charge = 0, multiplicity = 1:

       Center              X                  Y                   Z               Mass
    ------------   -----------------  -----------------  -----------------  -----------------
      Gh(LI)          0.000000000000     0.000000000000     0.000000000000     7.016003436600
         O            3.713222000000     0.016710000000     0.000648000000    15.994914619570
         H            4.294887000000     0.778687000000     0.091204000000     1.007825032230
         H            4.305980000000    -0.736703000000    -0.089705000000     1.007825032230
      Gh(O)          -1.187467000000     1.513210000000    -0.085851000000    15.994914619570
      Gh(H)          -1.998484000000     1.683057000000     0.398519000000     1.007825032230
      Gh(H)          -0.961041000000     2.345623000000    -0.506960000000     1.007825032230
      Gh(O)          -1.172691000000    -1.525054000000     0.087012000000    15.994914619570
      Gh(H)          -0.937416000000    -2.355207000000     0.507751000000     1.007825032230
      Gh(H)          -1.981389000000    -1.703558000000    -0.398129000000     1.007825032230
      Gh(O)           1.288730000000    -0.225964000000     1.412737000000    15.994914619570
      Gh(H)           1.240636000000    -0.151784000000     2.367541000000     1.007825032230
      Gh(H)           2.223417000000    -0.153396000000     1.174699000000     1.007825032230
      Gh(O)           1.287118000000     0.239899000000    -1.412105000000    15.994914619570
      Gh(H)           1.240058000000     0.167974000000    -2.367136000000     1.007825032230
      Gh(H)           2.222132000000     0.172652000000    -1.173732000000     1.007825032230

  Charge       = 0
  Multiplicity = 1
  Basis Set: AUG-CC-PVTZ
    Blend: AUG-CC-PVTZ
  Basis Set: (AUG-CC-PVTZ AUX)
    Blend: AUG-CC-PVTZ-JKFIT + DEF2-UNIVERSAL-JKFIT

    Orbital Energies [Eh]
    ---------------------

    Doubly Occupied:

       1A    -20.567781     2A     -1.350310     3A     -0.715229
       4A     -0.583109     5A     -0.509751

  @DF-RHF Final Energy:   -76.06035010644318

   => Energetics <=

    Nuclear Repulsion Energy =              9.1399129070575977
    One-Electron Energy =                -122.9481642699926311
    Two-Electron Energy =                  37.7479012564918577
    Total Energy =                        -76.0603501064431811
 Dipole X            :        -71.6102547           72.3890641            0.7788093
 Dipole Y            :         -0.3262786            0.3319569            0.0056783
 Dipole Z            :         -0.0124942            0.0126290            0.0001348
 Magnitude           :                                                    0.7788300
  Basis Set: (AUG-CC-PVTZ AUX)
    Blend: AUG-CC-PVTZ-RI + DEF2-QZVPP-RI
	 Reference Energy          =     -76.0603501064431811 [Eh]
	 Singles Energy            =      -0.0000000000000000 [Eh]
	 Same-Spin Energy          =      -0.0685713874315935 [Eh]
	 Opposite-Spin Energy      =      -0.2168169497975377 [Eh]
	 Correlation Energy        =      -0.2853883372291313 [Eh]
	 Total Energy              =     -76.3457384436723174 [Eh]

	 ================> DF-SCS-MP2 Energies <==================
	-----------------------------------------------------------
	 SCS Same-Spin Scale       =       0.3333333333333333 [-]
	 SCS Opposite-Spin Scale   =       1.2000000000000000 [-]
	 SCS Same-Spin Energy      =      -0.0228571291438645 [Eh]
	 SCS Opposite-Spin Energy  =      -0.2601803397570453 [Eh]
	 SCS Correlation Energy    =      -0.2830374689009098 [Eh]
	 SCS Total Energy          =     -76.3433875753440958 [Eh]
	-----------------------------------------------------------

*** Psi4 exiting successfully. Buy a developer a beer!
