                               Psi4 1.9.1 release

  ==> Input File <==

--------------------------------------------------------------------------
MEMORY 60 GB

molecule dimer {
1 1
Li         0.000000     0.000000     0.000000
O          3.713222     0.016710     0.000648
H          4.294887     0.778687     0.091204
H          4.305980    -0.736703    -0.089705
O         -1.187467     1.513210    -0.085851
H         -1.998484     1.683057     0.398519
H         -0.961041     2.345623    -0.506960
O         -1.172691    -1.525054     0.087012
H         -0.937416    -2.355207     0.507751
H         -1.981389    -1.703558    -0.398129
O          1.288730    -0.225964     1.412737
H          1.240636    -0.151784     2.367541
H          2.223417    -0.153396     1.174699
O          1.287118     0.239899    -1.412105
H          1.240058     0.167974    -2.367136
H          2.222132     0.172652    -1.173732

units ang
no_reorient
no_com
symmetry c1
}

set {
basis        aug-cc-pVTZ
scf_type     df
}

energy("mp2")
--------------------------------------------------------------------------

    Molecular point group: c1

    Geometry (in Angstrom), charge = 1, multiplicity = 1:

       Center              X                  Y                   Z               Mass
    ------------   -----------------  -----------------  -----------------  -----------------
         LI           0.000000000000     0.000000000000     0.000000000000     7.016003436600
         O            3.713222000000     0.016710000000     0.000648000000    15.994914619570
         H            4.294887000000     0.778687000000     0.091204000000     1.007825032230
         H            4.305980000000    -0.736703000000    -0.089705000000     1.007825032230
         O           -1.187467000000     1.513210000000    -0.085851000000    15.994914619570
         H           -1.998484000000     1.683057000000     0.398519000000     1.007825032230
         H           -0.961041000000     2.345623000000    -0.506960000000     1.007825032230
         O           -1.172691000000    -1.525054000000     0.087012000000    15.994914619570
         H           -0.937416000000    -2.355207000000     0.507751000000     1.007825032230
         H           -1.981389000000    -1.703558000000    -0.398129000000     1.007825032230
         O            1.288730000000    -0.225964000000     1.412737000000    15.994914619570
         H            1.240636000000    -0.151784000000     2.367541000000     1.007825032230
         H            2.223417000000    -0.153396000000     1.174699000000     1.007825032230
         O            1.287118000000     0.239899000000    -1.412105000000    15.994914619570
         H            1.240058000000     0.167974000000    -2.367136000000     1.007825032230
         H            2.222132000000     0.172652000000    -1.173732000000     1.007825032230

  Charge       = 1
  Multiplicity = 1
  Basis Set: AUG-CC-PVTZ
    Blend: AUG-CC-PVTZ
  Basis Set: (AUG-CC-PVTZ AUX)
    Blend: AUG-CC-PVTZ-JKFIT + DEF2-UNIVERSAL-JKFIT

    Orbital Energies [Eh]
    ---------------------

    Doubly Occupied:

       1A    -20.738399     2A    -20.725331     3A    -20.725322
       4A    -20.710973     5A    -20.710955     6A     -2.494862
       7A     -1.528837     8A     -1.516038     9A     -1.514077
      10A     -1.502390    11A     -1.499702    12A     -0.890409
      13A     -0.887191    14A     -0.880752    15A     -0.877868
      16A     -0.864182    17A     -0.782515    18A     -0.772282
      19A     -0.762235    20A     -0.747473    21A     -0.741052
      22A     -0.684100    23A     -0.677019    24A     -0.675250
      25A     -0.664641    26A     -0.659716

  @DF-RHF Final Energy:  -387.72300254868622

   => Energetics <=

    Nuclear Repulsion Energy =            234.3715039844315982
    One-Electron Energy =                -993.7218644751828833
    Two-Electron Energy =                 371.6273579420650890
    Total Energy =                       -387.7230025486862246
 Dipole X            :        -75.9191025           77.6300929            1.7109904
 Dipole Y            :         -0.3647060            0.3736990            0.0089930
 Dipole Z            :         -0.0447488            0.0445597           -0.0001890
 Magnitude           :                                                    1.7110140
  Basis Set: (AUG-CC-PVTZ AUX)
    Blend: AUG-CC-PVTZ-RI + DEF2-QZVPP-RI
	 Reference Energy          =    -387.7230025486862246 [Eh]
	 Singles Energy            =      -0.0000000000000000 [Eh]
	 Same-Spin Energy          =      -0.3467657664157756 [Eh]
	 Opposite-Spin Energy      =      -1.0971818219924003 [Eh]
	 Correlation Energy        =      -1.4439475884081761 [Eh]
	 Total Energy              =    -389.1669501370943749 [Eh]

	 ================> DF-SCS-MP2 Energies <==================
	-----------------------------------------------------------
	 SCS Same-Spin Scale       =       0.3333333333333333 [-]
	 SCS Opposite-Spin Scale   =       1.2000000000000000 [-]
	 SCS Same-Spin Energy      =      -0.1155885888052585 [Eh]
	 SCS Opposite-Spin Energy  =      -1.3166181863908804 [Eh]
	 SCS Correlation Energy    =      -1.4322067751961389 [Eh]
	 SCS Total Energy          =    -389.1552093238823886 [Eh]
	-----------------------------------------------------------

*** Psi4 exiting successfully. Buy a developer a beer!
