                               Psi4 1.9.1 release

  ==> Input File <==

--------------------------------------------------------------------------
MEMORY 60 GB

molecule dimer {
0 1
Gh(Li)     0.000000     0.000000     0.000000
Gh(O)      3.713222     0.016710     0.000648
Gh(H)      4.294887     0.778687     0.091204
Gh(H)      4.305980    -0.736703    -0.089705
Gh(O)     -1.187467     1.513210    -0.085851
Gh(H)     -1.998484     1.683057     0.398519
Gh(H)     -0.961041     2.345623    -0.506960
Gh(O)     -1.172691    -1.525054     0.087012
Gh(H)     -0.937416    -2.355207     0.507751
Gh(H)     -1.981389    -1.703558    -0.398129
Gh(O)      1.288730    -0.225964     1.412737
Gh(H)      1.240636    -0.151784     2.367541
Gh(H)      2.223417    -0.153396     1.174699
O          1.287118     0.239899    -1.412105
H          1.240058     0.167974    -2.367136
H          2.222132     0.172652    -1.173732

units ang
no_reorient
no_com
symmetry c1
}

set {
basis        aug-cc-pVTZ
scf_type     df
}

energy("mp2")
--------------------------------------------------------------------------

    Molecular point group: c1

    Geometry (in Angstrom), charge = 0, multiplicity = 1:

       Center              X                  Y                   Z               Mass
    ------------   -----------------  -----------------  -----------------  -----------------
      Gh(LI)          0.000000000000     0.000000000000     0.000000000000     7.016003436600
      Gh(O)           3.713222000000     0.016710000000     0.000648000000    15.994914619570
      Gh(H)           4.294887000000     0.778687000000     0.091204000000     1.007825032230
      Gh(H)           4.305980000000    -0.736703000000    -0.089705000000     1.007825032230
      Gh(O)          -1.187467000000     1.513210000000    -0.085851000000    15.994914619570
      Gh(H)          -1.998484000000     1.683057000000     0.398519000000     1.007825032230
      Gh(H)          -0.961041000000     2.345623000000    -0.506960000000     1.007825032230
      Gh(O)          -1.172691000000    -1.525054000000     0.087012000000    15.994914619570
      Gh(H)          -0.937416000000    -2.355207000000     0.507751000000     1.007825032230
      Gh(H)          -1.981389000000    -1.703558000000    -0.398129000000     1.007825032230
      Gh(O)           1.288730000000    -0.225964000000     1.412737000000    15.994914619570
      Gh(H)           1.240636000000    -0.151784000000     2.367541000000     1.007825032230
      Gh(H)           2.223417000000    -0.153396000000     1.174699000000     1.007825032230
         O            1.287118000000     0.239899000000    -1.412105000000    15.994914619570
         H            1.240058000000     0.167974000000    -2.367136000000     1.007825032230
         H            2.222132000000     0.172652000000    -1.173732000000     1.007825032230

  Charge       = 0
  Multiplicity = 1
  Basis Set: AUG-CC-PVTZ
    Blend: AUG-CC-PVTZ
  Basis Set: (AUG-CC-PVTZ AUX)
    Blend: AUG-CC-PVTZ-JKFIT + DEF2-UNIVERSAL-JKFIT

    Orbital Energies [Eh]
    ---------------------

    Doubly Occupied:

       1A    -20.567012     2A     -1.348908     3A     -0.718691
       4A     -0.579411     5A     -0.509155

  @DF-RHF Final Energy:   -76.06029546100758

   => Energetics <=

    Nuclear Repulsion Energy =              9.1340029838078323
    One-Electron Energy =                -122.9422382911740783
    Two-Electron Energy =                  37.7479398463586620
    Total Energy =                        -76.0602954610075841
 Dipole X            :        -25.4096895           26.0009950            0.5913055
 Dipole Y            :         -4.3631857            4.2704371           -0.0927486
 Dipole Z            :         27.5602189          -28.0392044           -0.4789855
 Magnitude           :                                                    0.7665974
  Basis Set: (AUG-CC-PVTZ AUX)
    Blend: AUG-CC-PVTZ-RI + DEF2-QZVPP-RI
	 Reference Energy          =     -76.0602954610075841 [Eh]
	 Singles Energy            =      -0.0000000000000000 [Eh]
	 Same-Spin Energy          =      -0.0685329670082957 [Eh]
	 Opposite-Spin Energy      =      -0.2166944125953613 [Eh]
	 Correlation Energy        =      -0.2852273796036570 [Eh]
	 Total Energy              =     -76.3455228406112383 [Eh]

	 ================> DF-SCS-MP2 Energies <==================
	-----------------------------------------------------------
	 SCS Same-Spin Scale       =       0.3333333333333333 [-]
	 SCS Opposite-Spin Scale   =       1.2000000000000000 [-]
	 SCS Same-Spin Energy      =      -0.0228443223360986 [Eh]
	 SCS Opposite-Spin Energy  =      -0.2600332951144335 [Eh]
	 SCS Correlation Energy    =      -0.2828776174505321 [Eh]
	 SCS Total Energy          =     -76.3431730784581219 [Eh]
	-----------------------------------------------------------

*** Psi4 exiting successfully. Buy a developer a beer!
