                               Psi4 1.9.1 release

  ==> Input File <==

--------------------------------------------------------------------------
MEMORY 60 GB

molecule dimer {
0 1
Gh(Li)     0.000000     0.000000     0.000000
Gh(O)      2.105125     0.004064     0.000073
Gh(H)      2.692086     0.763743     0.003931
Gh(H)      2.695323    -0.753099    -0.003791
Gh(O)     -0.005881     2.202644     0.005709
Gh(H)     -0.759055     2.797230     0.004681
Gh(H)      0.749729     2.794134     0.004461
Gh(O)     -2.103286     0.002241    -0.000014
Gh(H)     -2.698007    -0.751365    -0.003850
Gh(H)     -2.685658     0.765424     0.003881
Gh(O)      0.001016    -2.196479    -0.005695
Gh(H)      0.753343    -2.792129    -0.004557
Gh(H)     -0.755808    -2.786400    -0.004582
O          0.003099    -0.001488     2.050341
H         -0.759215    -0.007697     2.631837
H          0.768379    -0.011643     2.627869
Gh(O)      0.003145     0.008130    -2.050319
Gh(H)     -0.759192     0.007978    -2.631818
Gh(H)      0.768403     0.003906    -2.627951

units ang
no_reorient
no_com
symmetry c1
}

set {
basis        aug-cc-pVTZ
scf_type     df
}

energy("mp2")
--------------------------------------------------------------------------

    Molecular point group: c1

    Geometry (in Angstrom), charge = 0, multiplicity = 1:

       Center              X                  Y                   Z               Mass
    ------------   -----------------  -----------------  -----------------  -----------------
      Gh(LI)          0.000000000000     0.000000000000     0.000000000000     7.016003436600
      Gh(O)           2.105125000000     0.004064000000     0.000073000000    15.994914619570
      Gh(H)           2.692086000000     0.763743000000     0.003931000000     1.007825032230
      Gh(H)           2.695323000000    -0.753099000000    -0.003791000000     1.007825032230
      Gh(O)          -0.005881000000     2.202644000000     0.005709000000    15.994914619570
      Gh(H)          -0.759055000000     2.797230000000     0.004681000000     1.007825032230
      Gh(H)           0.749729000000     2.794134000000     0.004461000000     1.007825032230
      Gh(O)          -2.103286000000     0.002241000000    -0.000014000000    15.994914619570
      Gh(H)          -2.698007000000    -0.751365000000    -0.003850000000     1.007825032230
      Gh(H)          -2.685658000000     0.765424000000     0.003881000000     1.007825032230
      Gh(O)           0.001016000000    -2.196479000000    -0.005695000000    15.994914619570
      Gh(H)           0.753343000000    -2.792129000000    -0.004557000000     1.007825032230
      Gh(H)          -0.755808000000    -2.786400000000    -0.004582000000     1.007825032230
         O            0.003099000000    -0.001488000000     2.050341000000    15.994914619570
         H           -0.759215000000    -0.007697000000     2.631837000000     1.007825032230
         H            0.768379000000    -0.011643000000     2.627869000000     1.007825032230
      Gh(O)           0.003145000000     0.008130000000    -2.050319000000    15.994914619570
      Gh(H)          -0.759192000000     0.007978000000    -2.631818000000     1.007825032230
      Gh(H)           0.768403000000     0.003906000000    -2.627951000000     1.007825032230

  Charge       = 0
  Multiplicity = 1
  Basis Set: AUG-CC-PVTZ
    Blend: AUG-CC-PVTZ
  Basis Set: (AUG-CC-PVTZ AUX)
    Blend: AUG-CC-PVTZ-JKFIT + DEF2-UNIVERSAL-JKFIT

    Orbital Energies [Eh]
    ---------------------

    Doubly Occupied:

       1A    -20.566701     2A     -1.351836     3A     -0.718958
       4A     -0.582365     5A     -0.509832

  @DF-RHF Final Energy:   -76.06072313174512

   => Energetics <=

    Nuclear Repulsion Energy =              9.1770705520400497
    One-Electron Energy =                -123.0161991012119387
    Two-Electron Energy =                  37.7784054174267752
    Total Energy =                        -76.0607231317451067
 Dipole X            :         -0.0621905            0.0641675            0.0019771
 Dipole Y            :          0.0481411           -0.0590426           -0.0109015
 Dipole Z            :        -40.1636639           40.9360675            0.7724036
 Magnitude           :                                                    0.7724831
  Basis Set: (AUG-CC-PVTZ AUX)
    Blend: AUG-CC-PVTZ-RI + DEF2-QZVPP-RI
	 Reference Energy          =     -76.0607231317451209 [Eh]
	 Singles Energy            =      -0.0000000000000000 [Eh]
	 Same-Spin Energy          =      -0.0684717293011453 [Eh]
	 Opposite-Spin Energy      =      -0.2162925046879254 [Eh]
	 Correlation Energy        =      -0.2847642339890707 [Eh]
	 Total Energy              =     -76.3454873657341864 [Eh]

	 ================> DF-SCS-MP2 Energies <==================
	-----------------------------------------------------------
	 SCS Same-Spin Scale       =       0.3333333333333333 [-]
	 SCS Opposite-Spin Scale   =       1.2000000000000000 [-]
	 SCS Same-Spin Energy      =      -0.0228239097670484 [Eh]
	 SCS Opposite-Spin Energy  =      -0.2595510056255104 [Eh]
	 SCS Correlation Energy    =      -0.2823749153925589 [Eh]
	 SCS Total Energy          =     -76.3430980471376728 [Eh]
	-----------------------------------------------------------

*** Psi4 exiting successfully. Buy a developer a beer!
