                               Psi4 1.9.1 release

  ==> Input File <==

--------------------------------------------------------------------------
MEMORY 60 GB

molecule dimer {
1 1
Li         0.000000     0.000000     0.000000
O          2.105125     0.004064     0.000073
H          2.692086     0.763743     0.003931
H          2.695323    -0.753099    -0.003791
O         -0.005881     2.202644     0.005709
H         -0.759055     2.797230     0.004681
H          0.749729     2.794134     0.004461
O         -2.103286     0.002241    -0.000014
H         -2.698007    -0.751365    -0.003850
H         -2.685658     0.765424     0.003881
O          0.001016    -2.196479    -0.005695
H          0.753343    -2.792129    -0.004557
H         -0.755808    -2.786400    -0.004582
O          0.003099    -0.001488     2.050341
H         -0.759215    -0.007697     2.631837
H          0.768379    -0.011643     2.627869
O          0.003145     0.008130    -2.050319
H         -0.759192     0.007978    -2.631818
H          0.768403     0.003906    -2.627951

units ang
no_reorient
no_com
symmetry c1
}

set {
basis        aug-cc-pVTZ
scf_type     df
}

energy("mp2")
--------------------------------------------------------------------------

    Molecular point group: c1

    Geometry (in Angstrom), charge = 1, multiplicity = 1:

       Center              X                  Y                   Z               Mass
    ------------   -----------------  -----------------  -----------------  -----------------
         LI           0.000000000000     0.000000000000     0.000000000000     7.016003436600
         O            2.105125000000     0.004064000000     0.000073000000    15.994914619570
         H            2.692086000000     0.763743000000     0.003931000000     1.007825032230
         H            2.695323000000    -0.753099000000    -0.003791000000     1.007825032230
         O           -0.005881000000     2.202644000000     0.005709000000    15.994914619570
         H           -0.759055000000     2.797230000000     0.004681000000     1.007825032230
         H            0.749729000000     2.794134000000     0.004461000000     1.007825032230
         O           -2.103286000000     0.002241000000    -0.000014000000    15.994914619570
         H           -2.698007000000    -0.751365000000    -0.003850000000     1.007825032230
         H           -2.685658000000     0.765424000000     0.003881000000     1.007825032230
         O            0.001016000000    -2.196479000000    -0.005695000000    15.994914619570
         H            0.753343000000    -2.792129000000    -0.004557000000     1.007825032230
         H           -0.755808000000    -2.786400000000    -0.004582000000     1.007825032230
         O            0.003099000000    -0.001488000000     2.050341000000    15.994914619570
         H           -0.759215000000    -0.007697000000     2.631837000000     1.007825032230
         H            0.768379000000    -0.011643000000     2.627869000000     1.007825032230
         O            0.003145000000     0.008130000000    -2.050319000000    15.994914619570
         H           -0.759192000000     0.007978000000    -2.631818000000     1.007825032230
         H            0.768403000000     0.003906000000    -2.627951000000     1.007825032230

  Charge       = 1
  Multiplicity = 1
  Basis Set: AUG-CC-PVTZ
    Blend: AUG-CC-PVTZ
  Basis Set: (AUG-CC-PVTZ AUX)
    Blend: AUG-CC-PVTZ-JKFIT + DEF2-UNIVERSAL-JKFIT

    Orbital Energies [Eh]
    ---------------------

    Doubly Occupied:

       1A    -20.713565     2A    -20.713524     3A    -20.698991
       4A    -20.698696     5A    -20.691137     6A    -20.691136
       7A     -2.477626     8A     -1.503850     9A     -1.502926
      10A     -1.488367    11A     -1.487987    12A     -1.481843
      13A     -1.480308    14A     -0.869951    15A     -0.865697
      16A     -0.852452    17A     -0.847854    18A     -0.846135
      19A     -0.844754    20A     -0.770883    21A     -0.748947
      22A     -0.736693    23A     -0.735948    24A     -0.723297
      25A     -0.710016    26A     -0.661314    27A     -0.660729
      28A     -0.659320    29A     -0.643622    30A     -0.637922
      31A     -0.624854

  @DF-RHF Final Energy:  -463.77162852198279

   => Energetics <=

    Nuclear Repulsion Energy =            334.1748936977629114
    One-Electron Energy =               -1297.7523436933824996
    Two-Electron Energy =                 499.8058214736368541
    Total Energy =                       -463.7716285219827910
 Dipole X            :         -0.0653100            0.0681662            0.0028562
 Dipole Y            :         -0.3510067            0.3457783           -0.0052284
 Dipole Z            :         -0.0017021            0.0016460           -0.0000562
 Magnitude           :                                                    0.0059580
  Basis Set: (AUG-CC-PVTZ AUX)
    Blend: AUG-CC-PVTZ-RI + DEF2-QZVPP-RI
	 Reference Energy          =    -463.7716285219827910 [Eh]
	 Singles Energy            =      -0.0000000000000000 [Eh]
	 Same-Spin Energy          =      -0.4165217825077050 [Eh]
	 Opposite-Spin Energy      =      -1.3158575240770605 [Eh]
	 Correlation Energy        =      -1.7323793065847655 [Eh]
	 Total Energy              =    -465.5040078285675804 [Eh]

	 ================> DF-SCS-MP2 Energies <==================
	-----------------------------------------------------------
	 SCS Same-Spin Scale       =       0.3333333333333333 [-]
	 SCS Opposite-Spin Scale   =       1.2000000000000000 [-]
	 SCS Same-Spin Energy      =      -0.1388405941692350 [Eh]
	 SCS Opposite-Spin Energy  =      -1.5790290288924724 [Eh]
	 SCS Correlation Energy    =      -1.7178696230617074 [Eh]
	 SCS Total Energy          =    -465.4894981450444789 [Eh]
	-----------------------------------------------------------

*** Psi4 exiting successfully. Buy a developer a beer!
