                               Psi4 1.9.1 release

  ==> Input File <==

--------------------------------------------------------------------------
MEMORY 60 GB

molecule dimer {
0 1
Gh(Na)     0.000000     0.000000     0.000000
Gh(O)      2.219984     0.000000     0.000000
Gh(H)      2.808012     0.759335    -0.000000
Gh(H)      2.808012    -0.759335    -0.000000
Gh(O)     -1.109992     1.922562     0.000000
Gh(H)     -2.061610     2.052143     0.000000
Gh(H)     -0.746403     2.811478    -0.000000
O         -1.109992    -1.922562     0.000000
H         -0.746403    -2.811478     0.000000
H         -2.061610    -2.052143    -0.000000

units ang
no_reorient
no_com
symmetry c1
}

set {
basis        aug-cc-pVTZ
scf_type     df
}

energy("mp2")
--------------------------------------------------------------------------

    Molecular point group: c1

    Geometry (in Angstrom), charge = 0, multiplicity = 1:

       Center              X                  Y                   Z               Mass
    ------------   -----------------  -----------------  -----------------  -----------------
      Gh(NA)          0.000000000000     0.000000000000     0.000000000000    22.989769282000
      Gh(O)           2.219984000000     0.000000000000     0.000000000000    15.994914619570
      Gh(H)           2.808012000000     0.759335000000     0.000000000000     1.007825032230
      Gh(H)           2.808012000000    -0.759335000000     0.000000000000     1.007825032230
      Gh(O)          -1.109992000000     1.922562000000     0.000000000000    15.994914619570
      Gh(H)          -2.061610000000     2.052143000000     0.000000000000     1.007825032230
      Gh(H)          -0.746403000000     2.811478000000     0.000000000000     1.007825032230
         O           -1.109992000000    -1.922562000000     0.000000000000    15.994914619570
         H           -0.746403000000    -2.811478000000     0.000000000000     1.007825032230
         H           -2.061610000000    -2.052143000000     0.000000000000     1.007825032230

  Charge       = 0
  Multiplicity = 1
  Basis Set: AUG-CC-PVTZ
    Blend: AUG-CC-PVTZ
  Basis Set: (AUG-CC-PVTZ AUX)
    Blend: AUG-CC-PVTZ-JKFIT + DEF2-UNIVERSAL-JKFIT

    Orbital Energies [Eh]
    ---------------------

    Doubly Occupied:

       1A    -20.567636     2A     -1.351906     3A     -0.715999
       4A     -0.584332     5A     -0.510044

  @DF-RHF Final Energy:   -76.06046415755688

   => Energetics <=

    Nuclear Repulsion Energy =              9.1643937854328481
    One-Electron Energy =                -122.9898788556059088
    Two-Electron Energy =                  37.7650209126161727
    Total Energy =                        -76.0604641575568792
 Dipole X            :         21.6966553          -22.0870226           -0.3903673
 Dipole Y            :         37.5797003          -38.2558368           -0.6761365
 Dipole Z            :         -0.0000000            0.0000000           -0.0000000
 Magnitude           :                                                    0.7807350
  Basis Set: (AUG-CC-PVTZ AUX)
    Blend: AUG-CC-PVTZ-RI + DEF2-QZVPP-RI
	 Reference Energy          =     -76.0604641575568792 [Eh]
	 Singles Energy            =      -0.0000000000000000 [Eh]
	 Same-Spin Energy          =      -0.0684396180448779 [Eh]
	 Opposite-Spin Energy      =      -0.2157976026690540 [Eh]
	 Correlation Energy        =      -0.2842372207139319 [Eh]
	 Total Energy              =     -76.3447013782708126 [Eh]

	 ================> DF-SCS-MP2 Energies <==================
	-----------------------------------------------------------
	 SCS Same-Spin Scale       =       0.3333333333333333 [-]
	 SCS Opposite-Spin Scale   =       1.2000000000000000 [-]
	 SCS Same-Spin Energy      =      -0.0228132060149593 [Eh]
	 SCS Opposite-Spin Energy  =      -0.2589571232028648 [Eh]
	 SCS Correlation Energy    =      -0.2817703292178241 [Eh]
	 SCS Total Energy          =     -76.3422344867747000 [Eh]
	-----------------------------------------------------------

*** Psi4 exiting successfully. Buy a developer a beer!
