                               Psi4 1.9.1 release

  ==> Input File <==

--------------------------------------------------------------------------
MEMORY 60 GB

molecule dimer {
0 1
Gh(Na)     0.000000     0.000000     0.000000
O          2.219984     0.000000     0.000000
H          2.808012     0.759335    -0.000000
H          2.808012    -0.759335    -0.000000
Gh(O)     -1.109992     1.922562     0.000000
Gh(H)     -2.061610     2.052143     0.000000
Gh(H)     -0.746403     2.811478    -0.000000
Gh(O)     -1.109992    -1.922562     0.000000
Gh(H)     -0.746403    -2.811478     0.000000
Gh(H)     -2.061610    -2.052143    -0.000000

units ang
no_reorient
no_com
symmetry c1
}

set {
basis        aug-cc-pVTZ
scf_type     df
}

energy("mp2")
--------------------------------------------------------------------------

    Molecular point group: c1

    Geometry (in Angstrom), charge = 0, multiplicity = 1:

       Center              X                  Y                   Z               Mass
    ------------   -----------------  -----------------  -----------------  -----------------
      Gh(NA)          0.000000000000     0.000000000000     0.000000000000    22.989769282000
         O            2.219984000000     0.000000000000     0.000000000000    15.994914619570
         H            2.808012000000     0.759335000000     0.000000000000     1.007825032230
         H            2.808012000000    -0.759335000000     0.000000000000     1.007825032230
      Gh(O)          -1.109992000000     1.922562000000     0.000000000000    15.994914619570
      Gh(H)          -2.061610000000     2.052143000000     0.000000000000     1.007825032230
      Gh(H)          -0.746403000000     2.811478000000     0.000000000000     1.007825032230
      Gh(O)          -1.109992000000    -1.922562000000     0.000000000000    15.994914619570
      Gh(H)          -0.746403000000    -2.811478000000     0.000000000000     1.007825032230
      Gh(H)          -2.061610000000    -2.052143000000     0.000000000000     1.007825032230

  Charge       = 0
  Multiplicity = 1
  Basis Set: AUG-CC-PVTZ
    Blend: AUG-CC-PVTZ
  Basis Set: (AUG-CC-PVTZ AUX)
    Blend: AUG-CC-PVTZ-JKFIT + DEF2-UNIVERSAL-JKFIT

    Orbital Energies [Eh]
    ---------------------

    Doubly Occupied:

       1A    -20.567635     2A     -1.351906     3A     -0.716000
       4A     -0.584332     5A     -0.510044

  @DF-RHF Final Energy:   -76.06046423570794

   => Energetics <=

    Nuclear Repulsion Energy =              9.1644022539713088
    One-Electron Energy =                -122.9898941871398250
    Two-Electron Energy =                  37.7650276974605816
    Total Energy =                        -76.0604642357079399
 Dipole X            :        -43.3933075           44.1740414            0.7807339
 Dipole Y            :         -0.0000000            0.0000000           -0.0000000
 Dipole Z            :          0.0000000            0.0000000            0.0000000
 Magnitude           :                                                    0.7807339
  Basis Set: (AUG-CC-PVTZ AUX)
    Blend: AUG-CC-PVTZ-RI + DEF2-QZVPP-RI
	 Reference Energy          =     -76.0604642357079399 [Eh]
	 Singles Energy            =      -0.0000000000000000 [Eh]
	 Same-Spin Energy          =      -0.0684395996007173 [Eh]
	 Opposite-Spin Energy      =      -0.2157975466200262 [Eh]
	 Correlation Energy        =      -0.2842371462207435 [Eh]
	 Total Energy              =     -76.3447013819286866 [Eh]

	 ================> DF-SCS-MP2 Energies <==================
	-----------------------------------------------------------
	 SCS Same-Spin Scale       =       0.3333333333333333 [-]
	 SCS Opposite-Spin Scale   =       1.2000000000000000 [-]
	 SCS Same-Spin Energy      =      -0.0228131998669058 [Eh]
	 SCS Opposite-Spin Energy  =      -0.2589570559440314 [Eh]
	 SCS Correlation Energy    =      -0.2817702558109372 [Eh]
	 SCS Total Energy          =     -76.3422344915188802 [Eh]
	-----------------------------------------------------------

*** Psi4 exiting successfully. Buy a developer a beer!
