                               Psi4 1.9.1 release

  ==> Input File <==

--------------------------------------------------------------------------
MEMORY 60 GB

molecule dimer {
1 1
Na         0.000000     0.000000     0.000000
Gh(O)      2.219984     0.000000     0.000000
Gh(H)      2.808012     0.759335    -0.000000
Gh(H)      2.808012    -0.759335    -0.000000
Gh(O)     -1.109992     1.922562     0.000000
Gh(H)     -2.061610     2.052143     0.000000
Gh(H)     -0.746403     2.811478    -0.000000
Gh(O)     -1.109992    -1.922562     0.000000
Gh(H)     -0.746403    -2.811478     0.000000
Gh(H)     -2.061610    -2.052143    -0.000000

units ang
no_reorient
no_com
symmetry c1
}

set {
basis        aug-cc-pVTZ
scf_type     df
}

energy("mp2")
--------------------------------------------------------------------------

    Molecular point group: c1

    Geometry (in Angstrom), charge = 1, multiplicity = 1:

       Center              X                  Y                   Z               Mass
    ------------   -----------------  -----------------  -----------------  -----------------
         NA           0.000000000000     0.000000000000     0.000000000000    22.989769282000
      Gh(O)           2.219984000000     0.000000000000     0.000000000000    15.994914619570
      Gh(H)           2.808012000000     0.759335000000     0.000000000000     1.007825032230
      Gh(H)           2.808012000000    -0.759335000000     0.000000000000     1.007825032230
      Gh(O)          -1.109992000000     1.922562000000     0.000000000000    15.994914619570
      Gh(H)          -2.061610000000     2.052143000000     0.000000000000     1.007825032230
      Gh(H)          -0.746403000000     2.811478000000     0.000000000000     1.007825032230
      Gh(O)          -1.109992000000    -1.922562000000     0.000000000000    15.994914619570
      Gh(H)          -0.746403000000    -2.811478000000     0.000000000000     1.007825032230
      Gh(H)          -2.061610000000    -2.052143000000     0.000000000000     1.007825032230

  Charge       = 1
  Multiplicity = 1
  Basis Set: AUG-CC-PVTZ
    Blend: AUG-CC-PVTZ
  Basis Set: (AUG-CC-PVTZ AUX)
    Blend: AUG-CC-PVTZ-JKFIT + DEF2-UNIVERSAL-JKFIT

    Orbital Energies [Eh]
    ---------------------

    Doubly Occupied:

       1A    -40.761175     2A     -3.074160     3A     -1.797556
       4A     -1.797556     5A     -1.797257

  @DF-RHF Final Energy:  -161.67607192661941

   => Energetics <=

    Nuclear Repulsion Energy =              0.0000000000000000
    One-Electron Energy =                -224.8967341822869912
    Two-Electron Energy =                  63.2206622556675626
    Total Energy =                       -161.6760719266194428
 Dipole X            :          0.0000000            0.0000000            0.0000000
 Dipole Y            :          0.0000000            0.0000000            0.0000000
 Dipole Z            :          0.0000000            0.0000000            0.0000000
 Magnitude           :                                                    0.0000000
  Basis Set: (AUG-CC-PVTZ AUX)
    Blend: AUG-CC-PVTZ-RI + DEF2-QZVPP-RI
	 Reference Energy          =    -161.6760719266194144 [Eh]
	 Singles Energy            =      -0.0000000000000000 [Eh]
	 Same-Spin Energy          =      -0.0044362941709909 [Eh]
	 Opposite-Spin Energy      =      -0.0147204989727587 [Eh]
	 Correlation Energy        =      -0.0191567931437496 [Eh]
	 Total Energy              =    -161.6952287197631506 [Eh]

	 ================> DF-SCS-MP2 Energies <==================
	-----------------------------------------------------------
	 SCS Same-Spin Scale       =       0.3333333333333333 [-]
	 SCS Opposite-Spin Scale   =       1.2000000000000000 [-]
	 SCS Same-Spin Energy      =      -0.0014787647236636 [Eh]
	 SCS Opposite-Spin Energy  =      -0.0176645987673105 [Eh]
	 SCS Correlation Energy    =      -0.0191433634909741 [Eh]
	 SCS Total Energy          =    -161.6952152901103830 [Eh]
	-----------------------------------------------------------

*** Psi4 exiting successfully. Buy a developer a beer!
