                               Psi4 1.9.1 release

  ==> Input File <==

--------------------------------------------------------------------------
MEMORY 60 GB

molecule dimer {
1 1
Na         0.000000     0.000000     0.000000
O          2.219984     0.000000     0.000000
H          2.808012     0.759335    -0.000000
H          2.808012    -0.759335    -0.000000
O         -1.109992     1.922562     0.000000
H         -2.061610     2.052143     0.000000
H         -0.746403     2.811478    -0.000000
O         -1.109992    -1.922562     0.000000
H         -0.746403    -2.811478     0.000000
H         -2.061610    -2.052143    -0.000000

units ang
no_reorient
no_com
symmetry c1
}

set {
basis        aug-cc-pVTZ
scf_type     df
}

energy("mp2")
--------------------------------------------------------------------------

    Molecular point group: c1

    Geometry (in Angstrom), charge = 1, multiplicity = 1:

       Center              X                  Y                   Z               Mass
    ------------   -----------------  -----------------  -----------------  -----------------
         NA           0.000000000000     0.000000000000     0.000000000000    22.989769282000
         O            2.219984000000     0.000000000000     0.000000000000    15.994914619570
         H            2.808012000000     0.759335000000     0.000000000000     1.007825032230
         H            2.808012000000    -0.759335000000     0.000000000000     1.007825032230
         O           -1.109992000000     1.922562000000     0.000000000000    15.994914619570
         H           -2.061610000000     2.052143000000     0.000000000000     1.007825032230
         H           -0.746403000000     2.811478000000     0.000000000000     1.007825032230
         O           -1.109992000000    -1.922562000000     0.000000000000    15.994914619570
         H           -0.746403000000    -2.811478000000     0.000000000000     1.007825032230
         H           -2.061610000000    -2.052143000000     0.000000000000     1.007825032230

  Charge       = 1
  Multiplicity = 1
  Basis Set: AUG-CC-PVTZ
    Blend: AUG-CC-PVTZ
  Basis Set: (AUG-CC-PVTZ AUX)
    Blend: AUG-CC-PVTZ-JKFIT + DEF2-UNIVERSAL-JKFIT

    Orbital Energies [Eh]
    ---------------------

    Doubly Occupied:

       1A    -40.586748     2A    -20.745596     3A    -20.745596
       4A    -20.745595     5A     -2.911052     6A     -1.636780
       7A     -1.636780     8A     -1.635068     9A     -1.534954
      10A     -1.532560    11A     -1.532560    12A     -0.897387
      13A     -0.897386    14A     -0.895932    15A     -0.790858
      16A     -0.782006    17A     -0.782006    18A     -0.695792
      19A     -0.694382    20A     -0.694382

  @DF-RHF Final Energy:  -389.95713352565042

   => Energetics <=

    Nuclear Repulsion Energy =            141.7170104820901031
    One-Electron Energy =                -818.6014440131128822
    Two-Electron Energy =                 286.9273000053723308
    Total Energy =                       -389.9571335256504199
 Dipole X            :          0.0000027           -0.0000038           -0.0000011
 Dipole Y            :         -0.0000000           -0.0000000           -0.0000000
 Dipole Z            :          0.0000000            0.0000000            0.0000000
 Magnitude           :                                                    0.0000011
  Basis Set: (AUG-CC-PVTZ AUX)
    Blend: AUG-CC-PVTZ-RI + DEF2-QZVPP-RI
	 Reference Energy          =    -389.9571335256504199 [Eh]
	 Singles Energy            =      -0.0000000000000000 [Eh]
	 Same-Spin Energy          =      -0.2089787190799088 [Eh]
	 Opposite-Spin Energy      =      -0.6574201309398930 [Eh]
	 Correlation Energy        =      -0.8663988500198019 [Eh]
	 Total Energy              =    -390.8235323756701973 [Eh]

	 ================> DF-SCS-MP2 Energies <==================
	-----------------------------------------------------------
	 SCS Same-Spin Scale       =       0.3333333333333333 [-]
	 SCS Opposite-Spin Scale   =       1.2000000000000000 [-]
	 SCS Same-Spin Energy      =      -0.0696595730266363 [Eh]
	 SCS Opposite-Spin Energy  =      -0.7889041571278717 [Eh]
	 SCS Correlation Energy    =      -0.8585637301545079 [Eh]
	 SCS Total Energy          =    -390.8156972558049347 [Eh]
	-----------------------------------------------------------

*** Psi4 exiting successfully. Buy a developer a beer!
