                               Psi4 1.9.1 release

  ==> Input File <==

--------------------------------------------------------------------------
MEMORY 60 GB

molecule dimer {
0 1
Gh(Na)     0.000000     0.000000     0.000000
Gh(O)      1.870172    -0.000000    -1.173415
Gh(H)      2.316655     0.760558    -1.552451
Gh(H)      2.316655    -0.760558    -1.552451
Gh(O)     -1.871411    -0.000000    -1.171436
Gh(H)     -2.318235     0.760557    -1.550073
Gh(H)     -2.318235    -0.760557    -1.550073
Gh(O)      0.000572     1.870196     1.173356
Gh(H)     -0.759836     2.316556     1.552839
Gh(H)      0.761280     2.316751     1.552004
O          0.000572    -1.870196     1.173356
H         -0.759836    -2.316556     1.552839
H          0.761280    -2.316751     1.552004

units ang
no_reorient
no_com
symmetry c1
}

set {
basis        aug-cc-pVTZ
scf_type     df
}

energy("mp2")
--------------------------------------------------------------------------

    Molecular point group: c1

    Geometry (in Angstrom), charge = 0, multiplicity = 1:

       Center              X                  Y                   Z               Mass
    ------------   -----------------  -----------------  -----------------  -----------------
      Gh(NA)          0.000000000000     0.000000000000     0.000000000000    22.989769282000
      Gh(O)           1.870172000000     0.000000000000    -1.173415000000    15.994914619570
      Gh(H)           2.316655000000     0.760558000000    -1.552451000000     1.007825032230
      Gh(H)           2.316655000000    -0.760558000000    -1.552451000000     1.007825032230
      Gh(O)          -1.871411000000     0.000000000000    -1.171436000000    15.994914619570
      Gh(H)          -2.318235000000     0.760557000000    -1.550073000000     1.007825032230
      Gh(H)          -2.318235000000    -0.760557000000    -1.550073000000     1.007825032230
      Gh(O)           0.000572000000     1.870196000000     1.173356000000    15.994914619570
      Gh(H)          -0.759836000000     2.316556000000     1.552839000000     1.007825032230
      Gh(H)           0.761280000000     2.316751000000     1.552004000000     1.007825032230
         O            0.000572000000    -1.870196000000     1.173356000000    15.994914619570
         H           -0.759836000000    -2.316556000000     1.552839000000     1.007825032230
         H            0.761280000000    -2.316751000000     1.552004000000     1.007825032230

  Charge       = 0
  Multiplicity = 1
  Basis Set: AUG-CC-PVTZ
    Blend: AUG-CC-PVTZ
  Basis Set: (AUG-CC-PVTZ AUX)
    Blend: AUG-CC-PVTZ-JKFIT + DEF2-UNIVERSAL-JKFIT

    Orbital Energies [Eh]
    ---------------------

    Doubly Occupied:

       1A    -20.567359     2A     -1.351894     3A     -0.716828
       4A     -0.583785     5A     -0.509991

  @DF-RHF Final Energy:   -76.06053932846289

   => Energetics <=

    Nuclear Repulsion Energy =              9.1681601964482642
    One-Electron Energy =                -122.9976854321706412
    Two-Electron Energy =                  37.7689859072594771
    Total Energy =                        -76.0605393284628946
 Dipole X            :         -0.0111766            0.0113762            0.0001996
 Dipole Y            :         36.4355889          -37.0289472           -0.5933584
 Dipole Z            :        -23.1021692           23.6058748            0.5037056
 Magnitude           :                                                    0.7783274
  Basis Set: (AUG-CC-PVTZ AUX)
    Blend: AUG-CC-PVTZ-RI + DEF2-QZVPP-RI
	 Reference Energy          =     -76.0605393284628946 [Eh]
	 Singles Energy            =      -0.0000000000000000 [Eh]
	 Same-Spin Energy          =      -0.0684410458641174 [Eh]
	 Opposite-Spin Energy      =      -0.2158848394303012 [Eh]
	 Correlation Energy        =      -0.2843258852944185 [Eh]
	 Total Energy              =     -76.3448652137573163 [Eh]

	 ================> DF-SCS-MP2 Energies <==================
	-----------------------------------------------------------
	 SCS Same-Spin Scale       =       0.3333333333333333 [-]
	 SCS Opposite-Spin Scale   =       1.2000000000000000 [-]
	 SCS Same-Spin Energy      =      -0.0228136819547058 [Eh]
	 SCS Opposite-Spin Energy  =      -0.2590618073163614 [Eh]
	 SCS Correlation Energy    =      -0.2818754892710672 [Eh]
	 SCS Total Energy          =     -76.3424148177339674 [Eh]
	-----------------------------------------------------------

*** Psi4 exiting successfully. Buy a developer a beer!
