                               Psi4 1.9.1 release

  ==> Input File <==

--------------------------------------------------------------------------
MEMORY 60 GB

molecule dimer {
0 1
Gh(Na)     0.000000     0.000000     0.000000
O          1.870172    -0.000000    -1.173415
H          2.316655     0.760558    -1.552451
H          2.316655    -0.760558    -1.552451
Gh(O)     -1.871411    -0.000000    -1.171436
Gh(H)     -2.318235     0.760557    -1.550073
Gh(H)     -2.318235    -0.760557    -1.550073
Gh(O)      0.000572     1.870196     1.173356
Gh(H)     -0.759836     2.316556     1.552839
Gh(H)      0.761280     2.316751     1.552004
Gh(O)      0.000572    -1.870196     1.173356
Gh(H)     -0.759836    -2.316556     1.552839
Gh(H)      0.761280    -2.316751     1.552004

units ang
no_reorient
no_com
symmetry c1
}

set {
basis        aug-cc-pVTZ
scf_type     df
}

energy("mp2")
--------------------------------------------------------------------------

    Molecular point group: c1

    Geometry (in Angstrom), charge = 0, multiplicity = 1:

       Center              X                  Y                   Z               Mass
    ------------   -----------------  -----------------  -----------------  -----------------
      Gh(NA)          0.000000000000     0.000000000000     0.000000000000    22.989769282000
         O            1.870172000000     0.000000000000    -1.173415000000    15.994914619570
         H            2.316655000000     0.760558000000    -1.552451000000     1.007825032230
         H            2.316655000000    -0.760558000000    -1.552451000000     1.007825032230
      Gh(O)          -1.871411000000     0.000000000000    -1.171436000000    15.994914619570
      Gh(H)          -2.318235000000     0.760557000000    -1.550073000000     1.007825032230
      Gh(H)          -2.318235000000    -0.760557000000    -1.550073000000     1.007825032230
      Gh(O)           0.000572000000     1.870196000000     1.173356000000    15.994914619570
      Gh(H)          -0.759836000000     2.316556000000     1.552839000000     1.007825032230
      Gh(H)           0.761280000000     2.316751000000     1.552004000000     1.007825032230
      Gh(O)           0.000572000000    -1.870196000000     1.173356000000    15.994914619570
      Gh(H)          -0.759836000000    -2.316556000000     1.552839000000     1.007825032230
      Gh(H)           0.761280000000    -2.316751000000     1.552004000000     1.007825032230

  Charge       = 0
  Multiplicity = 1
  Basis Set: AUG-CC-PVTZ
    Blend: AUG-CC-PVTZ
  Basis Set: (AUG-CC-PVTZ AUX)
    Blend: AUG-CC-PVTZ-JKFIT + DEF2-UNIVERSAL-JKFIT

    Orbital Energies [Eh]
    ---------------------

    Doubly Occupied:

       1A    -20.567359     2A     -1.351894     3A     -0.716827
       4A     -0.583785     5A     -0.509991

  @DF-RHF Final Energy:   -76.06053929800940

   => Energetics <=

    Nuclear Repulsion Energy =              9.1681592960638554
    One-Electron Energy =                -122.9976835751090647
    Two-Electron Energy =                  37.7689849810358140
    Total Energy =                        -76.0605392980094024
 Dipole X            :        -36.4351979           37.0285901            0.5933922
 Dipole Y            :          0.0000000            0.0000000            0.0000000
 Dipole Z            :         23.1032120          -23.6068783           -0.5036662
 Magnitude           :                                                    0.7783277
  Basis Set: (AUG-CC-PVTZ AUX)
    Blend: AUG-CC-PVTZ-RI + DEF2-QZVPP-RI
	 Reference Energy          =     -76.0605392980094024 [Eh]
	 Singles Energy            =      -0.0000000000000000 [Eh]
	 Same-Spin Energy          =      -0.0684410437887026 [Eh]
	 Opposite-Spin Energy      =      -0.2158848071055878 [Eh]
	 Correlation Energy        =      -0.2843258508942904 [Eh]
	 Total Energy              =     -76.3448651489036934 [Eh]

	 ================> DF-SCS-MP2 Energies <==================
	-----------------------------------------------------------
	 SCS Same-Spin Scale       =       0.3333333333333333 [-]
	 SCS Opposite-Spin Scale   =       1.2000000000000000 [-]
	 SCS Same-Spin Energy      =      -0.0228136812629009 [Eh]
	 SCS Opposite-Spin Energy  =      -0.2590617685267054 [Eh]
	 SCS Correlation Energy    =      -0.2818754497896062 [Eh]
	 SCS Total Energy          =     -76.3424147477990118 [Eh]
	-----------------------------------------------------------

*** Psi4 exiting successfully. Buy a developer a beer!
