                               Psi4 1.9.1 release

  ==> Input File <==

--------------------------------------------------------------------------
MEMORY 60 GB

molecule dimer {
1 1
Na         0.000000     0.000000     0.000000
Gh(O)      1.870172    -0.000000    -1.173415
Gh(H)      2.316655     0.760558    -1.552451
Gh(H)      2.316655    -0.760558    -1.552451
Gh(O)     -1.871411    -0.000000    -1.171436
Gh(H)     -2.318235     0.760557    -1.550073
Gh(H)     -2.318235    -0.760557    -1.550073
Gh(O)      0.000572     1.870196     1.173356
Gh(H)     -0.759836     2.316556     1.552839
Gh(H)      0.761280     2.316751     1.552004
Gh(O)      0.000572    -1.870196     1.173356
Gh(H)     -0.759836    -2.316556     1.552839
Gh(H)      0.761280    -2.316751     1.552004

units ang
no_reorient
no_com
symmetry c1
}

set {
basis        aug-cc-pVTZ
scf_type     df
}

energy("mp2")
--------------------------------------------------------------------------

    Molecular point group: c1

    Geometry (in Angstrom), charge = 1, multiplicity = 1:

       Center              X                  Y                   Z               Mass
    ------------   -----------------  -----------------  -----------------  -----------------
         NA           0.000000000000     0.000000000000     0.000000000000    22.989769282000
      Gh(O)           1.870172000000     0.000000000000    -1.173415000000    15.994914619570
      Gh(H)           2.316655000000     0.760558000000    -1.552451000000     1.007825032230
      Gh(H)           2.316655000000    -0.760558000000    -1.552451000000     1.007825032230
      Gh(O)          -1.871411000000     0.000000000000    -1.171436000000    15.994914619570
      Gh(H)          -2.318235000000     0.760557000000    -1.550073000000     1.007825032230
      Gh(H)          -2.318235000000    -0.760557000000    -1.550073000000     1.007825032230
      Gh(O)           0.000572000000     1.870196000000     1.173356000000    15.994914619570
      Gh(H)          -0.759836000000     2.316556000000     1.552839000000     1.007825032230
      Gh(H)           0.761280000000     2.316751000000     1.552004000000     1.007825032230
      Gh(O)           0.000572000000    -1.870196000000     1.173356000000    15.994914619570
      Gh(H)          -0.759836000000    -2.316556000000     1.552839000000     1.007825032230
      Gh(H)           0.761280000000    -2.316751000000     1.552004000000     1.007825032230

  Charge       = 1
  Multiplicity = 1
  Basis Set: AUG-CC-PVTZ
    Blend: AUG-CC-PVTZ
  Basis Set: (AUG-CC-PVTZ AUX)
    Blend: AUG-CC-PVTZ-JKFIT + DEF2-UNIVERSAL-JKFIT

    Orbital Energies [Eh]
    ---------------------

    Doubly Occupied:

       1A    -40.760054     2A     -3.073678     3A     -1.797045
       4A     -1.797045     5A     -1.797014

  @DF-RHF Final Energy:  -161.67609090208819

   => Energetics <=

    Nuclear Repulsion Energy =              0.0000000000000000
    One-Electron Energy =                -224.9025120449253166
    Two-Electron Energy =                  63.2264211428371254
    Total Energy =                       -161.6760909020881911
 Dipole X            :         -0.0000000            0.0000000           -0.0000000
 Dipole Y            :         -0.0000000            0.0000000           -0.0000000
 Dipole Z            :         -0.0000000            0.0000000           -0.0000000
 Magnitude           :                                                    0.0000000
  Basis Set: (AUG-CC-PVTZ AUX)
    Blend: AUG-CC-PVTZ-RI + DEF2-QZVPP-RI
	 Reference Energy          =    -161.6760909020881911 [Eh]
	 Singles Energy            =      -0.0000000000000000 [Eh]
	 Same-Spin Energy          =      -0.0060282823611366 [Eh]
	 Opposite-Spin Energy      =      -0.0183650781328461 [Eh]
	 Correlation Energy        =      -0.0243933604939827 [Eh]
	 Total Energy              =    -161.7004842625821652 [Eh]

	 ================> DF-SCS-MP2 Energies <==================
	-----------------------------------------------------------
	 SCS Same-Spin Scale       =       0.3333333333333333 [-]
	 SCS Opposite-Spin Scale   =       1.2000000000000000 [-]
	 SCS Same-Spin Energy      =      -0.0020094274537122 [Eh]
	 SCS Opposite-Spin Energy  =      -0.0220380937594153 [Eh]
	 SCS Correlation Energy    =      -0.0240475212131275 [Eh]
	 SCS Total Energy          =    -161.7001384233013255 [Eh]
	-----------------------------------------------------------

*** Psi4 exiting successfully. Buy a developer a beer!
