                               Psi4 1.9 release

  ==> Input File <==

--------------------------------------------------------------------------
MEMORY 60 GB

molecule dimer {
1 1
Na     0.000000     0.000000     0.000000
--
0 1
O      1.870172    -0.000000    -1.173415
H      2.316655     0.760558    -1.552451
H      2.316655    -0.760558    -1.552451
O     -1.871411    -0.000000    -1.171436
H     -2.318235     0.760557    -1.550073
H     -2.318235    -0.760557    -1.550073
O      0.000572     1.870196     1.173356
H     -0.759836     2.316556     1.552839
H      0.761280     2.316751     1.552004
O      0.000572    -1.870196     1.173356
H     -0.759836    -2.316556     1.552839
H      0.761280    -2.316751     1.552004

units ang
no_reorient
no_com
symmetry c1
}

set {
basis        aug-cc-pVTZ
scf_type     df
}

energy("mp2", bsse_type="cp")
--------------------------------------------------------------------------

                               Psi4 1.9 release
    Molecular point group: c1
  Charge       = 0
  Multiplicity = 1
  Basis Set: AUG-CC-PVTZ
    Blend: AUG-CC-PVTZ
  Basis Set: (AUG-CC-PVTZ AUX)
    Blend: AUG-CC-PVTZ-JKFIT + DEF2-UNIVERSAL-JKFIT
  @DF-RHF Final Energy:  -304.22724213409788
    Total Energy =                       -304.2272421340978781
 Dipole X            :          0.0019032           -0.0019502           -0.0000470
 Dipole Y            :          0.0000000           -0.0000000            0.0000000
 Dipole Z            :         -0.0363497            0.0368988            0.0005491
 Magnitude           :                                                    0.0005511
  Basis Set: (AUG-CC-PVTZ AUX)
    Blend: AUG-CC-PVTZ-RI + DEF2-QZVPP-RI
	 Reference Energy          =    -304.2272421340978781 [Eh]
	 Singles Energy            =      -0.0000000000000000 [Eh]
	 Same-Spin Energy          =      -0.2754167846727744 [Eh]
	 Opposite-Spin Energy      =      -0.8662668339695890 [Eh]
	 Correlation Energy        =      -1.1416836186423636 [Eh]
	 Total Energy              =    -305.3689257527402674 [Eh]
	 SCS Total Energy          =    -305.3585679297523257 [Eh]
                               Psi4 1.9 release
    Molecular point group: c1
  Multiplicity = 1
  Basis Set: AUG-CC-PVTZ
    Blend: AUG-CC-PVTZ
  Basis Set: (AUG-CC-PVTZ AUX)
    Blend: AUG-CC-PVTZ-JKFIT + DEF2-UNIVERSAL-JKFIT
  @DF-RHF Final Energy:  -161.67609090208816
    Total Energy =                       -161.6760909020881911
  Basis Set: (AUG-CC-PVTZ AUX)
	 Singles Energy            =      -0.0000000000000000 [Eh]
	 Same-Spin Energy          =      -0.0060282823611369 [Eh]
	 Opposite-Spin Energy      =      -0.0183650781328461 [Eh]
	 Correlation Energy        =      -0.0243933604939830 [Eh]
	 Total Energy              =    -161.7004842625821368 [Eh]
	 SCS Total Energy          =    -161.7001384233012971 [Eh]
                               Psi4 1.9 release
    Molecular point group: c1

    Geometry (in Bohr), charge = 1, multiplicity = 1:

       Center              X                  Y                   Z               Mass
    ------------   -----------------  -----------------  -----------------  -----------------
         NA           0.000000000000     0.000000000000     0.000000000000    22.989769282000
         O            3.534112887500     0.000000000000    -2.217432981504    15.994914619570
         H            4.377843477173     1.437246322526    -2.933707213193     1.007825032230
         H            4.377843477173    -1.437246322526    -2.933707213193     1.007825032230
         O           -3.536454258169     0.000000000000    -2.213693213502    15.994914619570
         H           -4.380829244451     1.437244432800    -2.929213444467     1.007825032230
         H           -4.380829244451    -1.437244432800    -2.929213444467     1.007825032230
         O            0.001080923344     3.534158240927     2.217321487663    15.994914619570
         H           -1.435881940263     4.377656394286     2.934440426930     1.007825032230
         H            1.438610704789     4.378024890881     2.932862505615     1.007825032230
         O            0.001080923344    -3.534158240927     2.217321487663    15.994914619570
         H           -1.435881940263    -4.377656394286     2.934440426930     1.007825032230
         H            1.438610704789    -4.378024890881     2.932862505615     1.007825032230

  Charge       = 1
  Multiplicity = 1
  Basis Set: AUG-CC-PVTZ
    Blend: AUG-CC-PVTZ
  Basis Set: (AUG-CC-PVTZ AUX)
    Blend: AUG-CC-PVTZ-JKFIT + DEF2-UNIVERSAL-JKFIT

    Orbital Energies [Eh]
    ---------------------

    Doubly Occupied:

       1A    -40.537192     2A    -20.728683     3A    -20.728682
       4A    -20.728674     5A    -20.728674     6A     -2.865126
       7A     -1.592141     8A     -1.592139     9A     -1.591185
      10A     -1.519132    11A     -1.515665    12A     -1.515421
      13A     -1.515414    14A     -0.882890    15A     -0.881543
      16A     -0.881536    17A     -0.879480    18A     -0.777018
      19A     -0.763265    20A     -0.763253    21A     -0.761140
      22A     -0.680843    23A     -0.680034    24A     -0.676091
      25A     -0.676075

  @DF-RHF Final Energy:  -466.03838938121055

   => Energetics <=

    Nuclear Repulsion Energy =            220.9264365203254386
    One-Electron Energy =               -1081.0070489538516085
    Two-Electron Energy =                 394.0422230523156486
    Total Energy =                       -466.0383893812105498
 Dipole X            :          0.0018928           -0.0019502           -0.0000574
 Dipole Y            :          0.0000000           -0.0000000            0.0000000
 Dipole Z            :         -0.0360810            0.0368988            0.0008178
 Magnitude           :                                                    0.0008198
  Basis Set: (AUG-CC-PVTZ AUX)
    Blend: AUG-CC-PVTZ-RI + DEF2-QZVPP-RI
	 Reference Energy          =    -466.0383893812105498 [Eh]
	 Singles Energy            =      -0.0000000000000000 [Eh]
	 Same-Spin Energy          =      -0.2797130940264442 [Eh]
	 Opposite-Spin Energy      =      -0.8770236038820717 [Eh]
	 Correlation Energy        =      -1.1567366979085159 [Eh]
	 Total Energy              =    -467.1951260791190634 [Eh]

	 ================> DF-SCS-MP2 Energies <==================
	-----------------------------------------------------------
	 SCS Same-Spin Scale       =       0.3333333333333333 [-]
	 SCS Opposite-Spin Scale   =       1.2000000000000000 [-]
	 SCS Same-Spin Energy      =      -0.0932376980088147 [Eh]
	 SCS Opposite-Spin Energy  =      -1.0524283246584860 [Eh]
	 SCS Correlation Energy    =      -1.1456660226673008 [Eh]
	 SCS Total Energy          =    -467.1840554038778350 [Eh]
	-----------------------------------------------------------

*** Psi4 exiting successfully. Buy a developer a beer!
