                               Psi4 1.9 release

  ==> Input File <==

--------------------------------------------------------------------------
MEMORY 60 GB

molecule dimer {
1 1
Na     0.000000     0.000000     0.000000
--
0 1
O      2.127279     0.958722    -0.303191
H      1.886144     1.856127    -0.045765
H      3.083807     0.914107    -0.236147
O     -0.290523     2.307019     0.013940
H     -0.650774     3.093413     0.429897
H     -0.441263     2.417497    -0.932218
O     -1.241008    -1.890537     0.130238
H     -1.265291    -2.158266     1.052897
H     -1.758627    -2.547849    -0.339374
O      0.035120    -0.485188     2.275872
H     -0.468697    -0.019297     2.947733
H      0.810529    -0.811250     2.739680
O      0.109375     0.709487    -2.223872
H     -0.208283     0.571183    -3.118810
H      1.061421     0.839555    -2.299444

units ang
no_reorient
no_com
symmetry c1
}

set {
basis        aug-cc-pVTZ
scf_type     df
}

energy("mp2", bsse_type="cp")
--------------------------------------------------------------------------

                               Psi4 1.9 release
    Molecular point group: c1
  Charge       = 0
  Multiplicity = 1
  Basis Set: AUG-CC-PVTZ
    Blend: AUG-CC-PVTZ
  Basis Set: (AUG-CC-PVTZ AUX)
    Blend: AUG-CC-PVTZ-JKFIT + DEF2-UNIVERSAL-JKFIT
  @DF-RHF Final Energy:  -380.29186669681144
    Total Energy =                       -380.2918666968114394
 Dipole X            :        -14.6955486           15.0628369            0.3672883
 Dipole Y            :        -31.4380843           32.0332086            0.5951243
 Dipole Z            :          1.5533246           -1.2427878            0.3105368
 Magnitude           :                                                    0.7651841
  Basis Set: (AUG-CC-PVTZ AUX)
    Blend: AUG-CC-PVTZ-RI + DEF2-QZVPP-RI
	 Reference Energy          =    -380.2918666968114394 [Eh]
	 Singles Energy            =      -0.0000000000000000 [Eh]
	 Same-Spin Energy          =      -0.3481256536345429 [Eh]
	 Opposite-Spin Energy      =      -1.0875174431589993 [Eh]
	 Correlation Energy        =      -1.4356430967935423 [Eh]
	 Total Energy              =    -381.7275097936050088 [Eh]
	 SCS Total Energy          =    -381.7129295131470599 [Eh]
                               Psi4 1.9 release
    Molecular point group: c1
  Multiplicity = 1
  Basis Set: AUG-CC-PVTZ
    Blend: AUG-CC-PVTZ
  Basis Set: (AUG-CC-PVTZ AUX)
    Blend: AUG-CC-PVTZ-JKFIT + DEF2-UNIVERSAL-JKFIT
  @DF-RHF Final Energy:  -161.67609236947249
    Total Energy =                       -161.6760923694724852
  Basis Set: (AUG-CC-PVTZ AUX)
	 Singles Energy            =      -0.0000000000000000 [Eh]
	 Same-Spin Energy          =      -0.0076305837095347 [Eh]
	 Opposite-Spin Energy      =      -0.0227750241041597 [Eh]
	 Correlation Energy        =      -0.0304056078136945 [Eh]
	 Total Energy              =    -161.7064979772861761 [Eh]
	 SCS Total Energy          =    -161.7059659263006495 [Eh]
                               Psi4 1.9 release
    Molecular point group: c1

    Geometry (in Bohr), charge = 1, multiplicity = 1:

       Center              X                  Y                   Z               Mass
    ------------   -----------------  -----------------  -----------------  -----------------
         NA           0.000000000000     0.000000000000     0.000000000000    22.989769282000
         O            4.019974702438     1.811722010451    -0.572947953704    15.994914619570
         H            3.564295593176     3.507571684068    -0.086483316132     1.007825032230
         H            5.827550653770     1.727411879364    -0.446253155348     1.007825032230
         O           -0.549008903146     4.359634076228     0.026342782189    15.994914619570
         H           -1.229784629569     5.845703362931     0.812387592156     1.007825032230
         H           -0.833866219298     4.568407239116    -1.761636709222     1.007825032230
         O           -2.345165239502    -3.572597160045     0.246114151127    15.994914619570
         H           -2.391053459007    -4.078531645887     1.989686968316     1.007825032230
         H           -3.323323386836    -4.814736819022    -0.641323914101     1.007825032230
         O            0.066367181526    -0.916872439359     4.300774776598    15.994914619570
         H           -0.885708965824    -0.036466045043     5.570408060974     1.007825032230
         H            1.531677826741    -1.533040319278     5.177244871394     1.007825032230
         O            0.206688794972     1.340736119573    -4.202509018074    15.994914619570
         H           -0.393597826589     1.079379437517    -5.893696737339     1.007825032230
         H            2.005794993810     1.586529017259    -4.345319400827     1.007825032230

  Charge       = 1
  Multiplicity = 1
  Basis Set: AUG-CC-PVTZ
    Blend: AUG-CC-PVTZ
  Basis Set: (AUG-CC-PVTZ AUX)
    Blend: AUG-CC-PVTZ-JKFIT + DEF2-UNIVERSAL-JKFIT

    Orbital Energies [Eh]
    ---------------------

    Doubly Occupied:

       1A    -40.542141     2A    -20.726180     3A    -20.718920
       4A    -20.717813     5A    -20.717801     6A    -20.709212
       7A     -2.866022     8A     -1.593111     9A     -1.590850
      10A     -1.590791    11A     -1.515836    12A     -1.513189
      13A     -1.503104    14A     -1.502613    15A     -1.496447
      16A     -0.889012    17A     -0.877204    18A     -0.870101
      19A     -0.869720    20A     -0.865317    21A     -0.762769
      22A     -0.751248    23A     -0.747219    24A     -0.745255
      25A     -0.740720    26A     -0.677284    27A     -0.669793
      28A     -0.668537    29A     -0.666842    30A     -0.658108

  @DF-RHF Final Energy:  -542.11094371616502

   => Energetics <=

    Nuclear Repulsion Energy =            314.5414582990638337
    One-Electron Energy =               -1371.7784687046689669
    Two-Electron Energy =                 515.1260666894401083
    Total Energy =                       -542.1109437161650249
 Dipole X            :        -14.6214310           15.0628369            0.4414058
 Dipole Y            :        -31.2687765           32.0332086            0.7644322
 Dipole Z            :          1.5626394           -1.2427878            0.3198516
 Magnitude           :                                                    0.9388827
  Basis Set: (AUG-CC-PVTZ AUX)
    Blend: AUG-CC-PVTZ-RI + DEF2-QZVPP-RI
	 Reference Energy          =    -542.1109437161650249 [Eh]
	 Singles Energy            =      -0.0000000000000000 [Eh]
	 Same-Spin Energy          =      -0.3541318418464080 [Eh]
	 Opposite-Spin Energy      =      -1.1028968418812946 [Eh]
	 Correlation Energy        =      -1.4570286837277027 [Eh]
	 Total Energy              =    -543.5679723998927102 [Eh]

	 ================> DF-SCS-MP2 Energies <==================
	-----------------------------------------------------------
	 SCS Same-Spin Scale       =       0.3333333333333333 [-]
	 SCS Opposite-Spin Scale   =       1.2000000000000000 [-]
	 SCS Same-Spin Energy      =      -0.1180439472821360 [Eh]
	 SCS Opposite-Spin Energy  =      -1.3234762102575535 [Eh]
	 SCS Correlation Energy    =      -1.4415201575396894 [Eh]
	 SCS Total Energy          =    -543.5524638737047098 [Eh]
	-----------------------------------------------------------

*** Psi4 exiting successfully. Buy a developer a beer!
