                               Psi4 1.9.1 release

  ==> Input File <==

--------------------------------------------------------------------------
MEMORY 60 GB

molecule dimer {
1 1
Na         0.000000     0.000000     0.000000
Gh(O)      2.127279     0.958722    -0.303191
Gh(H)      1.886144     1.856127    -0.045765
Gh(H)      3.083807     0.914107    -0.236147
Gh(O)     -0.290523     2.307019     0.013940
Gh(H)     -0.650774     3.093413     0.429897
Gh(H)     -0.441263     2.417497    -0.932218
Gh(O)     -1.241008    -1.890537     0.130238
Gh(H)     -1.265291    -2.158266     1.052897
Gh(H)     -1.758627    -2.547849    -0.339374
Gh(O)      0.035120    -0.485188     2.275872
Gh(H)     -0.468697    -0.019297     2.947733
Gh(H)      0.810529    -0.811250     2.739680
Gh(O)      0.109375     0.709487    -2.223872
Gh(H)     -0.208283     0.571183    -3.118810
Gh(H)      1.061421     0.839555    -2.299444

units ang
no_reorient
no_com
symmetry c1
}

set {
basis        aug-cc-pVTZ
scf_type     df
}

energy("mp2")
--------------------------------------------------------------------------

    Molecular point group: c1

    Geometry (in Angstrom), charge = 1, multiplicity = 1:

       Center              X                  Y                   Z               Mass
    ------------   -----------------  -----------------  -----------------  -----------------
         NA           0.000000000000     0.000000000000     0.000000000000    22.989769282000
      Gh(O)           2.127279000000     0.958722000000    -0.303191000000    15.994914619570
      Gh(H)           1.886144000000     1.856127000000    -0.045765000000     1.007825032230
      Gh(H)           3.083807000000     0.914107000000    -0.236147000000     1.007825032230
      Gh(O)          -0.290523000000     2.307019000000     0.013940000000    15.994914619570
      Gh(H)          -0.650774000000     3.093413000000     0.429897000000     1.007825032230
      Gh(H)          -0.441263000000     2.417497000000    -0.932218000000     1.007825032230
      Gh(O)          -1.241008000000    -1.890537000000     0.130238000000    15.994914619570
      Gh(H)          -1.265291000000    -2.158266000000     1.052897000000     1.007825032230
      Gh(H)          -1.758627000000    -2.547849000000    -0.339374000000     1.007825032230
      Gh(O)           0.035120000000    -0.485188000000     2.275872000000    15.994914619570
      Gh(H)          -0.468697000000    -0.019297000000     2.947733000000     1.007825032230
      Gh(H)           0.810529000000    -0.811250000000     2.739680000000     1.007825032230
      Gh(O)           0.109375000000     0.709487000000    -2.223872000000    15.994914619570
      Gh(H)          -0.208283000000     0.571183000000    -3.118810000000     1.007825032230
      Gh(H)           1.061421000000     0.839555000000    -2.299444000000     1.007825032230

  Charge       = 1
  Multiplicity = 1
  Basis Set: AUG-CC-PVTZ
    Blend: AUG-CC-PVTZ
  Basis Set: (AUG-CC-PVTZ AUX)
    Blend: AUG-CC-PVTZ-JKFIT + DEF2-UNIVERSAL-JKFIT

    Orbital Energies [Eh]
    ---------------------

    Doubly Occupied:

       1A    -40.760347     2A     -3.073766     3A     -1.797131
       4A     -1.797125     5A     -1.797076

  @DF-RHF Final Energy:  -161.67609236944540

   => Energetics <=

    Nuclear Repulsion Energy =              0.0000000000000000
    One-Electron Energy =                -224.9012955483068197
    Two-Electron Energy =                  63.2252031788613991
    Total Energy =                       -161.6760923694454277
 Dipole X            :          0.0000191            0.0000000            0.0000191
 Dipole Y            :          0.0000033            0.0000000            0.0000033
 Dipole Z            :          0.0000205            0.0000000            0.0000205
 Magnitude           :                                                    0.0000282
  Basis Set: (AUG-CC-PVTZ AUX)
    Blend: AUG-CC-PVTZ-RI + DEF2-QZVPP-RI
	 Reference Energy          =    -161.6760923694453993 [Eh]
	 Singles Energy            =      -0.0000000000000000 [Eh]
	 Same-Spin Energy          =      -0.0076305837091118 [Eh]
	 Opposite-Spin Energy      =      -0.0227750241028689 [Eh]
	 Correlation Energy        =      -0.0304056078119807 [Eh]
	 Total Energy              =    -161.7064979772573849 [Eh]

	 ================> DF-SCS-MP2 Energies <==================
	-----------------------------------------------------------
	 SCS Same-Spin Scale       =       0.3333333333333333 [-]
	 SCS Opposite-Spin Scale   =       1.2000000000000000 [-]
	 SCS Same-Spin Energy      =      -0.0025435279030373 [Eh]
	 SCS Opposite-Spin Energy  =      -0.0273300289234427 [Eh]
	 SCS Correlation Energy    =      -0.0298735568264800 [Eh]
	 SCS Total Energy          =    -161.7059659262718867 [Eh]
	-----------------------------------------------------------

*** Psi4 exiting successfully. Buy a developer a beer!
