                               Psi4 1.9.1 release

  ==> Input File <==

--------------------------------------------------------------------------
MEMORY 60 GB

molecule dimer {
0 1
Gh(Na)     0.000000     0.000000     0.000000
Gh(O)      2.127279     0.958722    -0.303191
Gh(H)      1.886144     1.856127    -0.045765
Gh(H)      3.083807     0.914107    -0.236147
Gh(O)     -0.290523     2.307019     0.013940
Gh(H)     -0.650774     3.093413     0.429897
Gh(H)     -0.441263     2.417497    -0.932218
O         -1.241008    -1.890537     0.130238
H         -1.265291    -2.158266     1.052897
H         -1.758627    -2.547849    -0.339374
Gh(O)      0.035120    -0.485188     2.275872
Gh(H)     -0.468697    -0.019297     2.947733
Gh(H)      0.810529    -0.811250     2.739680
Gh(O)      0.109375     0.709487    -2.223872
Gh(H)     -0.208283     0.571183    -3.118810
Gh(H)      1.061421     0.839555    -2.299444

units ang
no_reorient
no_com
symmetry c1
}

set {
basis        aug-cc-pVTZ
scf_type     df
}

energy("mp2")
--------------------------------------------------------------------------

    Molecular point group: c1

    Geometry (in Angstrom), charge = 0, multiplicity = 1:

       Center              X                  Y                   Z               Mass
    ------------   -----------------  -----------------  -----------------  -----------------
      Gh(NA)          0.000000000000     0.000000000000     0.000000000000    22.989769282000
      Gh(O)           2.127279000000     0.958722000000    -0.303191000000    15.994914619570
      Gh(H)           1.886144000000     1.856127000000    -0.045765000000     1.007825032230
      Gh(H)           3.083807000000     0.914107000000    -0.236147000000     1.007825032230
      Gh(O)          -0.290523000000     2.307019000000     0.013940000000    15.994914619570
      Gh(H)          -0.650774000000     3.093413000000     0.429897000000     1.007825032230
      Gh(H)          -0.441263000000     2.417497000000    -0.932218000000     1.007825032230
         O           -1.241008000000    -1.890537000000     0.130238000000    15.994914619570
         H           -1.265291000000    -2.158266000000     1.052897000000     1.007825032230
         H           -1.758627000000    -2.547849000000    -0.339374000000     1.007825032230
      Gh(O)           0.035120000000    -0.485188000000     2.275872000000    15.994914619570
      Gh(H)          -0.468697000000    -0.019297000000     2.947733000000     1.007825032230
      Gh(H)           0.810529000000    -0.811250000000     2.739680000000     1.007825032230
      Gh(O)           0.109375000000     0.709487000000    -2.223872000000    15.994914619570
      Gh(H)          -0.208283000000     0.571183000000    -3.118810000000     1.007825032230
      Gh(H)           1.061421000000     0.839555000000    -2.299444000000     1.007825032230

  Charge       = 0
  Multiplicity = 1
  Basis Set: AUG-CC-PVTZ
    Blend: AUG-CC-PVTZ
  Basis Set: (AUG-CC-PVTZ AUX)
    Blend: AUG-CC-PVTZ-JKFIT + DEF2-UNIVERSAL-JKFIT

    Orbital Energies [Eh]
    ---------------------

    Doubly Occupied:

       1A    -20.567171     2A     -1.351320     3A     -0.717795
       4A     -0.582578     5A     -0.509784

  @DF-RHF Final Energy:   -76.06053478323729

   => Energetics <=

    Nuclear Repulsion Energy =              9.1639057362090970
    One-Electron Energy =                -122.9915821959345550
    Two-Electron Energy =                  37.7671416764881798
    Total Energy =                        -76.0605347832372729
 Dipole X            :         24.1149032          -24.4756988           -0.3607955
 Dipole Y            :         36.8582942          -37.4740457           -0.6157516
 Dipole Z            :         -3.0159782            3.3172763            0.3012981
 Magnitude           :                                                    0.7746638
  Basis Set: (AUG-CC-PVTZ AUX)
    Blend: AUG-CC-PVTZ-RI + DEF2-QZVPP-RI
	 Reference Energy          =     -76.0605347832372871 [Eh]
	 Singles Energy            =      -0.0000000000000000 [Eh]
	 Same-Spin Energy          =      -0.0684428151749235 [Eh]
	 Opposite-Spin Energy      =      -0.2159761856673562 [Eh]
	 Correlation Energy        =      -0.2844190008422797 [Eh]
	 Total Energy              =     -76.3449537840795642 [Eh]

	 ================> DF-SCS-MP2 Energies <==================
	-----------------------------------------------------------
	 SCS Same-Spin Scale       =       0.3333333333333333 [-]
	 SCS Opposite-Spin Scale   =       1.2000000000000000 [-]
	 SCS Same-Spin Energy      =      -0.0228142717249745 [Eh]
	 SCS Opposite-Spin Energy  =      -0.2591714228008274 [Eh]
	 SCS Correlation Energy    =      -0.2819856945258019 [Eh]
	 SCS Total Energy          =     -76.3425204777630881 [Eh]
	-----------------------------------------------------------

*** Psi4 exiting successfully. Buy a developer a beer!
