                               Psi4 1.9.1 release

  ==> Input File <==

--------------------------------------------------------------------------
MEMORY 60 GB

molecule dimer {
1 1
Na         0.000000     0.000000     0.000000
O          2.127279     0.958722    -0.303191
H          1.886144     1.856127    -0.045765
H          3.083807     0.914107    -0.236147
O         -0.290523     2.307019     0.013940
H         -0.650774     3.093413     0.429897
H         -0.441263     2.417497    -0.932218
O         -1.241008    -1.890537     0.130238
H         -1.265291    -2.158266     1.052897
H         -1.758627    -2.547849    -0.339374
O          0.035120    -0.485188     2.275872
H         -0.468697    -0.019297     2.947733
H          0.810529    -0.811250     2.739680
O          0.109375     0.709487    -2.223872
H         -0.208283     0.571183    -3.118810
H          1.061421     0.839555    -2.299444

units ang
no_reorient
no_com
symmetry c1
}

set {
basis        aug-cc-pVTZ
scf_type     df
}

energy("mp2")
--------------------------------------------------------------------------

    Molecular point group: c1

    Geometry (in Angstrom), charge = 1, multiplicity = 1:

       Center              X                  Y                   Z               Mass
    ------------   -----------------  -----------------  -----------------  -----------------
         NA           0.000000000000     0.000000000000     0.000000000000    22.989769282000
         O            2.127279000000     0.958722000000    -0.303191000000    15.994914619570
         H            1.886144000000     1.856127000000    -0.045765000000     1.007825032230
         H            3.083807000000     0.914107000000    -0.236147000000     1.007825032230
         O           -0.290523000000     2.307019000000     0.013940000000    15.994914619570
         H           -0.650774000000     3.093413000000     0.429897000000     1.007825032230
         H           -0.441263000000     2.417497000000    -0.932218000000     1.007825032230
         O           -1.241008000000    -1.890537000000     0.130238000000    15.994914619570
         H           -1.265291000000    -2.158266000000     1.052897000000     1.007825032230
         H           -1.758627000000    -2.547849000000    -0.339374000000     1.007825032230
         O            0.035120000000    -0.485188000000     2.275872000000    15.994914619570
         H           -0.468697000000    -0.019297000000     2.947733000000     1.007825032230
         H            0.810529000000    -0.811250000000     2.739680000000     1.007825032230
         O            0.109375000000     0.709487000000    -2.223872000000    15.994914619570
         H           -0.208283000000     0.571183000000    -3.118810000000     1.007825032230
         H            1.061421000000     0.839555000000    -2.299444000000     1.007825032230

  Charge       = 1
  Multiplicity = 1
  Basis Set: AUG-CC-PVTZ
    Blend: AUG-CC-PVTZ
  Basis Set: (AUG-CC-PVTZ AUX)
    Blend: AUG-CC-PVTZ-JKFIT + DEF2-UNIVERSAL-JKFIT

    Orbital Energies [Eh]
    ---------------------

    Doubly Occupied:

       1A    -40.542141     2A    -20.726180     3A    -20.718920
       4A    -20.717813     5A    -20.717801     6A    -20.709212
       7A     -2.866022     8A     -1.593111     9A     -1.590850
      10A     -1.590791    11A     -1.515836    12A     -1.513189
      13A     -1.503104    14A     -1.502613    15A     -1.496447
      16A     -0.889012    17A     -0.877204    18A     -0.870101
      19A     -0.869720    20A     -0.865317    21A     -0.762769
      22A     -0.751248    23A     -0.747219    24A     -0.745255
      25A     -0.740720    26A     -0.677284    27A     -0.669793
      28A     -0.668537    29A     -0.666842    30A     -0.658108

  @DF-RHF Final Energy:  -542.11094371639160

   => Energetics <=

    Nuclear Repulsion Energy =            314.5414582990638337
    One-Electron Energy =               -1371.7784687046791987
    Two-Electron Energy =                 515.1260666892237623
    Total Energy =                       -542.1109437163916027
 Dipole X            :        -14.6214310           15.0628369            0.4414058
 Dipole Y            :        -31.2687765           32.0332086            0.7644322
 Dipole Z            :          1.5626394           -1.2427878            0.3198516
 Magnitude           :                                                    0.9388827
  Basis Set: (AUG-CC-PVTZ AUX)
    Blend: AUG-CC-PVTZ-RI + DEF2-QZVPP-RI
	 Reference Energy          =    -542.1109437163916027 [Eh]
	 Singles Energy            =      -0.0000000000000000 [Eh]
	 Same-Spin Energy          =      -0.3541318418423399 [Eh]
	 Opposite-Spin Energy      =      -1.1028968418704153 [Eh]
	 Correlation Energy        =      -1.4570286837127551 [Eh]
	 Total Energy              =    -543.5679724001043951 [Eh]

	 ================> DF-SCS-MP2 Energies <==================
	-----------------------------------------------------------
	 SCS Same-Spin Scale       =       0.3333333333333333 [-]
	 SCS Opposite-Spin Scale   =       1.2000000000000000 [-]
	 SCS Same-Spin Energy      =      -0.1180439472807800 [Eh]
	 SCS Opposite-Spin Energy  =      -1.3234762102444984 [Eh]
	 SCS Correlation Energy    =      -1.4415201575252783 [Eh]
	 SCS Total Energy          =    -543.5524638739168495 [Eh]
	-----------------------------------------------------------

*** Psi4 exiting successfully. Buy a developer a beer!
