                               Psi4 1.9.1 release

  ==> Input File <==

--------------------------------------------------------------------------
MEMORY 60 GB

molecule dimer {
1 1
Na         0.000000     0.000000     0.000000
O          2.269193    -0.174708     0.671635
H          3.155501     0.191999     0.648503
H          2.363042    -1.114159     0.472606
O         -0.566657     2.289813    -0.248404
H         -0.531767     3.180504     0.106617
H         -0.308338     2.360915    -1.175353
O         -2.268669     0.171730    -0.673243
H         -3.154314    -0.196721    -0.651851
H         -2.364629     1.110699    -0.472980
O          0.564033    -2.290622     0.250850
H          0.526483    -3.181558    -0.103311
H          0.306049    -2.360296     1.177983
O          0.090363    -0.529424     2.310206
H         -0.312898    -0.460726     3.178089
H          1.022065    -0.308908     2.429993
O         -0.088614     0.533880    -2.309909
H         -1.019672     0.311631    -2.431403
H          0.316248     0.466368    -3.177171

units ang
no_reorient
no_com
symmetry c1
}

set {
basis        aug-cc-pVTZ
scf_type     df
}

energy("mp2")
--------------------------------------------------------------------------

    Molecular point group: c1

    Geometry (in Angstrom), charge = 1, multiplicity = 1:

       Center              X                  Y                   Z               Mass
    ------------   -----------------  -----------------  -----------------  -----------------
         NA           0.000000000000     0.000000000000     0.000000000000    22.989769282000
         O            2.269193000000    -0.174708000000     0.671635000000    15.994914619570
         H            3.155501000000     0.191999000000     0.648503000000     1.007825032230
         H            2.363042000000    -1.114159000000     0.472606000000     1.007825032230
         O           -0.566657000000     2.289813000000    -0.248404000000    15.994914619570
         H           -0.531767000000     3.180504000000     0.106617000000     1.007825032230
         H           -0.308338000000     2.360915000000    -1.175353000000     1.007825032230
         O           -2.268669000000     0.171730000000    -0.673243000000    15.994914619570
         H           -3.154314000000    -0.196721000000    -0.651851000000     1.007825032230
         H           -2.364629000000     1.110699000000    -0.472980000000     1.007825032230
         O            0.564033000000    -2.290622000000     0.250850000000    15.994914619570
         H            0.526483000000    -3.181558000000    -0.103311000000     1.007825032230
         H            0.306049000000    -2.360296000000     1.177983000000     1.007825032230
         O            0.090363000000    -0.529424000000     2.310206000000    15.994914619570
         H           -0.312898000000    -0.460726000000     3.178089000000     1.007825032230
         H            1.022065000000    -0.308908000000     2.429993000000     1.007825032230
         O           -0.088614000000     0.533880000000    -2.309909000000    15.994914619570
         H           -1.019672000000     0.311631000000    -2.431403000000     1.007825032230
         H            0.316248000000     0.466368000000    -3.177171000000     1.007825032230

  Charge       = 1
  Multiplicity = 1
  Basis Set: AUG-CC-PVTZ
    Blend: AUG-CC-PVTZ
  Basis Set: (AUG-CC-PVTZ AUX)
    Blend: AUG-CC-PVTZ-JKFIT + DEF2-UNIVERSAL-JKFIT

    Orbital Energies [Eh]
    ---------------------

    Doubly Occupied:

       1A    -40.532107     2A    -20.708334     3A    -20.708261
       4A    -20.708256     5A    -20.708246     6A    -20.708239
       7A    -20.708176     8A     -2.854973     9A     -1.582375
      10A     -1.579509    11A     -1.579505    12A     -1.507600
      13A     -1.504077    14A     -1.493058    15A     -1.493002
      16A     -1.492251    17A     -1.492195    18A     -0.883087
      19A     -0.882106    20A     -0.860445    21A     -0.860390
      22A     -0.860199    23A     -0.860142    24A     -0.744681
      25A     -0.736330    26A     -0.736290    27A     -0.735480
      28A     -0.735442    29A     -0.735371    30A     -0.661565
      31A     -0.659853    32A     -0.659788    33A     -0.658024
      34A     -0.657236    35A     -0.657180

  @DF-RHF Final Energy:  -618.18398699570537

   => Energetics <=

    Nuclear Repulsion Energy =            419.7505496977213966
    One-Electron Energy =               -1685.9815137806206167
    Two-Electron Energy =                 648.0469770871937953
    Total Energy =                       -618.1839869957053679
 Dipole X            :          0.0085670           -0.0095204           -0.0009534
 Dipole Y            :         -0.0109084            0.0096376           -0.0012708
 Dipole Z            :         -0.0210375            0.0204128           -0.0006247
 Magnitude           :                                                    0.0017071
  Basis Set: (AUG-CC-PVTZ AUX)
    Blend: AUG-CC-PVTZ-RI + DEF2-QZVPP-RI
	 Reference Energy          =    -618.1839869957053679 [Eh]
	 Singles Energy            =      -0.0000000000000000 [Eh]
	 Same-Spin Energy          =      -0.4282618666650794 [Eh]
	 Opposite-Spin Energy      =      -1.3277745227979714 [Eh]
	 Correlation Energy        =      -1.7560363894630506 [Eh]
	 Total Energy              =    -619.9400233851683879 [Eh]

	 ================> DF-SCS-MP2 Energies <==================
	-----------------------------------------------------------
	 SCS Same-Spin Scale       =       0.3333333333333333 [-]
	 SCS Opposite-Spin Scale   =       1.2000000000000000 [-]
	 SCS Same-Spin Energy      =      -0.1427539555550265 [Eh]
	 SCS Opposite-Spin Energy  =      -1.5933294273575656 [Eh]
	 SCS Correlation Energy    =      -1.7360833829125921 [Eh]
	 SCS Total Energy          =    -619.9200703786179929 [Eh]
	-----------------------------------------------------------

*** Psi4 exiting successfully. Buy a developer a beer!
