                               Psi4 1.9.1 release

  ==> Input File <==

--------------------------------------------------------------------------
MEMORY 60 GB

molecule dimer {
0 1
Gh(Na)     0.000000     0.000000     0.000000
Gh(O)      2.269193    -0.174708     0.671635
Gh(H)      3.155501     0.191999     0.648503
Gh(H)      2.363042    -1.114159     0.472606
Gh(O)     -0.566657     2.289813    -0.248404
Gh(H)     -0.531767     3.180504     0.106617
Gh(H)     -0.308338     2.360915    -1.175353
Gh(O)     -2.268669     0.171730    -0.673243
Gh(H)     -3.154314    -0.196721    -0.651851
Gh(H)     -2.364629     1.110699    -0.472980
O          0.564033    -2.290622     0.250850
H          0.526483    -3.181558    -0.103311
H          0.306049    -2.360296     1.177983
Gh(O)      0.090363    -0.529424     2.310206
Gh(H)     -0.312898    -0.460726     3.178089
Gh(H)      1.022065    -0.308908     2.429993
Gh(O)     -0.088614     0.533880    -2.309909
Gh(H)     -1.019672     0.311631    -2.431403
Gh(H)      0.316248     0.466368    -3.177171

units ang
no_reorient
no_com
symmetry c1
}

set {
basis        aug-cc-pVTZ
scf_type     df
}

energy("mp2")
--------------------------------------------------------------------------

    Molecular point group: c1

    Geometry (in Angstrom), charge = 0, multiplicity = 1:

       Center              X                  Y                   Z               Mass
    ------------   -----------------  -----------------  -----------------  -----------------
      Gh(NA)          0.000000000000     0.000000000000     0.000000000000    22.989769282000
      Gh(O)           2.269193000000    -0.174708000000     0.671635000000    15.994914619570
      Gh(H)           3.155501000000     0.191999000000     0.648503000000     1.007825032230
      Gh(H)           2.363042000000    -1.114159000000     0.472606000000     1.007825032230
      Gh(O)          -0.566657000000     2.289813000000    -0.248404000000    15.994914619570
      Gh(H)          -0.531767000000     3.180504000000     0.106617000000     1.007825032230
      Gh(H)          -0.308338000000     2.360915000000    -1.175353000000     1.007825032230
      Gh(O)          -2.268669000000     0.171730000000    -0.673243000000    15.994914619570
      Gh(H)          -3.154314000000    -0.196721000000    -0.651851000000     1.007825032230
      Gh(H)          -2.364629000000     1.110699000000    -0.472980000000     1.007825032230
         O            0.564033000000    -2.290622000000     0.250850000000    15.994914619570
         H            0.526483000000    -3.181558000000    -0.103311000000     1.007825032230
         H            0.306049000000    -2.360296000000     1.177983000000     1.007825032230
      Gh(O)           0.090363000000    -0.529424000000     2.310206000000    15.994914619570
      Gh(H)          -0.312898000000    -0.460726000000     3.178089000000     1.007825032230
      Gh(H)           1.022065000000    -0.308908000000     2.429993000000     1.007825032230
      Gh(O)          -0.088614000000     0.533880000000    -2.309909000000    15.994914619570
      Gh(H)          -1.019672000000     0.311631000000    -2.431403000000     1.007825032230
      Gh(H)           0.316248000000     0.466368000000    -3.177171000000     1.007825032230

  Charge       = 0
  Multiplicity = 1
  Basis Set: AUG-CC-PVTZ
    Blend: AUG-CC-PVTZ
  Basis Set: (AUG-CC-PVTZ AUX)
    Blend: AUG-CC-PVTZ-JKFIT + DEF2-UNIVERSAL-JKFIT

    Orbital Energies [Eh]
    ---------------------

    Doubly Occupied:

       1A    -20.567084     2A     -1.349782     3A     -0.717992
       4A     -0.580795     5A     -0.509420

  @DF-RHF Final Energy:   -76.06043440210996

   => Energetics <=

    Nuclear Repulsion Energy =              9.1438295976752588
    One-Electron Energy =                -122.9583800173326580
    Two-Electron Energy =                  37.7541160175474317
    Total Energy =                        -76.0604344021099621
 Dipole X            :        -10.2967489           10.1002006           -0.1965483
 Dipole Y            :         44.4614749          -45.1017722           -0.6402972
 Dipole Z            :         -5.4422609            5.8231381            0.3808772
 Magnitude           :                                                    0.7705059
  Basis Set: (AUG-CC-PVTZ AUX)
    Blend: AUG-CC-PVTZ-RI + DEF2-QZVPP-RI
	 Reference Energy          =     -76.0604344021099621 [Eh]
	 Singles Energy            =      -0.0000000000000000 [Eh]
	 Same-Spin Energy          =      -0.0685211752272474 [Eh]
	 Opposite-Spin Energy      =      -0.2164430518604269 [Eh]
	 Correlation Energy        =      -0.2849642270876743 [Eh]
	 Total Energy              =     -76.3453986291976321 [Eh]

	 ================> DF-SCS-MP2 Energies <==================
	-----------------------------------------------------------
	 SCS Same-Spin Scale       =       0.3333333333333333 [-]
	 SCS Opposite-Spin Scale   =       1.2000000000000000 [-]
	 SCS Same-Spin Energy      =      -0.0228403917424158 [Eh]
	 SCS Opposite-Spin Energy  =      -0.2597316622325122 [Eh]
	 SCS Correlation Energy    =      -0.2825720539749280 [Eh]
	 SCS Total Energy          =     -76.3430064560848933 [Eh]
	-----------------------------------------------------------

*** Psi4 exiting successfully. Buy a developer a beer!
