                               Psi4 1.9 release

  ==> Input File <==

--------------------------------------------------------------------------
MEMORY 60 GB

molecule dimer {
1 1
Na     0.000000     0.000000     0.000000
--
0 1
O      2.269193    -0.174708     0.671635
H      3.155501     0.191999     0.648503
H      2.363042    -1.114159     0.472606
O     -0.566657     2.289813    -0.248404
H     -0.531767     3.180504     0.106617
H     -0.308338     2.360915    -1.175353
O     -2.268669     0.171730    -0.673243
H     -3.154314    -0.196721    -0.651851
H     -2.364629     1.110699    -0.472980
O      0.564033    -2.290622     0.250850
H      0.526483    -3.181558    -0.103311
H      0.306049    -2.360296     1.177983
O      0.090363    -0.529424     2.310206
H     -0.312898    -0.460726     3.178089
H      1.022065    -0.308908     2.429993
O     -0.088614     0.533880    -2.309909
H     -1.019672     0.311631    -2.431403
H      0.316248     0.466368    -3.177171

units ang
no_reorient
no_com
symmetry c1
}

set {
basis        aug-cc-pVTZ
scf_type     df
}

energy("mp2", bsse_type="cp")
--------------------------------------------------------------------------

                               Psi4 1.9 release
    Molecular point group: c1
  Charge       = 0
  Multiplicity = 1
  Basis Set: AUG-CC-PVTZ
    Blend: AUG-CC-PVTZ
  Basis Set: (AUG-CC-PVTZ AUX)
    Blend: AUG-CC-PVTZ-JKFIT + DEF2-UNIVERSAL-JKFIT
  @DF-RHF Final Energy:  -456.35495491447466
    Total Energy =                       -456.3549549144746607
 Dipole X            :          0.0087446           -0.0095204           -0.0007758
 Dipole Y            :         -0.0110104            0.0096376           -0.0013728
 Dipole Z            :         -0.0212690            0.0204128           -0.0008562
 Magnitude           :                                                    0.0017943
  Basis Set: (AUG-CC-PVTZ AUX)
    Blend: AUG-CC-PVTZ-RI + DEF2-QZVPP-RI
	 Reference Energy          =    -456.3549549144746607 [Eh]
	 Singles Energy            =      -0.0000000000000000 [Eh]
	 Same-Spin Energy          =      -0.4204489910482920 [Eh]
	 Opposite-Spin Energy      =      -1.3081811997444033 [Eh]
	 Correlation Energy        =      -1.7286301907926953 [Eh]
	 Total Energy              =    -458.0835851052673320 [Eh]
	 SCS Total Energy          =    -458.0649220178507335 [Eh]
                               Psi4 1.9 release
    Molecular point group: c1
  Multiplicity = 1
  Basis Set: AUG-CC-PVTZ
    Blend: AUG-CC-PVTZ
  Basis Set: (AUG-CC-PVTZ AUX)
    Blend: AUG-CC-PVTZ-JKFIT + DEF2-UNIVERSAL-JKFIT
  @DF-RHF Final Energy:  -161.67609800827793
    Total Energy =                       -161.6760980082779326
  Basis Set: (AUG-CC-PVTZ AUX)
	 Singles Energy            =      -0.0000000000000000 [Eh]
	 Same-Spin Energy          =      -0.0094055725674518 [Eh]
	 Opposite-Spin Energy      =      -0.0272403348167774 [Eh]
	 Correlation Energy        =      -0.0366459073842292 [Eh]
	 Total Energy              =    -161.7127439156621733 [Eh]
	 SCS Total Energy          =    -161.7119216009138825 [Eh]
                               Psi4 1.9 release
    Molecular point group: c1

    Geometry (in Bohr), charge = 1, multiplicity = 1:

       Center              X                  Y                   Z               Mass
    ------------   -----------------  -----------------  -----------------  -----------------
         NA           0.000000000000     0.000000000000     0.000000000000    22.989769282000
         O            4.288153295806    -0.330150271926     1.269206206272    15.994914619570
         H            5.963032678608     0.362825526362     1.225493061538     1.007825032230
         H            4.465502202954    -2.105455370214     0.893095905248     1.007825032230
         O           -1.070826537074     4.327119448513    -0.469415528468    15.994914619570
         H           -1.004893992556     6.010281500923     0.201476930318     1.007825032230
         H           -0.582674374071     4.461482755485    -2.221095270735     1.007825032230
         O           -4.287163079316     0.324522667525    -1.272244885882    15.994914619570
         H           -5.960789573697    -0.371748813126    -1.231819864606     1.007825032230
         H           -4.468501198315     2.098916917820    -0.893802662819     1.007825032230
         O            1.065867895720    -4.328648236948     0.474037798571    15.994914619570
         H            0.994908679709    -6.012273272259    -0.195229495747     1.007825032230
         H            0.578348790970    -4.460313015014     2.226065250445     1.007825032230
         O            0.170761321875    -1.000466364244     4.365656633389    15.994914619570
         H           -0.591291525204    -0.870645958878     6.005717812330     1.007825032230
         H            1.931422932416    -0.583751517963     4.592021256780     1.007825032230
         O           -0.167456190881     1.008886983859    -4.365095384730    15.994914619570
         H           -1.926900817798     0.588897242203    -4.594685770617     1.007825032230
         H            0.597622107724     0.881307793678    -6.003983043747     1.007825032230

  Charge       = 1
  Multiplicity = 1
  Basis Set: AUG-CC-PVTZ
    Blend: AUG-CC-PVTZ
  Basis Set: (AUG-CC-PVTZ AUX)
    Blend: AUG-CC-PVTZ-JKFIT + DEF2-UNIVERSAL-JKFIT

    Orbital Energies [Eh]
    ---------------------

    Doubly Occupied:

       1A    -40.532107     2A    -20.708334     3A    -20.708261
       4A    -20.708256     5A    -20.708246     6A    -20.708239
       7A    -20.708176     8A     -2.854973     9A     -1.582375
      10A     -1.579509    11A     -1.579505    12A     -1.507600
      13A     -1.504077    14A     -1.493058    15A     -1.493002
      16A     -1.492251    17A     -1.492195    18A     -0.883087
      19A     -0.882106    20A     -0.860445    21A     -0.860390
      22A     -0.860199    23A     -0.860142    24A     -0.744681
      25A     -0.736330    26A     -0.736290    27A     -0.735480
      28A     -0.735442    29A     -0.735371    30A     -0.661565
      31A     -0.659853    32A     -0.659788    33A     -0.658024
      34A     -0.657236    35A     -0.657180

  @DF-RHF Final Energy:  -618.18398699537181

   => Energetics <=

    Nuclear Repulsion Energy =            419.7505496977213966
    One-Electron Energy =               -1685.9815137804425831
    Two-Electron Energy =                 648.0469770873493189
    Total Energy =                       -618.1839869953718107
 Dipole X            :          0.0085670           -0.0095204           -0.0009534
 Dipole Y            :         -0.0109084            0.0096376           -0.0012708
 Dipole Z            :         -0.0210375            0.0204128           -0.0006247
 Magnitude           :                                                    0.0017071
  Basis Set: (AUG-CC-PVTZ AUX)
    Blend: AUG-CC-PVTZ-RI + DEF2-QZVPP-RI
	 Reference Energy          =    -618.1839869953718107 [Eh]
	 Singles Energy            =      -0.0000000000000000 [Eh]
	 Same-Spin Energy          =      -0.4282618666745479 [Eh]
	 Opposite-Spin Energy      =      -1.3277745228248810 [Eh]
	 Correlation Energy        =      -1.7560363894994289 [Eh]
	 Total Energy              =    -619.9400233848712105 [Eh]

	 ================> DF-SCS-MP2 Energies <==================
	-----------------------------------------------------------
	 SCS Same-Spin Scale       =       0.3333333333333333 [-]
	 SCS Opposite-Spin Scale   =       1.2000000000000000 [-]
	 SCS Same-Spin Energy      =      -0.1427539555581826 [Eh]
	 SCS Opposite-Spin Energy  =      -1.5933294273898571 [Eh]
	 SCS Correlation Energy    =      -1.7360833829480398 [Eh]
	 SCS Total Energy          =    -619.9200703783199060 [Eh]
	-----------------------------------------------------------

*** Psi4 exiting successfully. Buy a developer a beer!
