                               Psi4 1.9.1 release

  ==> Input File <==

--------------------------------------------------------------------------
MEMORY 60 GB

molecule dimer {
1 1
Na         0.000000     0.000000     0.000000
Gh(O)      2.269193    -0.174708     0.671635
Gh(H)      3.155501     0.191999     0.648503
Gh(H)      2.363042    -1.114159     0.472606
Gh(O)     -0.566657     2.289813    -0.248404
Gh(H)     -0.531767     3.180504     0.106617
Gh(H)     -0.308338     2.360915    -1.175353
Gh(O)     -2.268669     0.171730    -0.673243
Gh(H)     -3.154314    -0.196721    -0.651851
Gh(H)     -2.364629     1.110699    -0.472980
Gh(O)      0.564033    -2.290622     0.250850
Gh(H)      0.526483    -3.181558    -0.103311
Gh(H)      0.306049    -2.360296     1.177983
Gh(O)      0.090363    -0.529424     2.310206
Gh(H)     -0.312898    -0.460726     3.178089
Gh(H)      1.022065    -0.308908     2.429993
Gh(O)     -0.088614     0.533880    -2.309909
Gh(H)     -1.019672     0.311631    -2.431403
Gh(H)      0.316248     0.466368    -3.177171

units ang
no_reorient
no_com
symmetry c1
}

set {
basis        aug-cc-pVTZ
scf_type     df
}

energy("mp2")
--------------------------------------------------------------------------

    Molecular point group: c1

    Geometry (in Angstrom), charge = 1, multiplicity = 1:

       Center              X                  Y                   Z               Mass
    ------------   -----------------  -----------------  -----------------  -----------------
         NA           0.000000000000     0.000000000000     0.000000000000    22.989769282000
      Gh(O)           2.269193000000    -0.174708000000     0.671635000000    15.994914619570
      Gh(H)           3.155501000000     0.191999000000     0.648503000000     1.007825032230
      Gh(H)           2.363042000000    -1.114159000000     0.472606000000     1.007825032230
      Gh(O)          -0.566657000000     2.289813000000    -0.248404000000    15.994914619570
      Gh(H)          -0.531767000000     3.180504000000     0.106617000000     1.007825032230
      Gh(H)          -0.308338000000     2.360915000000    -1.175353000000     1.007825032230
      Gh(O)          -2.268669000000     0.171730000000    -0.673243000000    15.994914619570
      Gh(H)          -3.154314000000    -0.196721000000    -0.651851000000     1.007825032230
      Gh(H)          -2.364629000000     1.110699000000    -0.472980000000     1.007825032230
      Gh(O)           0.564033000000    -2.290622000000     0.250850000000    15.994914619570
      Gh(H)           0.526483000000    -3.181558000000    -0.103311000000     1.007825032230
      Gh(H)           0.306049000000    -2.360296000000     1.177983000000     1.007825032230
      Gh(O)           0.090363000000    -0.529424000000     2.310206000000    15.994914619570
      Gh(H)          -0.312898000000    -0.460726000000     3.178089000000     1.007825032230
      Gh(H)           1.022065000000    -0.308908000000     2.429993000000     1.007825032230
      Gh(O)          -0.088614000000     0.533880000000    -2.309909000000    15.994914619570
      Gh(H)          -1.019672000000     0.311631000000    -2.431403000000     1.007825032230
      Gh(H)           0.316248000000     0.466368000000    -3.177171000000     1.007825032230

  Charge       = 1
  Multiplicity = 1
  Basis Set: AUG-CC-PVTZ
    Blend: AUG-CC-PVTZ
  Basis Set: (AUG-CC-PVTZ AUX)
    Blend: AUG-CC-PVTZ-JKFIT + DEF2-UNIVERSAL-JKFIT

    Orbital Energies [Eh]
    ---------------------

    Doubly Occupied:

       1A    -40.760211     2A     -3.073706     3A     -1.797074
       4A     -1.797074     5A     -1.797033

  @DF-RHF Final Energy:  -161.67609800832528

   => Energetics <=

    Nuclear Repulsion Energy =              0.0000000000000000
    One-Electron Energy =                -224.9019959591776399
    Two-Electron Energy =                  63.2258979508523353
    Total Energy =                       -161.6760980083253116
 Dipole X            :         -0.0000001            0.0000000           -0.0000001
 Dipole Y            :         -0.0000001            0.0000000           -0.0000001
 Dipole Z            :          0.0000003            0.0000000            0.0000003
 Magnitude           :                                                    0.0000003
  Basis Set: (AUG-CC-PVTZ AUX)
    Blend: AUG-CC-PVTZ-RI + DEF2-QZVPP-RI
	 Reference Energy          =    -161.6760980083252832 [Eh]
	 Singles Energy            =      -0.0000000000000000 [Eh]
	 Same-Spin Energy          =      -0.0094055725615085 [Eh]
	 Opposite-Spin Energy      =      -0.0272403348003523 [Eh]
	 Correlation Energy        =      -0.0366459073618608 [Eh]
	 Total Energy              =    -161.7127439156871560 [Eh]

	 ================> DF-SCS-MP2 Energies <==================
	-----------------------------------------------------------
	 SCS Same-Spin Scale       =       0.3333333333333333 [-]
	 SCS Opposite-Spin Scale   =       1.2000000000000000 [-]
	 SCS Same-Spin Energy      =      -0.0031351908538362 [Eh]
	 SCS Opposite-Spin Energy  =      -0.0326884017604227 [Eh]
	 SCS Correlation Energy    =      -0.0358235926142589 [Eh]
	 SCS Total Energy          =    -161.7119216009395473 [Eh]
	-----------------------------------------------------------

*** Psi4 exiting successfully. Buy a developer a beer!
