                               Psi4 1.9.1 release

  ==> Input File <==

--------------------------------------------------------------------------
MEMORY 60 GB

molecule dimer {
1 1
K          0.000000     0.000000     0.000000
O          2.554119    -0.000000     0.000000
H          3.147554     0.755364     0.000000
H          3.147554    -0.755364     0.000000
O         -1.277059     2.211932     0.000000
H         -2.227941     2.348180     0.000000
H         -0.919613     3.103544     0.000000
O         -1.277059    -2.211932     0.000000
H         -0.919613    -3.103544     0.000000
H         -2.227941    -2.348180     0.000000

units ang
no_reorient
no_com
symmetry c1
}

set {
basis        aug-cc-pVTZ
scf_type     df
}

energy("mp2")
--------------------------------------------------------------------------

    Molecular point group: c1

    Geometry (in Angstrom), charge = 1, multiplicity = 1:

       Center              X                  Y                   Z               Mass
    ------------   -----------------  -----------------  -----------------  -----------------
         K            0.000000000000     0.000000000000     0.000000000000    38.963706486400
         O            2.554119000000     0.000000000000     0.000000000000    15.994914619570
         H            3.147554000000     0.755364000000     0.000000000000     1.007825032230
         H            3.147554000000    -0.755364000000     0.000000000000     1.007825032230
         O           -1.277059000000     2.211932000000     0.000000000000    15.994914619570
         H           -2.227941000000     2.348180000000     0.000000000000     1.007825032230
         H           -0.919613000000     3.103544000000     0.000000000000     1.007825032230
         O           -1.277059000000    -2.211932000000     0.000000000000    15.994914619570
         H           -0.919613000000    -3.103544000000     0.000000000000     1.007825032230
         H           -2.227941000000    -2.348180000000     0.000000000000     1.007825032230

  Charge       = 1
  Multiplicity = 1
  Basis Set: AUG-CC-PVTZ
    Blend: AUG-CC-PVTZ
  Basis Set: (AUG-CC-PVTZ AUX)
    Blend: AUG-CC-PVTZ-JKFIT + DEF2-UNIVERSAL-JKFIT

    Orbital Energies [Eh]
    ---------------------

    Doubly Occupied:

       1A   -133.620117     2A    -20.728747     3A    -20.728747
       4A    -20.728747     5A    -14.578593     6A    -11.608498
       7A    -11.608309     8A    -11.608309     9A     -1.843387
      10A     -1.518386    11A     -1.518386    12A     -1.517563
      13A     -1.054690    14A     -1.054690    15A     -1.053671
      16A     -0.878417    17A     -0.878417    18A     -0.878197
      19A     -0.767150    20A     -0.757426    21A     -0.757426
      22A     -0.677503    23A     -0.677503    24A     -0.676920

  @DF-RHF Final Energy:  -827.26650539410355

   => Energetics <=

    Nuclear Repulsion Energy =            174.9545919164420980
    One-Electron Energy =               -1481.0025839001234544
    Two-Electron Energy =                 478.7814865895779235
    Total Energy =                       -827.2665053941034330
 Dipole X            :         -0.0000161            0.0000151           -0.0000010
 Dipole Y            :         -0.0000000           -0.0000000           -0.0000000
 Dipole Z            :         -0.0000000            0.0000000           -0.0000000
 Magnitude           :                                                    0.0000010
  Basis Set: (AUG-CC-PVTZ AUX)
    Blend: AUG-CC-PVTZ-RI + DEF2-QZVPP-RI
	 Reference Energy          =    -827.2665053941035467 [Eh]
	 Singles Energy            =      -0.0000000000000000 [Eh]
	 Same-Spin Energy          =      -0.2422191784765992 [Eh]
	 Opposite-Spin Energy      =      -0.7288540884623059 [Eh]
	 Correlation Energy        =      -0.9710732669389051 [Eh]
	 Total Energy              =    -828.2375786610424484 [Eh]

	 ================> DF-SCS-MP2 Energies <==================
	-----------------------------------------------------------
	 SCS Same-Spin Scale       =       0.3333333333333333 [-]
	 SCS Opposite-Spin Scale   =       1.2000000000000000 [-]
	 SCS Same-Spin Energy      =      -0.0807397261588664 [Eh]
	 SCS Opposite-Spin Energy  =      -0.8746249061547671 [Eh]
	 SCS Correlation Energy    =      -0.9553646323136334 [Eh]
	 SCS Total Energy          =    -828.2218700264171503 [Eh]
	-----------------------------------------------------------

*** Psi4 exiting successfully. Buy a developer a beer!
