                               Psi4 1.9 release

  ==> Input File <==

--------------------------------------------------------------------------
MEMORY 60 GB

molecule dimer {
1 1
K      0.000000     0.000000     0.000000
--
0 1
O      2.554119    -0.000000     0.000000
H      3.147554     0.755364     0.000000
H      3.147554    -0.755364     0.000000
O     -1.277059     2.211932     0.000000
H     -2.227941     2.348180     0.000000
H     -0.919613     3.103544     0.000000
O     -1.277059    -2.211932     0.000000
H     -0.919613    -3.103544     0.000000
H     -2.227941    -2.348180     0.000000

units ang
no_reorient
no_com
symmetry c1
}

set {
basis        aug-cc-pVTZ
scf_type     df
}

energy("mp2", bsse_type="cp")
--------------------------------------------------------------------------

                               Psi4 1.9 release
    Molecular point group: c1
  Charge       = 0
  Multiplicity = 1
  Basis Set: AUG-CC-PVTZ
    Blend: AUG-CC-PVTZ
  Basis Set: (AUG-CC-PVTZ AUX)
    Blend: AUG-CC-PVTZ-JKFIT + DEF2-UNIVERSAL-JKFIT
  @DF-RHF Final Energy:  -228.17617340111164
    Total Energy =                       -228.1761734011116403
 Dipole X            :         -0.0000162            0.0000151           -0.0000011
 Dipole Y            :         -0.0000000           -0.0000000           -0.0000000
 Dipole Z            :         -0.0000000            0.0000000           -0.0000000
 Magnitude           :                                                    0.0000011
  Basis Set: (AUG-CC-PVTZ AUX)
    Blend: AUG-CC-PVTZ-RI + DEF2-QZVPP-RI
	 Reference Energy          =    -228.1761734011116403 [Eh]
	 Singles Energy            =      -0.0000000000000000 [Eh]
	 Same-Spin Energy          =      -0.2056249189917596 [Eh]
	 Opposite-Spin Energy      =      -0.6474981878350943 [Eh]
	 Correlation Energy        =      -0.8531231068268539 [Eh]
	 Total Energy              =    -229.0292965079384828 [Eh]
	 SCS Total Energy          =    -229.0217128661776655 [Eh]
                               Psi4 1.9 release
    Molecular point group: c1
  Multiplicity = 1
  Basis Set: AUG-CC-PVTZ
    Blend: AUG-CC-PVTZ
  Basis Set: (AUG-CC-PVTZ AUX)
    Blend: AUG-CC-PVTZ-JKFIT + DEF2-UNIVERSAL-JKFIT
  @DF-RHF Final Energy:  -599.01751296622342
    Total Energy =                       -599.0175129662234212
  Basis Set: (AUG-CC-PVTZ AUX)
	 Singles Energy            =      -0.0000000000000000 [Eh]
	 Same-Spin Energy          =      -0.0340147090534919 [Eh]
	 Opposite-Spin Energy      =      -0.0821503682953961 [Eh]
	 Correlation Energy        =      -0.1161650773488880 [Eh]
	 Total Energy              =    -599.1336780435723313 [Eh]
	 SCS Total Energy          =    -599.1274316445291106 [Eh]
                               Psi4 1.9 release
    Molecular point group: c1

    Geometry (in Bohr), charge = 1, multiplicity = 1:

       Center              X                  Y                   Z               Mass
    ------------   -----------------  -----------------  -----------------  -----------------
         K            0.000000000000     0.000000000000     0.000000000000    38.963706486400
         O            4.826585401828     0.000000000000     0.000000000000    15.994914619570
         H            5.948015025089     1.427431085030     0.000000000000     1.007825032230
         H            5.948015025089    -1.427431085030     0.000000000000     1.007825032230
         O           -2.413291756051     4.179945688136     0.000000000000    15.994914619570
         H           -4.210198313679     4.437417093278     0.000000000000     1.007825032230
         H           -1.737816711411     5.864848178308     0.000000000000     1.007825032230
         O           -2.413291756051    -4.179945688136     0.000000000000    15.994914619570
         H           -1.737816711411    -5.864848178308     0.000000000000     1.007825032230
         H           -4.210198313679    -4.437417093278     0.000000000000     1.007825032230

  Charge       = 1
  Multiplicity = 1
  Basis Set: AUG-CC-PVTZ
    Blend: AUG-CC-PVTZ
  Basis Set: (AUG-CC-PVTZ AUX)
    Blend: AUG-CC-PVTZ-JKFIT + DEF2-UNIVERSAL-JKFIT

    Orbital Energies [Eh]
    ---------------------

    Doubly Occupied:

       1A   -133.620117     2A    -20.728747     3A    -20.728747
       4A    -20.728747     5A    -14.578593     6A    -11.608498
       7A    -11.608309     8A    -11.608309     9A     -1.843387
      10A     -1.518386    11A     -1.518386    12A     -1.517563
      13A     -1.054690    14A     -1.054690    15A     -1.053671
      16A     -0.878417    17A     -0.878417    18A     -0.878197
      19A     -0.767150    20A     -0.757426    21A     -0.757426
      22A     -0.677503    23A     -0.677503    24A     -0.676920

  @DF-RHF Final Energy:  -827.26650539410275

   => Energetics <=

    Nuclear Repulsion Energy =            174.9545919164420980
    One-Electron Energy =               -1481.0025838971544090
    Two-Electron Energy =                 478.7814865866096739
    Total Energy =                       -827.2665053941027509
 Dipole X            :         -0.0000161            0.0000151           -0.0000010
 Dipole Y            :         -0.0000000           -0.0000000           -0.0000000
 Dipole Z            :         -0.0000000            0.0000000           -0.0000000
 Magnitude           :                                                    0.0000010
  Basis Set: (AUG-CC-PVTZ AUX)
    Blend: AUG-CC-PVTZ-RI + DEF2-QZVPP-RI
	 Reference Energy          =    -827.2665053941027509 [Eh]
	 Singles Energy            =      -0.0000000000000000 [Eh]
	 Same-Spin Energy          =      -0.2422191785330116 [Eh]
	 Opposite-Spin Energy      =      -0.7288540885679210 [Eh]
	 Correlation Energy        =      -0.9710732671009326 [Eh]
	 Total Energy              =    -828.2375786612036563 [Eh]

	 ================> DF-SCS-MP2 Energies <==================
	-----------------------------------------------------------
	 SCS Same-Spin Scale       =       0.3333333333333333 [-]
	 SCS Opposite-Spin Scale   =       1.2000000000000000 [-]
	 SCS Same-Spin Energy      =      -0.0807397261776705 [Eh]
	 SCS Opposite-Spin Energy  =      -0.8746249062815051 [Eh]
	 SCS Correlation Energy    =      -0.9553646324591757 [Eh]
	 SCS Total Energy          =    -828.2218700265618736 [Eh]
	-----------------------------------------------------------

*** Psi4 exiting successfully. Buy a developer a beer!
