                               Psi4 1.9.1 release

  ==> Input File <==

--------------------------------------------------------------------------
MEMORY 60 GB

molecule dimer {
0 1
Gh(K)      0.000000     0.000000     0.000000
O          2.554119    -0.000000     0.000000
H          3.147554     0.755364     0.000000
H          3.147554    -0.755364     0.000000
Gh(O)     -1.277059     2.211932     0.000000
Gh(H)     -2.227941     2.348180     0.000000
Gh(H)     -0.919613     3.103544     0.000000
Gh(O)     -1.277059    -2.211932     0.000000
Gh(H)     -0.919613    -3.103544     0.000000
Gh(H)     -2.227941    -2.348180     0.000000

units ang
no_reorient
no_com
symmetry c1
}

set {
basis        aug-cc-pVTZ
scf_type     df
}

energy("mp2")
--------------------------------------------------------------------------

    Molecular point group: c1

    Geometry (in Angstrom), charge = 0, multiplicity = 1:

       Center              X                  Y                   Z               Mass
    ------------   -----------------  -----------------  -----------------  -----------------
      Gh(K)           0.000000000000     0.000000000000     0.000000000000    38.963706486400
         O            2.554119000000     0.000000000000     0.000000000000    15.994914619570
         H            3.147554000000     0.755364000000     0.000000000000     1.007825032230
         H            3.147554000000    -0.755364000000     0.000000000000     1.007825032230
      Gh(O)          -1.277059000000     2.211932000000     0.000000000000    15.994914619570
      Gh(H)          -2.227941000000     2.348180000000     0.000000000000     1.007825032230
      Gh(H)          -0.919613000000     3.103544000000     0.000000000000     1.007825032230
      Gh(O)          -1.277059000000    -2.211932000000     0.000000000000    15.994914619570
      Gh(H)          -0.919613000000    -3.103544000000     0.000000000000     1.007825032230
      Gh(H)          -2.227941000000    -2.348180000000     0.000000000000     1.007825032230

  Charge       = 0
  Multiplicity = 1
  Basis Set: AUG-CC-PVTZ
    Blend: AUG-CC-PVTZ
  Basis Set: (AUG-CC-PVTZ AUX)
    Blend: AUG-CC-PVTZ-JKFIT + DEF2-UNIVERSAL-JKFIT

    Orbital Energies [Eh]
    ---------------------

    Doubly Occupied:

       1A    -20.568109     2A     -1.352440     3A     -0.714389
       4A     -0.585900     5A     -0.510300

  @DF-RHF Final Energy:   -76.06033250453855

   => Energetics <=

    Nuclear Repulsion Energy =              9.1644506100920164
    One-Electron Energy =                -122.9872865139862483
    Two-Electron Energy =                  37.7625033993556656
    Total Energy =                        -76.0603325045385645
 Dipole X            :        -49.7224499           50.5087133            0.7862634
 Dipole Y            :         -0.0000000            0.0000000           -0.0000000
 Dipole Z            :          0.0000000            0.0000000            0.0000000
 Magnitude           :                                                    0.7862634
  Basis Set: (AUG-CC-PVTZ AUX)
    Blend: AUG-CC-PVTZ-RI + DEF2-QZVPP-RI
	 Reference Energy          =     -76.0603325045385503 [Eh]
	 Singles Energy            =      -0.0000000000000000 [Eh]
	 Same-Spin Energy          =      -0.0684407507493901 [Eh]
	 Opposite-Spin Energy      =      -0.2156196356365342 [Eh]
	 Correlation Energy        =      -0.2840603863859243 [Eh]
	 Total Energy              =     -76.3443928909244676 [Eh]

	 ================> DF-SCS-MP2 Energies <==================
	-----------------------------------------------------------
	 SCS Same-Spin Scale       =       0.3333333333333333 [-]
	 SCS Opposite-Spin Scale   =       1.2000000000000000 [-]
	 SCS Same-Spin Energy      =      -0.0228135835831300 [Eh]
	 SCS Opposite-Spin Energy  =      -0.2587435627638411 [Eh]
	 SCS Correlation Energy    =      -0.2815571463469711 [Eh]
	 SCS Total Energy          =     -76.3418896508855198 [Eh]
	-----------------------------------------------------------

*** Psi4 exiting successfully. Buy a developer a beer!
