                               Psi4 1.9.1 release

  ==> Input File <==

--------------------------------------------------------------------------
MEMORY 60 GB

molecule dimer {
1 1
K          0.000000     0.000000     0.000000
Gh(O)      2.554119    -0.000000     0.000000
Gh(H)      3.147554     0.755364     0.000000
Gh(H)      3.147554    -0.755364     0.000000
Gh(O)     -1.277059     2.211932     0.000000
Gh(H)     -2.227941     2.348180     0.000000
Gh(H)     -0.919613     3.103544     0.000000
Gh(O)     -1.277059    -2.211932     0.000000
Gh(H)     -0.919613    -3.103544     0.000000
Gh(H)     -2.227941    -2.348180     0.000000

units ang
no_reorient
no_com
symmetry c1
}

set {
basis        aug-cc-pVTZ
scf_type     df
}

energy("mp2")
--------------------------------------------------------------------------

    Molecular point group: c1

    Geometry (in Angstrom), charge = 1, multiplicity = 1:

       Center              X                  Y                   Z               Mass
    ------------   -----------------  -----------------  -----------------  -----------------
         K            0.000000000000     0.000000000000     0.000000000000    38.963706486400
      Gh(O)           2.554119000000     0.000000000000     0.000000000000    15.994914619570
      Gh(H)           3.147554000000     0.755364000000     0.000000000000     1.007825032230
      Gh(H)           3.147554000000    -0.755364000000     0.000000000000     1.007825032230
      Gh(O)          -1.277059000000     2.211932000000     0.000000000000    15.994914619570
      Gh(H)          -2.227941000000     2.348180000000     0.000000000000     1.007825032230
      Gh(H)          -0.919613000000     3.103544000000     0.000000000000     1.007825032230
      Gh(O)          -1.277059000000    -2.211932000000     0.000000000000    15.994914619570
      Gh(H)          -0.919613000000    -3.103544000000     0.000000000000     1.007825032230
      Gh(H)          -2.227941000000    -2.348180000000     0.000000000000     1.007825032230

  Charge       = 1
  Multiplicity = 1
  Basis Set: AUG-CC-PVTZ
    Blend: AUG-CC-PVTZ
  Basis Set: (AUG-CC-PVTZ AUX)
    Blend: AUG-CC-PVTZ-JKFIT + DEF2-UNIVERSAL-JKFIT

    Orbital Energies [Eh]
    ---------------------

    Doubly Occupied:

       1A   -133.753168     2A    -14.708721     3A    -11.738789
       4A    -11.738789     5A    -11.738784     6A     -1.964111
       7A     -1.170799     8A     -1.170799     9A     -1.170702

  @DF-RHF Final Energy:  -599.01751296622399

   => Energetics <=

    Nuclear Repulsion Energy =              0.0000000000000000
    One-Electron Energy =                -819.7257034490772867
    Two-Electron Energy =                 220.7081904828532686
    Total Energy =                       -599.0175129662239897
 Dipole X            :         -0.0000000            0.0000000           -0.0000000
 Dipole Y            :          0.0000000            0.0000000            0.0000000
 Dipole Z            :         -0.0000000            0.0000000           -0.0000000
 Magnitude           :                                                    0.0000000
  Basis Set: (AUG-CC-PVTZ AUX)
    Blend: AUG-CC-PVTZ-RI + DEF2-QZVPP-RI
	 Reference Energy          =    -599.0175129662239897 [Eh]
	 Singles Energy            =      -0.0000000000000000 [Eh]
	 Same-Spin Energy          =      -0.0340147090535744 [Eh]
	 Opposite-Spin Energy      =      -0.0821503682954853 [Eh]
	 Correlation Energy        =      -0.1161650773490597 [Eh]
	 Total Energy              =    -599.1336780435730134 [Eh]

	 ================> DF-SCS-MP2 Energies <==================
	-----------------------------------------------------------
	 SCS Same-Spin Scale       =       0.3333333333333333 [-]
	 SCS Opposite-Spin Scale   =       1.2000000000000000 [-]
	 SCS Same-Spin Energy      =      -0.0113382363511915 [Eh]
	 SCS Opposite-Spin Energy  =      -0.0985804419545823 [Eh]
	 SCS Correlation Energy    =      -0.1099186783057738 [Eh]
	 SCS Total Energy          =    -599.1274316445297927 [Eh]
	-----------------------------------------------------------

*** Psi4 exiting successfully. Buy a developer a beer!
