                               Psi4 1.9.1 release

  ==> Input File <==

--------------------------------------------------------------------------
MEMORY 60 GB

molecule dimer {
1 1
K          0.000000     0.000000     0.000000
O          2.086884    -0.000000    -1.490509
H          2.552025     0.755701    -1.858373
H          2.552025    -0.755701    -1.858373
O         -2.089171    -0.000000    -1.487307
H         -2.554868     0.755701    -1.854466
H         -2.554868    -0.755701    -1.854466
O          0.000353     2.090413     1.485755
H         -0.755264     2.556376     1.852755
H          0.756127     2.556380     1.852429
O          0.000353    -2.090413     1.485755
H         -0.755264    -2.556376     1.852755
H          0.756127    -2.556380     1.852429

units ang
no_reorient
no_com
symmetry c1
}

set {
basis        aug-cc-pVTZ
scf_type     df
}

energy("mp2")
--------------------------------------------------------------------------

    Molecular point group: c1

    Geometry (in Angstrom), charge = 1, multiplicity = 1:

       Center              X                  Y                   Z               Mass
    ------------   -----------------  -----------------  -----------------  -----------------
         K            0.000000000000     0.000000000000     0.000000000000    38.963706486400
         O            2.086884000000     0.000000000000    -1.490509000000    15.994914619570
         H            2.552025000000     0.755701000000    -1.858373000000     1.007825032230
         H            2.552025000000    -0.755701000000    -1.858373000000     1.007825032230
         O           -2.089171000000     0.000000000000    -1.487307000000    15.994914619570
         H           -2.554868000000     0.755701000000    -1.854466000000     1.007825032230
         H           -2.554868000000    -0.755701000000    -1.854466000000     1.007825032230
         O            0.000353000000     2.090413000000     1.485755000000    15.994914619570
         H           -0.755264000000     2.556376000000     1.852755000000     1.007825032230
         H            0.756127000000     2.556380000000     1.852429000000     1.007825032230
         O            0.000353000000    -2.090413000000     1.485755000000    15.994914619570
         H           -0.755264000000    -2.556376000000     1.852755000000     1.007825032230
         H            0.756127000000    -2.556380000000     1.852429000000     1.007825032230

  Charge       = 1
  Multiplicity = 1
  Basis Set: AUG-CC-PVTZ
    Blend: AUG-CC-PVTZ
  Basis Set: (AUG-CC-PVTZ AUX)
    Blend: AUG-CC-PVTZ-JKFIT + DEF2-UNIVERSAL-JKFIT

    Orbital Energies [Eh]
    ---------------------

    Doubly Occupied:

       1A   -133.583602     2A    -20.715309     3A    -20.715309
       4A    -20.715297     5A    -20.715295     6A    -14.542674
       7A    -11.572398     8A    -11.572398     9A    -11.572348
      10A     -1.809605    11A     -1.504641    12A     -1.504640
      13A     -1.504630    14A     -1.503838    15A     -1.022392
      16A     -1.022391    17A     -1.021394    18A     -0.865426
      19A     -0.864814    20A     -0.864810    21A     -0.864607
      22A     -0.752141    23A     -0.743417    24A     -0.743212
      25A     -0.743210    26A     -0.664987    27A     -0.663729
      28A     -0.662598    29A     -0.662575

  @DF-RHF Final Energy:  -903.34268129078714

   => Energetics <=

    Nuclear Repulsion Energy =            259.3691080290055879
    One-Electron Energy =               -1754.0361876704441784
    Two-Electron Energy =                 591.3243983506515633
    Total Energy =                       -903.3426812907871408
 Dipole X            :          0.0306832           -0.0313846           -0.0007014
 Dipole Y            :         -0.0000000            0.0000000           -0.0000000
 Dipole Z            :          0.1217514           -0.1242646           -0.0025132
 Magnitude           :                                                    0.0026092
  Basis Set: (AUG-CC-PVTZ AUX)
    Blend: AUG-CC-PVTZ-RI + DEF2-QZVPP-RI
	 Reference Energy          =    -903.3426812907871408 [Eh]
	 Singles Energy            =      -0.0000000000000000 [Eh]
	 Same-Spin Energy          =      -0.3150042821737904 [Eh]
	 Opposite-Spin Energy      =      -0.9530833350153065 [Eh]
	 Correlation Energy        =      -1.2680876171890969 [Eh]
	 Total Energy              =    -904.6107689079761940 [Eh]

	 ================> DF-SCS-MP2 Energies <==================
	-----------------------------------------------------------
	 SCS Same-Spin Scale       =       0.3333333333333333 [-]
	 SCS Opposite-Spin Scale   =       1.2000000000000000 [-]
	 SCS Same-Spin Energy      =      -0.1050014273912635 [Eh]
	 SCS Opposite-Spin Energy  =      -1.1437000020183679 [Eh]
	 SCS Correlation Energy    =      -1.2487014294096312 [Eh]
	 SCS Total Energy          =    -904.5913827201967479 [Eh]
	-----------------------------------------------------------

*** Psi4 exiting successfully. Buy a developer a beer!
