                               Psi4 1.9.1 release

  ==> Input File <==

--------------------------------------------------------------------------
MEMORY 60 GB

molecule dimer {
0 1
Gh(K)      0.000000     0.000000     0.000000
O          2.086884    -0.000000    -1.490509
H          2.552025     0.755701    -1.858373
H          2.552025    -0.755701    -1.858373
Gh(O)     -2.089171    -0.000000    -1.487307
Gh(H)     -2.554868     0.755701    -1.854466
Gh(H)     -2.554868    -0.755701    -1.854466
Gh(O)      0.000353     2.090413     1.485755
Gh(H)     -0.755264     2.556376     1.852755
Gh(H)      0.756127     2.556380     1.852429
Gh(O)      0.000353    -2.090413     1.485755
Gh(H)     -0.755264    -2.556376     1.852755
Gh(H)      0.756127    -2.556380     1.852429

units ang
no_reorient
no_com
symmetry c1
}

set {
basis        aug-cc-pVTZ
scf_type     df
}

energy("mp2")
--------------------------------------------------------------------------

    Molecular point group: c1

    Geometry (in Angstrom), charge = 0, multiplicity = 1:

       Center              X                  Y                   Z               Mass
    ------------   -----------------  -----------------  -----------------  -----------------
      Gh(K)           0.000000000000     0.000000000000     0.000000000000    38.963706486400
         O            2.086884000000     0.000000000000    -1.490509000000    15.994914619570
         H            2.552025000000     0.755701000000    -1.858373000000     1.007825032230
         H            2.552025000000    -0.755701000000    -1.858373000000     1.007825032230
      Gh(O)          -2.089171000000     0.000000000000    -1.487307000000    15.994914619570
      Gh(H)          -2.554868000000     0.755701000000    -1.854466000000     1.007825032230
      Gh(H)          -2.554868000000    -0.755701000000    -1.854466000000     1.007825032230
      Gh(O)           0.000353000000     2.090413000000     1.485755000000    15.994914619570
      Gh(H)          -0.755264000000     2.556376000000     1.852755000000     1.007825032230
      Gh(H)           0.756127000000     2.556380000000     1.852429000000     1.007825032230
      Gh(O)           0.000353000000    -2.090413000000     1.485755000000    15.994914619570
      Gh(H)          -0.755264000000    -2.556376000000     1.852755000000     1.007825032230
      Gh(H)           0.756127000000    -2.556380000000     1.852429000000     1.007825032230

  Charge       = 0
  Multiplicity = 1
  Basis Set: AUG-CC-PVTZ
    Blend: AUG-CC-PVTZ
  Basis Set: (AUG-CC-PVTZ AUX)
    Blend: AUG-CC-PVTZ-JKFIT + DEF2-UNIVERSAL-JKFIT

    Orbital Energies [Eh]
    ---------------------

    Doubly Occupied:

       1A    -20.568057     2A     -1.352370     3A     -0.714486
       4A     -0.585758     5A     -0.510279

  @DF-RHF Final Energy:   -76.06034746244445

   => Energetics <=

    Nuclear Repulsion Energy =              9.1641788163088211
    One-Electron Energy =                -122.9871498812870669
    Two-Electron Energy =                  37.7626236025337931
    Total Energy =                        -76.0603474624444544
 Dipole X            :        -40.5781148           41.1943704            0.6162556
 Dipole Y            :         -0.0000000            0.0000000           -0.0000000
 Dipole Z            :         29.0695576          -29.5568624           -0.4873048
 Magnitude           :                                                    0.7856443
  Basis Set: (AUG-CC-PVTZ AUX)
    Blend: AUG-CC-PVTZ-RI + DEF2-QZVPP-RI
	 Reference Energy          =     -76.0603474624444544 [Eh]
	 Singles Energy            =      -0.0000000000000000 [Eh]
	 Same-Spin Energy          =      -0.0684435092328634 [Eh]
	 Opposite-Spin Energy      =      -0.2156352843136430 [Eh]
	 Correlation Energy        =      -0.2840787935465063 [Eh]
	 Total Energy              =     -76.3444262559909674 [Eh]

	 ================> DF-SCS-MP2 Energies <==================
	-----------------------------------------------------------
	 SCS Same-Spin Scale       =       0.3333333333333333 [-]
	 SCS Opposite-Spin Scale   =       1.2000000000000000 [-]
	 SCS Same-Spin Energy      =      -0.0228145030776211 [Eh]
	 SCS Opposite-Spin Energy  =      -0.2587623411763715 [Eh]
	 SCS Correlation Energy    =      -0.2815768442539927 [Eh]
	 SCS Total Energy          =     -76.3419243066984450 [Eh]
	-----------------------------------------------------------

*** Psi4 exiting successfully. Buy a developer a beer!
