                               Psi4 1.9.1 release

  ==> Input File <==

--------------------------------------------------------------------------
MEMORY 60 GB

molecule dimer {
1 1
K          0.000000     0.000000     0.000000
Gh(O)      2.086884    -0.000000    -1.490509
Gh(H)      2.552025     0.755701    -1.858373
Gh(H)      2.552025    -0.755701    -1.858373
Gh(O)     -2.089171    -0.000000    -1.487307
Gh(H)     -2.554868     0.755701    -1.854466
Gh(H)     -2.554868    -0.755701    -1.854466
Gh(O)      0.000353     2.090413     1.485755
Gh(H)     -0.755264     2.556376     1.852755
Gh(H)      0.756127     2.556380     1.852429
Gh(O)      0.000353    -2.090413     1.485755
Gh(H)     -0.755264    -2.556376     1.852755
Gh(H)      0.756127    -2.556380     1.852429

units ang
no_reorient
no_com
symmetry c1
}

set {
basis        aug-cc-pVTZ
scf_type     df
}

energy("mp2")
--------------------------------------------------------------------------

    Molecular point group: c1

    Geometry (in Angstrom), charge = 1, multiplicity = 1:

       Center              X                  Y                   Z               Mass
    ------------   -----------------  -----------------  -----------------  -----------------
         K            0.000000000000     0.000000000000     0.000000000000    38.963706486400
      Gh(O)           2.086884000000     0.000000000000    -1.490509000000    15.994914619570
      Gh(H)           2.552025000000     0.755701000000    -1.858373000000     1.007825032230
      Gh(H)           2.552025000000    -0.755701000000    -1.858373000000     1.007825032230
      Gh(O)          -2.089171000000     0.000000000000    -1.487307000000    15.994914619570
      Gh(H)          -2.554868000000     0.755701000000    -1.854466000000     1.007825032230
      Gh(H)          -2.554868000000    -0.755701000000    -1.854466000000     1.007825032230
      Gh(O)           0.000353000000     2.090413000000     1.485755000000    15.994914619570
      Gh(H)          -0.755264000000     2.556376000000     1.852755000000     1.007825032230
      Gh(H)           0.756127000000     2.556380000000     1.852429000000     1.007825032230
      Gh(O)           0.000353000000    -2.090413000000     1.485755000000    15.994914619570
      Gh(H)          -0.755264000000    -2.556376000000     1.852755000000     1.007825032230
      Gh(H)           0.756127000000    -2.556380000000     1.852429000000     1.007825032230

  Charge       = 1
  Multiplicity = 1
  Basis Set: AUG-CC-PVTZ
    Blend: AUG-CC-PVTZ
  Basis Set: (AUG-CC-PVTZ AUX)
    Blend: AUG-CC-PVTZ-JKFIT + DEF2-UNIVERSAL-JKFIT

    Orbital Energies [Eh]
    ---------------------

    Doubly Occupied:

       1A   -133.752764     2A    -14.708396     3A    -11.738459
       4A    -11.738459     5A    -11.738459     6A     -1.963960
       7A     -1.170647     8A     -1.170645     9A     -1.170645

  @DF-RHF Final Energy:  -599.01751568080579

   => Energetics <=

    Nuclear Repulsion Energy =              0.0000000000000000
    One-Electron Energy =                -819.7301612333870935
    Two-Electron Energy =                 220.7126455525813071
    Total Energy =                       -599.0175156808057864
 Dipole X            :         -0.0000001            0.0000000           -0.0000001
 Dipole Y            :         -0.0000000            0.0000000           -0.0000000
 Dipole Z            :         -0.0000005            0.0000000           -0.0000005
 Magnitude           :                                                    0.0000006
  Basis Set: (AUG-CC-PVTZ AUX)
    Blend: AUG-CC-PVTZ-RI + DEF2-QZVPP-RI
	 Reference Energy          =    -599.0175156808057864 [Eh]
	 Singles Energy            =      -0.0000000000000000 [Eh]
	 Same-Spin Energy          =      -0.0371052134849070 [Eh]
	 Opposite-Spin Energy      =      -0.0901498891737310 [Eh]
	 Correlation Energy        =      -0.1272551026586380 [Eh]
	 Total Energy              =    -599.1447707834644234 [Eh]

	 ================> DF-SCS-MP2 Energies <==================
	-----------------------------------------------------------
	 SCS Same-Spin Scale       =       0.3333333333333333 [-]
	 SCS Opposite-Spin Scale   =       1.2000000000000000 [-]
	 SCS Same-Spin Energy      =      -0.0123684044949690 [Eh]
	 SCS Opposite-Spin Energy  =      -0.1081798670084772 [Eh]
	 SCS Correlation Energy    =      -0.1205482715034462 [Eh]
	 SCS Total Energy          =    -599.1380639523092668 [Eh]
	-----------------------------------------------------------

*** Psi4 exiting successfully. Buy a developer a beer!
