                               Psi4 1.9.1 release

  ==> Input File <==

--------------------------------------------------------------------------
MEMORY 60 GB

molecule dimer {
0 1
Gh(K)      0.000000     0.000000     0.000000
Gh(O)      2.086884    -0.000000    -1.490509
Gh(H)      2.552025     0.755701    -1.858373
Gh(H)      2.552025    -0.755701    -1.858373
Gh(O)     -2.089171    -0.000000    -1.487307
Gh(H)     -2.554868     0.755701    -1.854466
Gh(H)     -2.554868    -0.755701    -1.854466
Gh(O)      0.000353     2.090413     1.485755
Gh(H)     -0.755264     2.556376     1.852755
Gh(H)      0.756127     2.556380     1.852429
O          0.000353    -2.090413     1.485755
H         -0.755264    -2.556376     1.852755
H          0.756127    -2.556380     1.852429

units ang
no_reorient
no_com
symmetry c1
}

set {
basis        aug-cc-pVTZ
scf_type     df
}

energy("mp2")
--------------------------------------------------------------------------

    Molecular point group: c1

    Geometry (in Angstrom), charge = 0, multiplicity = 1:

       Center              X                  Y                   Z               Mass
    ------------   -----------------  -----------------  -----------------  -----------------
      Gh(K)           0.000000000000     0.000000000000     0.000000000000    38.963706486400
      Gh(O)           2.086884000000     0.000000000000    -1.490509000000    15.994914619570
      Gh(H)           2.552025000000     0.755701000000    -1.858373000000     1.007825032230
      Gh(H)           2.552025000000    -0.755701000000    -1.858373000000     1.007825032230
      Gh(O)          -2.089171000000     0.000000000000    -1.487307000000    15.994914619570
      Gh(H)          -2.554868000000     0.755701000000    -1.854466000000     1.007825032230
      Gh(H)          -2.554868000000    -0.755701000000    -1.854466000000     1.007825032230
      Gh(O)           0.000353000000     2.090413000000     1.485755000000    15.994914619570
      Gh(H)          -0.755264000000     2.556376000000     1.852755000000     1.007825032230
      Gh(H)           0.756127000000     2.556380000000     1.852429000000     1.007825032230
         O            0.000353000000    -2.090413000000     1.485755000000    15.994914619570
         H           -0.755264000000    -2.556376000000     1.852755000000     1.007825032230
         H            0.756127000000    -2.556380000000     1.852429000000     1.007825032230

  Charge       = 0
  Multiplicity = 1
  Basis Set: AUG-CC-PVTZ
    Blend: AUG-CC-PVTZ
  Basis Set: (AUG-CC-PVTZ AUX)
    Blend: AUG-CC-PVTZ-JKFIT + DEF2-UNIVERSAL-JKFIT

    Orbital Energies [Eh]
    ---------------------

    Doubly Occupied:

       1A    -20.568058     2A     -1.352370     3A     -0.714482
       4A     -0.585761     5A     -0.510279

  @DF-RHF Final Energy:   -76.06034706888168

   => Energetics <=

    Nuclear Repulsion Energy =              9.1641602781695646
    One-Electron Energy =                -122.9871124251054084
    Two-Electron Energy =                  37.7626050780541647
    Total Energy =                        -76.0603470688816827
 Dipole X            :         -0.0068636            0.0069674            0.0001038
 Dipole Y            :         40.6468295          -41.2641731           -0.6173435
 Dipole Z            :        -28.9772017           29.4631433            0.4859416
 Magnitude           :                                                    0.7856540
  Basis Set: (AUG-CC-PVTZ AUX)
    Blend: AUG-CC-PVTZ-RI + DEF2-QZVPP-RI
	 Reference Energy          =     -76.0603470688816827 [Eh]
	 Singles Energy            =      -0.0000000000000000 [Eh]
	 Same-Spin Energy          =      -0.0684435808990762 [Eh]
	 Opposite-Spin Energy      =      -0.2156354266259268 [Eh]
	 Correlation Energy        =      -0.2840790075250030 [Eh]
	 Total Energy              =     -76.3444260764066911 [Eh]

	 ================> DF-SCS-MP2 Energies <==================
	-----------------------------------------------------------
	 SCS Same-Spin Scale       =       0.3333333333333333 [-]
	 SCS Opposite-Spin Scale   =       1.2000000000000000 [-]
	 SCS Same-Spin Energy      =      -0.0228145269663587 [Eh]
	 SCS Opposite-Spin Energy  =      -0.2587625119511122 [Eh]
	 SCS Correlation Energy    =      -0.2815770389174709 [Eh]
	 SCS Total Energy          =     -76.3419241077991586 [Eh]
	-----------------------------------------------------------

*** Psi4 exiting successfully. Buy a developer a beer!
