                               Psi4 1.9 release

  ==> Input File <==

--------------------------------------------------------------------------
MEMORY 60 GB

molecule dimer {
1 1
K      0.000000     0.000000     0.000000
--
0 1
O      2.086884    -0.000000    -1.490509
H      2.552025     0.755701    -1.858373
H      2.552025    -0.755701    -1.858373
O     -2.089171    -0.000000    -1.487307
H     -2.554868     0.755701    -1.854466
H     -2.554868    -0.755701    -1.854466
O      0.000353     2.090413     1.485755
H     -0.755264     2.556376     1.852755
H      0.756127     2.556380     1.852429
O      0.000353    -2.090413     1.485755
H     -0.755264    -2.556376     1.852755
H      0.756127    -2.556380     1.852429

units ang
no_reorient
no_com
symmetry c1
}

set {
basis        aug-cc-pVTZ
scf_type     df
}

energy("mp2", bsse_type="cp")
--------------------------------------------------------------------------

                               Psi4 1.9 release
    Molecular point group: c1
  Charge       = 0
  Multiplicity = 1
  Basis Set: AUG-CC-PVTZ
    Blend: AUG-CC-PVTZ
  Basis Set: (AUG-CC-PVTZ AUX)
    Blend: AUG-CC-PVTZ-JKFIT + DEF2-UNIVERSAL-JKFIT
  @DF-RHF Final Energy:  -304.23113570706408
    Total Energy =                       -304.2311357070640838
 Dipole X            :          0.0308857           -0.0313846           -0.0004989
 Dipole Y            :         -0.0000000            0.0000000           -0.0000000
 Dipole Z            :          0.1225993           -0.1242646           -0.0016654
 Magnitude           :                                                    0.0017385
  Basis Set: (AUG-CC-PVTZ AUX)
    Blend: AUG-CC-PVTZ-RI + DEF2-QZVPP-RI
	 Reference Energy          =    -304.2311357070640838 [Eh]
	 Singles Energy            =      -0.0000000000000000 [Eh]
	 Same-Spin Energy          =      -0.2745692688490106 [Eh]
	 Opposite-Spin Energy      =      -0.8640878926408718 [Eh]
	 Correlation Energy        =      -1.1386571614898824 [Eh]
	 Total Energy              =    -305.3697928685539864 [Eh]
	 SCS Total Energy          =    -305.3595642678494642 [Eh]
                               Psi4 1.9 release
    Molecular point group: c1
  Multiplicity = 1
  Basis Set: AUG-CC-PVTZ
    Blend: AUG-CC-PVTZ
  Basis Set: (AUG-CC-PVTZ AUX)
    Blend: AUG-CC-PVTZ-JKFIT + DEF2-UNIVERSAL-JKFIT
  @DF-RHF Final Energy:  -599.01751568090833
    Total Energy =                       -599.0175156809082182
  Basis Set: (AUG-CC-PVTZ AUX)
	 Singles Energy            =      -0.0000000000000000 [Eh]
	 Same-Spin Energy          =      -0.0371052134851787 [Eh]
	 Opposite-Spin Energy      =      -0.0901498891743424 [Eh]
	 Correlation Energy        =      -0.1272551026595212 [Eh]
	 Total Energy              =    -599.1447707835678784 [Eh]
	 SCS Total Energy          =    -599.1380639524126082 [Eh]
                               Psi4 1.9 release
    Molecular point group: c1

    Geometry (in Bohr), charge = 1, multiplicity = 1:

       Center              X                  Y                   Z               Mass
    ------------   -----------------  -----------------  -----------------  -----------------
         K            0.000000000000     0.000000000000     0.000000000000    38.963706486400
         O            3.943639215600     0.000000000000    -2.816653797530    15.994914619570
         H            4.822628315322     1.428067922735    -3.511816008945     1.007825032230
         H            4.822628315322    -1.428067922735    -3.511816008945     1.007825032230
         O           -3.947961019249     0.000000000000    -2.810602894476    15.994914619570
         H           -4.828000806696     1.428067922735    -3.504432848973     1.007825032230
         H           -4.828000806696    -1.428067922735    -3.504432848973     1.007825032230
         O            0.000667073322     3.950308059097     2.807670039530    15.994914619570
         H           -1.427242112418     4.830850513693     3.501199527573     1.007825032230
         H            1.428872946064     4.830858072598     3.500583476856     1.007825032230
         O            0.000667073322    -3.950308059097     2.807670039530    15.994914619570
         H           -1.427242112418    -4.830850513693     3.501199527573     1.007825032230
         H            1.428872946064    -4.830858072598     3.500583476856     1.007825032230

  Charge       = 1
  Multiplicity = 1
  Basis Set: AUG-CC-PVTZ
    Blend: AUG-CC-PVTZ
  Basis Set: (AUG-CC-PVTZ AUX)
    Blend: AUG-CC-PVTZ-JKFIT + DEF2-UNIVERSAL-JKFIT

    Orbital Energies [Eh]
    ---------------------

    Doubly Occupied:

       1A   -133.583602     2A    -20.715309     3A    -20.715309
       4A    -20.715297     5A    -20.715295     6A    -14.542674
       7A    -11.572398     8A    -11.572398     9A    -11.572348
      10A     -1.809605    11A     -1.504641    12A     -1.504640
      13A     -1.504630    14A     -1.503838    15A     -1.022392
      16A     -1.022391    17A     -1.021394    18A     -0.865426
      19A     -0.864814    20A     -0.864810    21A     -0.864607
      22A     -0.752141    23A     -0.743417    24A     -0.743212
      25A     -0.743210    26A     -0.664987    27A     -0.663729
      28A     -0.662598    29A     -0.662575

  @DF-RHF Final Energy:  -903.34268129095824

   => Energetics <=

    Nuclear Repulsion Energy =            259.3691080290055879
    One-Electron Energy =               -1754.0361876731549273
    Two-Electron Energy =                 591.3243983531912136
    Total Energy =                       -903.3426812909582395
 Dipole X            :          0.0306832           -0.0313846           -0.0007014
 Dipole Y            :         -0.0000000            0.0000000           -0.0000000
 Dipole Z            :          0.1217514           -0.1242646           -0.0025132
 Magnitude           :                                                    0.0026092
  Basis Set: (AUG-CC-PVTZ AUX)
    Blend: AUG-CC-PVTZ-RI + DEF2-QZVPP-RI
	 Reference Energy          =    -903.3426812909582395 [Eh]
	 Singles Energy            =      -0.0000000000000000 [Eh]
	 Same-Spin Energy          =      -0.3150042821354583 [Eh]
	 Opposite-Spin Energy      =      -0.9530833349454713 [Eh]
	 Correlation Energy        =      -1.2680876170809294 [Eh]
	 Total Energy              =    -904.6107689080391765 [Eh]

	 ================> DF-SCS-MP2 Energies <==================
	-----------------------------------------------------------
	 SCS Same-Spin Scale       =       0.3333333333333333 [-]
	 SCS Opposite-Spin Scale   =       1.2000000000000000 [-]
	 SCS Same-Spin Energy      =      -0.1050014273784861 [Eh]
	 SCS Opposite-Spin Energy  =      -1.1437000019345656 [Eh]
	 SCS Correlation Energy    =      -1.2487014293130516 [Eh]
	 SCS Total Energy          =    -904.5913827202713264 [Eh]
	-----------------------------------------------------------

*** Psi4 exiting successfully. Buy a developer a beer!
