                               Psi4 1.9.1 release

  ==> Input File <==

--------------------------------------------------------------------------
MEMORY 60 GB

molecule dimer {
0 1
Gh(K)      0.000000     0.000000     0.000000
Gh(O)      2.086884    -0.000000    -1.490509
Gh(H)      2.552025     0.755701    -1.858373
Gh(H)      2.552025    -0.755701    -1.858373
O         -2.089171    -0.000000    -1.487307
H         -2.554868     0.755701    -1.854466
H         -2.554868    -0.755701    -1.854466
Gh(O)      0.000353     2.090413     1.485755
Gh(H)     -0.755264     2.556376     1.852755
Gh(H)      0.756127     2.556380     1.852429
Gh(O)      0.000353    -2.090413     1.485755
Gh(H)     -0.755264    -2.556376     1.852755
Gh(H)      0.756127    -2.556380     1.852429

units ang
no_reorient
no_com
symmetry c1
}

set {
basis        aug-cc-pVTZ
scf_type     df
}

energy("mp2")
--------------------------------------------------------------------------

    Molecular point group: c1

    Geometry (in Angstrom), charge = 0, multiplicity = 1:

       Center              X                  Y                   Z               Mass
    ------------   -----------------  -----------------  -----------------  -----------------
      Gh(K)           0.000000000000     0.000000000000     0.000000000000    38.963706486400
      Gh(O)           2.086884000000     0.000000000000    -1.490509000000    15.994914619570
      Gh(H)           2.552025000000     0.755701000000    -1.858373000000     1.007825032230
      Gh(H)           2.552025000000    -0.755701000000    -1.858373000000     1.007825032230
         O           -2.089171000000     0.000000000000    -1.487307000000    15.994914619570
         H           -2.554868000000     0.755701000000    -1.854466000000     1.007825032230
         H           -2.554868000000    -0.755701000000    -1.854466000000     1.007825032230
      Gh(O)           0.000353000000     2.090413000000     1.485755000000    15.994914619570
      Gh(H)          -0.755264000000     2.556376000000     1.852755000000     1.007825032230
      Gh(H)           0.756127000000     2.556380000000     1.852429000000     1.007825032230
      Gh(O)           0.000353000000    -2.090413000000     1.485755000000    15.994914619570
      Gh(H)          -0.755264000000    -2.556376000000     1.852755000000     1.007825032230
      Gh(H)           0.756127000000    -2.556380000000     1.852429000000     1.007825032230

  Charge       = 0
  Multiplicity = 1
  Basis Set: AUG-CC-PVTZ
    Blend: AUG-CC-PVTZ
  Basis Set: (AUG-CC-PVTZ AUX)
    Blend: AUG-CC-PVTZ-JKFIT + DEF2-UNIVERSAL-JKFIT

    Orbital Energies [Eh]
    ---------------------

    Doubly Occupied:

       1A    -20.568056     2A     -1.352370     3A     -0.714486
       4A     -0.585758     5A     -0.510279

  @DF-RHF Final Energy:   -76.06034749111988

   => Energetics <=

    Nuclear Repulsion Energy =              9.1641818981357588
    One-Electron Energy =                -122.9871553620010616
    Two-Electron Energy =                  37.7626259727454254
    Total Energy =                        -76.0603474911198845
 Dipole X            :         40.6226975          -41.2396898           -0.6169923
 Dipole Y            :          0.0000000            0.0000000            0.0000000
 Dipole Z            :         29.0073178          -29.4936889           -0.4863711
 Magnitude           :                                                    0.7856439
  Basis Set: (AUG-CC-PVTZ AUX)
    Blend: AUG-CC-PVTZ-RI + DEF2-QZVPP-RI
	 Reference Energy          =     -76.0603474911198845 [Eh]
	 Singles Energy            =      -0.0000000000000000 [Eh]
	 Same-Spin Energy          =      -0.0684435020334010 [Eh]
	 Opposite-Spin Energy      =      -0.2156352495593624 [Eh]
	 Correlation Energy        =      -0.2840787515927634 [Eh]
	 Total Energy              =     -76.3444262427126432 [Eh]

	 ================> DF-SCS-MP2 Energies <==================
	-----------------------------------------------------------
	 SCS Same-Spin Scale       =       0.3333333333333333 [-]
	 SCS Opposite-Spin Scale   =       1.2000000000000000 [-]
	 SCS Same-Spin Energy      =      -0.0228145006778003 [Eh]
	 SCS Opposite-Spin Energy  =      -0.2587622994712348 [Eh]
	 SCS Correlation Energy    =      -0.2815768001490351 [Eh]
	 SCS Total Energy          =     -76.3419242912689242 [Eh]
	-----------------------------------------------------------

*** Psi4 exiting successfully. Buy a developer a beer!
