                               Psi4 1.9 release

  ==> Input File <==

--------------------------------------------------------------------------
MEMORY 60 GB

molecule dimer {
1 1
K      0.000000     0.000000     0.000000
--
0 1
O      2.562815    -0.694898     0.542792
H      3.373617    -0.354851     0.152568
H      2.804903    -1.571329     0.856340
O     -2.014501     1.400138    -0.990096
H     -2.534077     0.586214    -1.045531
H     -2.644148     2.124800    -0.955822
O     -1.898623    -1.351254    -1.253490
H     -1.423068    -1.204159    -2.082933
H     -2.473179    -2.106495    -1.402920
O      0.874127     0.783880     2.274824
H      0.884597     1.204885     3.136562
H      1.766396     0.455027     2.125638
O     -0.113837     0.285375    -2.618088
H     -0.754411     0.991430    -2.446719
H      0.230518     0.441625    -3.500921

units ang
no_reorient
no_com
symmetry c1
}

set {
basis        aug-cc-pVTZ
scf_type     df
}

energy("mp2", bsse_type="cp")
--------------------------------------------------------------------------

                               Psi4 1.9 release
    Molecular point group: c1
  Charge       = 0
  Multiplicity = 1
  Basis Set: AUG-CC-PVTZ
    Blend: AUG-CC-PVTZ
  Basis Set: (AUG-CC-PVTZ AUX)
    Blend: AUG-CC-PVTZ-JKFIT + DEF2-UNIVERSAL-JKFIT
  @DF-RHF Final Energy:  -380.30610223349925
    Total Energy =                       -380.3061022334992458
 Dipole X            :         10.7165328          -10.3727143            0.3438185
 Dipole Y            :         -7.7204482            7.4702291           -0.2502191
 Dipole Z            :         39.9302954          -40.6597290           -0.7294336
 Magnitude           :                                                    0.8443306
  Basis Set: (AUG-CC-PVTZ AUX)
    Blend: AUG-CC-PVTZ-RI + DEF2-QZVPP-RI
	 Reference Energy          =    -380.3061022334992458 [Eh]
	 Singles Energy            =      -0.0000000000000000 [Eh]
	 Same-Spin Energy          =      -0.3487398074333555 [Eh]
	 Opposite-Spin Energy      =      -1.0864663043883156 [Eh]
	 Correlation Energy        =      -1.4352061118216710 [Eh]
	 Total Energy              =    -381.7413083453209310 [Eh]
	 SCS Total Energy          =    -381.7261084012429819 [Eh]
                               Psi4 1.9 release
    Molecular point group: c1
  Multiplicity = 1
  Basis Set: AUG-CC-PVTZ
    Blend: AUG-CC-PVTZ
  Basis Set: (AUG-CC-PVTZ AUX)
    Blend: AUG-CC-PVTZ-JKFIT + DEF2-UNIVERSAL-JKFIT
  @DF-RHF Final Energy:  -599.01751613011061
    Total Energy =                       -599.0175161301106073
  Basis Set: (AUG-CC-PVTZ AUX)
	 Singles Energy            =      -0.0000000000000000 [Eh]
	 Same-Spin Energy          =      -0.0391170914620075 [Eh]
	 Opposite-Spin Energy      =      -0.0964139816975367 [Eh]
	 Correlation Energy        =      -0.1355310731595443 [Eh]
	 Total Energy              =    -599.1530472032701482 [Eh]
	 SCS Total Energy          =    -599.1462519386350323 [Eh]
                               Psi4 1.9 release
    Molecular point group: c1

    Geometry (in Bohr), charge = 1, multiplicity = 1:

       Center              X                  Y                   Z               Mass
    ------------   -----------------  -----------------  -----------------  -----------------
         K            0.000000000000     0.000000000000     0.000000000000    38.963706486400
         O            4.843018460215    -1.313166905128     1.025728223090    15.994914619570
         H            6.375212182189    -0.670571205345     0.288311735509     1.007825032230
         H            5.300498478475    -2.969381462990     1.618248070275     1.007825032230
         O           -3.806855169461     2.645877357846    -1.871010277911    15.994914619570
         H           -4.788711510822     1.107783910909    -1.975767245676     1.007825032230
         H           -4.996715555177     4.015290071373    -1.806241804687     1.007825032230
         O           -3.587877485495    -2.553499985929    -2.368752801000    15.994914619570
         H           -2.689208777903    -2.275530721505    -3.936172907678     1.007825032230
         H           -4.673630969234    -3.980698634646    -2.651134575927     1.007825032230
         O            1.651860628868     1.481318515224     4.298794343618    15.994914619570
         H            1.671646061402     2.276902662672     5.927243155518     1.007825032230
         H            3.338004669104     0.859876409689     4.016873661866     1.007825032230
         O           -0.215120752944     0.539280593053    -4.947469292348    15.994914619570
         H           -1.425630176033     1.873531172563    -4.623628815954     1.007825032230
         H            0.435615886988     0.834550300155    -6.615781876864     1.007825032230

  Charge       = 1
  Multiplicity = 1
  Basis Set: AUG-CC-PVTZ
    Blend: AUG-CC-PVTZ
  Basis Set: (AUG-CC-PVTZ AUX)
    Blend: AUG-CC-PVTZ-JKFIT + DEF2-UNIVERSAL-JKFIT

    Orbital Energies [Eh]
    ---------------------

    Doubly Occupied:

       1A   -133.593106     2A    -20.728137     3A    -20.712943
       4A    -20.712893     5A    -20.710228     6A    -20.695242
       7A    -14.551809     8A    -11.581643     9A    -11.581554
      10A    -11.581494    11A     -1.817692    12A     -1.517216
      13A     -1.513570    14A     -1.497804    15A     -1.495592
      16A     -1.484814    17A     -1.033223    18A     -1.028473
      19A     -1.027544    20A     -0.889218    21A     -0.876979
      22A     -0.864607    23A     -0.863223    24A     -0.856511
      25A     -0.755721    26A     -0.744843    27A     -0.742700
      28A     -0.731963    29A     -0.720816    30A     -0.675774
      31A     -0.666760    32A     -0.661570    33A     -0.659639
      34A     -0.644840

  @DF-RHF Final Energy:  -979.41204570439811

   => Energetics <=

    Nuclear Repulsion Energy =            369.0424340496114155
    One-Electron Energy =               -2076.4686684404482548
    Two-Electron Energy =                 728.0141886864386152
    Total Energy =                       -979.4120457043981105
 Dipole X            :         10.6758995          -10.3727143            0.3031852
 Dipole Y            :         -7.6611064            7.4702291           -0.1908773
 Dipole Z            :         39.7740186          -40.6597290           -0.8857104
 Magnitude           :                                                    0.9554257
  Basis Set: (AUG-CC-PVTZ AUX)
    Blend: AUG-CC-PVTZ-RI + DEF2-QZVPP-RI
	 Reference Energy          =    -979.4120457043981105 [Eh]
	 Singles Energy            =      -0.0000000000000000 [Eh]
	 Same-Spin Energy          =      -0.3918713016656054 [Eh]
	 Opposite-Spin Energy      =      -1.1826863452057736 [Eh]
	 Correlation Energy        =      -1.5745576468713791 [Eh]
	 Total Energy              =    -980.9866033512695367 [Eh]

	 ================> DF-SCS-MP2 Energies <==================
	-----------------------------------------------------------
	 SCS Same-Spin Scale       =       0.3333333333333333 [-]
	 SCS Opposite-Spin Scale   =       1.2000000000000000 [-]
	 SCS Same-Spin Energy      =      -0.1306237672218685 [Eh]
	 SCS Opposite-Spin Energy  =      -1.4192236142469283 [Eh]
	 SCS Correlation Energy    =      -1.5498473814687967 [Eh]
	 SCS Total Energy          =    -980.9618930858669046 [Eh]
	-----------------------------------------------------------

*** Psi4 exiting successfully. Buy a developer a beer!
