                               Psi4 1.9.1 release

  ==> Input File <==

--------------------------------------------------------------------------
MEMORY 60 GB

molecule dimer {
1 1
K          0.000000     0.000000     0.000000
O          2.562815    -0.694898     0.542792
H          3.373617    -0.354851     0.152568
H          2.804903    -1.571329     0.856340
O         -2.014501     1.400138    -0.990096
H         -2.534077     0.586214    -1.045531
H         -2.644148     2.124800    -0.955822
O         -1.898623    -1.351254    -1.253490
H         -1.423068    -1.204159    -2.082933
H         -2.473179    -2.106495    -1.402920
O          0.874127     0.783880     2.274824
H          0.884597     1.204885     3.136562
H          1.766396     0.455027     2.125638
O         -0.113837     0.285375    -2.618088
H         -0.754411     0.991430    -2.446719
H          0.230518     0.441625    -3.500921

units ang
no_reorient
no_com
symmetry c1
}

set {
basis        aug-cc-pVTZ
scf_type     df
}

energy("mp2")
--------------------------------------------------------------------------

    Molecular point group: c1

    Geometry (in Angstrom), charge = 1, multiplicity = 1:

       Center              X                  Y                   Z               Mass
    ------------   -----------------  -----------------  -----------------  -----------------
         K            0.000000000000     0.000000000000     0.000000000000    38.963706486400
         O            2.562815000000    -0.694898000000     0.542792000000    15.994914619570
         H            3.373617000000    -0.354851000000     0.152568000000     1.007825032230
         H            2.804903000000    -1.571329000000     0.856340000000     1.007825032230
         O           -2.014501000000     1.400138000000    -0.990096000000    15.994914619570
         H           -2.534077000000     0.586214000000    -1.045531000000     1.007825032230
         H           -2.644148000000     2.124800000000    -0.955822000000     1.007825032230
         O           -1.898623000000    -1.351254000000    -1.253490000000    15.994914619570
         H           -1.423068000000    -1.204159000000    -2.082933000000     1.007825032230
         H           -2.473179000000    -2.106495000000    -1.402920000000     1.007825032230
         O            0.874127000000     0.783880000000     2.274824000000    15.994914619570
         H            0.884597000000     1.204885000000     3.136562000000     1.007825032230
         H            1.766396000000     0.455027000000     2.125638000000     1.007825032230
         O           -0.113837000000     0.285375000000    -2.618088000000    15.994914619570
         H           -0.754411000000     0.991430000000    -2.446719000000     1.007825032230
         H            0.230518000000     0.441625000000    -3.500921000000     1.007825032230

  Charge       = 1
  Multiplicity = 1
  Basis Set: AUG-CC-PVTZ
    Blend: AUG-CC-PVTZ
  Basis Set: (AUG-CC-PVTZ AUX)
    Blend: AUG-CC-PVTZ-JKFIT + DEF2-UNIVERSAL-JKFIT

    Orbital Energies [Eh]
    ---------------------

    Doubly Occupied:

       1A   -133.593106     2A    -20.728137     3A    -20.712943
       4A    -20.712893     5A    -20.710228     6A    -20.695242
       7A    -14.551809     8A    -11.581643     9A    -11.581554
      10A    -11.581494    11A     -1.817692    12A     -1.517216
      13A     -1.513570    14A     -1.497804    15A     -1.495592
      16A     -1.484814    17A     -1.033223    18A     -1.028473
      19A     -1.027544    20A     -0.889218    21A     -0.876979
      22A     -0.864607    23A     -0.863223    24A     -0.856511
      25A     -0.755721    26A     -0.744843    27A     -0.742700
      28A     -0.731963    29A     -0.720816    30A     -0.675774
      31A     -0.666760    32A     -0.661570    33A     -0.659639
      34A     -0.644840

  @DF-RHF Final Energy:  -979.41204570391130

   => Energetics <=

    Nuclear Repulsion Energy =            369.0424340496114155
    One-Electron Energy =               -2076.4686684406324275
    Two-Electron Energy =                 728.0141886871095949
    Total Energy =                       -979.4120457039113035
 Dipole X            :         10.6758995          -10.3727143            0.3031852
 Dipole Y            :         -7.6611064            7.4702291           -0.1908773
 Dipole Z            :         39.7740186          -40.6597290           -0.8857104
 Magnitude           :                                                    0.9554257
  Basis Set: (AUG-CC-PVTZ AUX)
    Blend: AUG-CC-PVTZ-RI + DEF2-QZVPP-RI
	 Reference Energy          =    -979.4120457039113035 [Eh]
	 Singles Energy            =      -0.0000000000000000 [Eh]
	 Same-Spin Energy          =      -0.3918713016584933 [Eh]
	 Opposite-Spin Energy      =      -1.1826863451920859 [Eh]
	 Correlation Energy        =      -1.5745576468505793 [Eh]
	 Total Energy              =    -980.9866033507619250 [Eh]

	 ================> DF-SCS-MP2 Energies <==================
	-----------------------------------------------------------
	 SCS Same-Spin Scale       =       0.3333333333333333 [-]
	 SCS Opposite-Spin Scale   =       1.2000000000000000 [-]
	 SCS Same-Spin Energy      =      -0.1306237672194978 [Eh]
	 SCS Opposite-Spin Energy  =      -1.4192236142305030 [Eh]
	 SCS Correlation Energy    =      -1.5498473814500007 [Eh]
	 SCS Total Energy          =    -980.9618930853613392 [Eh]
	-----------------------------------------------------------

*** Psi4 exiting successfully. Buy a developer a beer!
