                               Psi4 1.9.1 release

  ==> Input File <==

--------------------------------------------------------------------------
MEMORY 60 GB

molecule dimer {
0 1
Gh(K)      0.000000     0.000000     0.000000
Gh(O)      2.562815    -0.694898     0.542792
Gh(H)      3.373617    -0.354851     0.152568
Gh(H)      2.804903    -1.571329     0.856340
O         -2.014501     1.400138    -0.990096
H         -2.534077     0.586214    -1.045531
H         -2.644148     2.124800    -0.955822
Gh(O)     -1.898623    -1.351254    -1.253490
Gh(H)     -1.423068    -1.204159    -2.082933
Gh(H)     -2.473179    -2.106495    -1.402920
Gh(O)      0.874127     0.783880     2.274824
Gh(H)      0.884597     1.204885     3.136562
Gh(H)      1.766396     0.455027     2.125638
Gh(O)     -0.113837     0.285375    -2.618088
Gh(H)     -0.754411     0.991430    -2.446719
Gh(H)      0.230518     0.441625    -3.500921

units ang
no_reorient
no_com
symmetry c1
}

set {
basis        aug-cc-pVTZ
scf_type     df
}

energy("mp2")
--------------------------------------------------------------------------

    Molecular point group: c1

    Geometry (in Angstrom), charge = 0, multiplicity = 1:

       Center              X                  Y                   Z               Mass
    ------------   -----------------  -----------------  -----------------  -----------------
      Gh(K)           0.000000000000     0.000000000000     0.000000000000    38.963706486400
      Gh(O)           2.562815000000    -0.694898000000     0.542792000000    15.994914619570
      Gh(H)           3.373617000000    -0.354851000000     0.152568000000     1.007825032230
      Gh(H)           2.804903000000    -1.571329000000     0.856340000000     1.007825032230
         O           -2.014501000000     1.400138000000    -0.990096000000    15.994914619570
         H           -2.534077000000     0.586214000000    -1.045531000000     1.007825032230
         H           -2.644148000000     2.124800000000    -0.955822000000     1.007825032230
      Gh(O)          -1.898623000000    -1.351254000000    -1.253490000000    15.994914619570
      Gh(H)          -1.423068000000    -1.204159000000    -2.082933000000     1.007825032230
      Gh(H)          -2.473179000000    -2.106495000000    -1.402920000000     1.007825032230
      Gh(O)           0.874127000000     0.783880000000     2.274824000000    15.994914619570
      Gh(H)           0.884597000000     1.204885000000     3.136562000000     1.007825032230
      Gh(H)           1.766396000000     0.455027000000     2.125638000000     1.007825032230
      Gh(O)          -0.113837000000     0.285375000000    -2.618088000000    15.994914619570
      Gh(H)          -0.754411000000     0.991430000000    -2.446719000000     1.007825032230
      Gh(H)           0.230518000000     0.441625000000    -3.500921000000     1.007825032230

  Charge       = 0
  Multiplicity = 1
  Basis Set: AUG-CC-PVTZ
    Blend: AUG-CC-PVTZ
  Basis Set: (AUG-CC-PVTZ AUX)
    Blend: AUG-CC-PVTZ-JKFIT + DEF2-UNIVERSAL-JKFIT

    Orbital Energies [Eh]
    ---------------------

    Doubly Occupied:

       1A    -20.567250     2A     -1.348624     3A     -0.717921
       4A     -0.579597     5A     -0.509159

  @DF-RHF Final Energy:   -76.06019950689605

   => Energetics <=

    Nuclear Repulsion Energy =              9.1264228117328372
    One-Electron Energy =                -122.9281407261808710
    Two-Electron Energy =                  37.7415184075519861
    Total Energy =                        -76.0601995068960548
 Dipole X            :         39.4744832          -40.2402684           -0.7657852
 Dipole Y            :        -26.3485030           26.2900928           -0.0584101
 Dipole Z            :         18.7362602          -18.7500913           -0.0138311
 Magnitude           :                                                    0.7681341
  Basis Set: (AUG-CC-PVTZ AUX)
    Blend: AUG-CC-PVTZ-RI + DEF2-QZVPP-RI
	 Reference Energy          =     -76.0601995068960548 [Eh]
	 Singles Energy            =      -0.0000000000000000 [Eh]
	 Same-Spin Energy          =      -0.0685268972264572 [Eh]
	 Opposite-Spin Energy      =      -0.2164008678360637 [Eh]
	 Correlation Energy        =      -0.2849277650625209 [Eh]
	 Total Energy              =     -76.3451272719585745 [Eh]

	 ================> DF-SCS-MP2 Energies <==================
	-----------------------------------------------------------
	 SCS Same-Spin Scale       =       0.3333333333333333 [-]
	 SCS Opposite-Spin Scale   =       1.2000000000000000 [-]
	 SCS Same-Spin Energy      =      -0.0228422990754857 [Eh]
	 SCS Opposite-Spin Energy  =      -0.2596810414032764 [Eh]
	 SCS Correlation Energy    =      -0.2825233404787622 [Eh]
	 SCS Total Energy          =     -76.3427228473748158 [Eh]
	-----------------------------------------------------------

*** Psi4 exiting successfully. Buy a developer a beer!
