                               Psi4 1.9.1 release

  ==> Input File <==

--------------------------------------------------------------------------
MEMORY 60 GB

molecule dimer {
1 1
K          0.000000     0.000000     0.000000
Gh(O)      2.562815    -0.694898     0.542792
Gh(H)      3.373617    -0.354851     0.152568
Gh(H)      2.804903    -1.571329     0.856340
Gh(O)     -2.014501     1.400138    -0.990096
Gh(H)     -2.534077     0.586214    -1.045531
Gh(H)     -2.644148     2.124800    -0.955822
Gh(O)     -1.898623    -1.351254    -1.253490
Gh(H)     -1.423068    -1.204159    -2.082933
Gh(H)     -2.473179    -2.106495    -1.402920
Gh(O)      0.874127     0.783880     2.274824
Gh(H)      0.884597     1.204885     3.136562
Gh(H)      1.766396     0.455027     2.125638
Gh(O)     -0.113837     0.285375    -2.618088
Gh(H)     -0.754411     0.991430    -2.446719
Gh(H)      0.230518     0.441625    -3.500921

units ang
no_reorient
no_com
symmetry c1
}

set {
basis        aug-cc-pVTZ
scf_type     df
}

energy("mp2")
--------------------------------------------------------------------------

    Molecular point group: c1

    Geometry (in Angstrom), charge = 1, multiplicity = 1:

       Center              X                  Y                   Z               Mass
    ------------   -----------------  -----------------  -----------------  -----------------
         K            0.000000000000     0.000000000000     0.000000000000    38.963706486400
      Gh(O)           2.562815000000    -0.694898000000     0.542792000000    15.994914619570
      Gh(H)           3.373617000000    -0.354851000000     0.152568000000     1.007825032230
      Gh(H)           2.804903000000    -1.571329000000     0.856340000000     1.007825032230
      Gh(O)          -2.014501000000     1.400138000000    -0.990096000000    15.994914619570
      Gh(H)          -2.534077000000     0.586214000000    -1.045531000000     1.007825032230
      Gh(H)          -2.644148000000     2.124800000000    -0.955822000000     1.007825032230
      Gh(O)          -1.898623000000    -1.351254000000    -1.253490000000    15.994914619570
      Gh(H)          -1.423068000000    -1.204159000000    -2.082933000000     1.007825032230
      Gh(H)          -2.473179000000    -2.106495000000    -1.402920000000     1.007825032230
      Gh(O)           0.874127000000     0.783880000000     2.274824000000    15.994914619570
      Gh(H)           0.884597000000     1.204885000000     3.136562000000     1.007825032230
      Gh(H)           1.766396000000     0.455027000000     2.125638000000     1.007825032230
      Gh(O)          -0.113837000000     0.285375000000    -2.618088000000    15.994914619570
      Gh(H)          -0.754411000000     0.991430000000    -2.446719000000     1.007825032230
      Gh(H)           0.230518000000     0.441625000000    -3.500921000000     1.007825032230

  Charge       = 1
  Multiplicity = 1
  Basis Set: AUG-CC-PVTZ
    Blend: AUG-CC-PVTZ
  Basis Set: (AUG-CC-PVTZ AUX)
    Blend: AUG-CC-PVTZ-JKFIT + DEF2-UNIVERSAL-JKFIT

    Orbital Energies [Eh]
    ---------------------

    Doubly Occupied:

       1A   -133.752519     2A    -14.708224     3A    -11.738285
       4A    -11.738283     5A    -11.738282     6A     -1.963902
       7A     -1.170633     8A     -1.170601     9A     -1.170575

  @DF-RHF Final Energy:  -599.01751612990108

   => Energetics <=

    Nuclear Repulsion Energy =              0.0000000000000000
    One-Electron Energy =                -819.7324232754556306
    Two-Electron Energy =                 220.7149071455545766
    Total Energy =                       -599.0175161299010824
 Dipole X            :         -0.0000283            0.0000000           -0.0000283
 Dipole Y            :          0.0000419            0.0000000            0.0000419
 Dipole Z            :         -0.0000930            0.0000000           -0.0000930
 Magnitude           :                                                    0.0001058
  Basis Set: (AUG-CC-PVTZ AUX)
    Blend: AUG-CC-PVTZ-RI + DEF2-QZVPP-RI
	 Reference Energy          =    -599.0175161299010824 [Eh]
	 Singles Energy            =      -0.0000000000000000 [Eh]
	 Same-Spin Energy          =      -0.0391170914600552 [Eh]
	 Opposite-Spin Energy      =      -0.0964139816933260 [Eh]
	 Correlation Energy        =      -0.1355310731533812 [Eh]
	 Total Energy              =    -599.1530472030544843 [Eh]

	 ================> DF-SCS-MP2 Energies <==================
	-----------------------------------------------------------
	 SCS Same-Spin Scale       =       0.3333333333333333 [-]
	 SCS Opposite-Spin Scale   =       1.2000000000000000 [-]
	 SCS Same-Spin Energy      =      -0.0130390304866851 [Eh]
	 SCS Opposite-Spin Energy  =      -0.1156967780319912 [Eh]
	 SCS Correlation Energy    =      -0.1287358085186762 [Eh]
	 SCS Total Energy          =    -599.1462519384197094 [Eh]
	-----------------------------------------------------------

*** Psi4 exiting successfully. Buy a developer a beer!
