                               Psi4 1.9.1 release

  ==> Input File <==

--------------------------------------------------------------------------
MEMORY 60 GB

molecule dimer {
0 1
Gh(K)      0.000000     0.000000     0.000000
Gh(O)      2.654630     0.002171     0.000579
Gh(H)      3.250531     0.754762     0.000935
Gh(H)      3.242121    -0.756990     0.000312
Gh(O)     -0.007276     2.651700     0.006090
Gh(H)     -0.758553     3.248594     0.007697
Gh(H)      0.751349     3.239242     0.007596
Gh(O)     -2.653913     0.004803    -0.000991
Gh(H)     -3.249100    -0.748349    -0.001455
Gh(H)     -3.242057     0.763455    -0.000838
O          0.005359    -2.651635    -0.007866
H          0.759550    -3.244853    -0.009743
H         -0.750301    -3.243005    -0.009704
Gh(O)      0.002441    -0.005300     2.618395
Gh(H)     -0.755182    -0.005025     3.207306
Gh(H)      0.760169    -0.008050     3.207160
Gh(O)      0.001289     0.006833    -2.618434
Gh(H)     -0.756859     0.009596    -3.206659
Gh(H)      0.758499     0.006565    -3.207873

units ang
no_reorient
no_com
symmetry c1
}

set {
basis        aug-cc-pVTZ
scf_type     df
}

energy("mp2")
--------------------------------------------------------------------------

    Molecular point group: c1

    Geometry (in Angstrom), charge = 0, multiplicity = 1:

       Center              X                  Y                   Z               Mass
    ------------   -----------------  -----------------  -----------------  -----------------
      Gh(K)           0.000000000000     0.000000000000     0.000000000000    38.963706486400
      Gh(O)           2.654630000000     0.002171000000     0.000579000000    15.994914619570
      Gh(H)           3.250531000000     0.754762000000     0.000935000000     1.007825032230
      Gh(H)           3.242121000000    -0.756990000000     0.000312000000     1.007825032230
      Gh(O)          -0.007276000000     2.651700000000     0.006090000000    15.994914619570
      Gh(H)          -0.758553000000     3.248594000000     0.007697000000     1.007825032230
      Gh(H)           0.751349000000     3.239242000000     0.007596000000     1.007825032230
      Gh(O)          -2.653913000000     0.004803000000    -0.000991000000    15.994914619570
      Gh(H)          -3.249100000000    -0.748349000000    -0.001455000000     1.007825032230
      Gh(H)          -3.242057000000     0.763455000000    -0.000838000000     1.007825032230
         O            0.005359000000    -2.651635000000    -0.007866000000    15.994914619570
         H            0.759550000000    -3.244853000000    -0.009743000000     1.007825032230
         H           -0.750301000000    -3.243005000000    -0.009704000000     1.007825032230
      Gh(O)           0.002441000000    -0.005300000000     2.618395000000    15.994914619570
      Gh(H)          -0.755182000000    -0.005025000000     3.207306000000     1.007825032230
      Gh(H)           0.760169000000    -0.008050000000     3.207160000000     1.007825032230
      Gh(O)           0.001289000000     0.006833000000    -2.618434000000    15.994914619570
      Gh(H)          -0.756859000000     0.009596000000    -3.206659000000     1.007825032230
      Gh(H)           0.758499000000     0.006565000000    -3.207873000000     1.007825032230

  Charge       = 0
  Multiplicity = 1
  Basis Set: AUG-CC-PVTZ
    Blend: AUG-CC-PVTZ
  Basis Set: (AUG-CC-PVTZ AUX)
    Blend: AUG-CC-PVTZ-JKFIT + DEF2-UNIVERSAL-JKFIT

    Orbital Energies [Eh]
    ---------------------

    Doubly Occupied:

       1A    -20.567810     2A     -1.352876     3A     -0.715057
       4A     -0.585926     5A     -0.510338

  @DF-RHF Final Energy:   -76.06046660571313

   => Energetics <=

    Nuclear Repulsion Energy =              9.1742710591891310
    One-Electron Energy =                -123.0054573748046494
    Two-Electron Energy =                  37.7707197099023944
    Total Energy =                        -76.0604666057131311
 Dipole X            :         -0.0994639            0.0984944           -0.0009695
 Dipole Y            :         51.5621907          -52.3471862           -0.7849956
 Dipole Z            :          0.1532051           -0.1556662           -0.0024611
 Magnitude           :                                                    0.7850000
  Basis Set: (AUG-CC-PVTZ AUX)
    Blend: AUG-CC-PVTZ-RI + DEF2-QZVPP-RI
	 Reference Energy          =     -76.0604666057131311 [Eh]
	 Singles Energy            =      -0.0000000000000000 [Eh]
	 Same-Spin Energy          =      -0.0684435300852888 [Eh]
	 Opposite-Spin Energy      =      -0.2157331576764790 [Eh]
	 Correlation Energy        =      -0.2841766877617679 [Eh]
	 Total Energy              =     -76.3446432934749026 [Eh]

	 ================> DF-SCS-MP2 Energies <==================
	-----------------------------------------------------------
	 SCS Same-Spin Scale       =       0.3333333333333333 [-]
	 SCS Opposite-Spin Scale   =       1.2000000000000000 [-]
	 SCS Same-Spin Energy      =      -0.0228145100284296 [Eh]
	 SCS Opposite-Spin Energy  =      -0.2588797892117748 [Eh]
	 SCS Correlation Energy    =      -0.2816942992402044 [Eh]
	 SCS Total Energy          =     -76.3421609049533316 [Eh]
	-----------------------------------------------------------

*** Psi4 exiting successfully. Buy a developer a beer!
