                               Psi4 1.9 release

  ==> Input File <==

--------------------------------------------------------------------------
MEMORY 60 GB

molecule dimer {
1 1
K      0.000000     0.000000     0.000000
--
0 1
O      2.654630     0.002171     0.000579
H      3.250531     0.754762     0.000935
H      3.242121    -0.756990     0.000312
O     -0.007276     2.651700     0.006090
H     -0.758553     3.248594     0.007697
H      0.751349     3.239242     0.007596
O     -2.653913     0.004803    -0.000991
H     -3.249100    -0.748349    -0.001455
H     -3.242057     0.763455    -0.000838
O      0.005359    -2.651635    -0.007866
H      0.759550    -3.244853    -0.009743
H     -0.750301    -3.243005    -0.009704
O      0.002441    -0.005300     2.618395
H     -0.755182    -0.005025     3.207306
H      0.760169    -0.008050     3.207160
O      0.001289     0.006833    -2.618434
H     -0.756859     0.009596    -3.206659
H      0.758499     0.006565    -3.207873

units ang
no_reorient
no_com
symmetry c1
}

set {
basis        aug-cc-pVTZ
scf_type     df
}

energy("mp2", bsse_type="cp")
--------------------------------------------------------------------------

                               Psi4 1.9 release
    Molecular point group: c1
  Charge       = 0
  Multiplicity = 1
  Basis Set: AUG-CC-PVTZ
    Blend: AUG-CC-PVTZ
  Basis Set: (AUG-CC-PVTZ AUX)
    Blend: AUG-CC-PVTZ-JKFIT + DEF2-UNIVERSAL-JKFIT
  @DF-RHF Final Energy:  -456.33301409695008
    Total Energy =                       -456.3330140969500803
 Dipole X            :         -0.0542236            0.0574609            0.0032373
 Dipole Y            :         -0.1607237            0.1597159           -0.0010078
 Dipole Z            :          0.0431464           -0.0436187           -0.0004723
 Magnitude           :                                                    0.0034233
  Basis Set: (AUG-CC-PVTZ AUX)
    Blend: AUG-CC-PVTZ-RI + DEF2-QZVPP-RI
	 Reference Energy          =    -456.3330140969500803 [Eh]
	 Singles Energy            =      -0.0000000000000000 [Eh]
	 Same-Spin Energy          =      -0.4134927921880757 [Eh]
	 Opposite-Spin Energy      =      -1.2992849134614297 [Eh]
	 Correlation Energy        =      -1.7127777056495055 [Eh]
	 Total Energy              =    -458.0457918025995809 [Eh]
	 SCS Total Energy          =    -458.0299869238331780 [Eh]
                               Psi4 1.9 release
    Molecular point group: c1
  Multiplicity = 1
  Basis Set: AUG-CC-PVTZ
    Blend: AUG-CC-PVTZ
  Basis Set: (AUG-CC-PVTZ AUX)
    Blend: AUG-CC-PVTZ-JKFIT + DEF2-UNIVERSAL-JKFIT
  @DF-RHF Final Energy:  -599.01751768048177
    Total Energy =                       -599.0175176804817738
  Basis Set: (AUG-CC-PVTZ AUX)
	 Singles Energy            =      -0.0000000000000000 [Eh]
	 Same-Spin Energy          =      -0.0402203014507943 [Eh]
	 Opposite-Spin Energy      =      -0.0992399355708073 [Eh]
	 Correlation Energy        =      -0.1394602370216016 [Eh]
	 Total Energy              =    -599.1569779175033545 [Eh]
	 SCS Total Energy          =    -599.1500123703169720 [Eh]
                               Psi4 1.9 release
    Molecular point group: c1

    Geometry (in Bohr), charge = 1, multiplicity = 1:

       Center              X                  Y                   Z               Mass
    ------------   -----------------  -----------------  -----------------  -----------------
         K            0.000000000000     0.000000000000     0.000000000000    38.963706486400
         O            5.016523664424     0.004102595418     0.001094151427    15.994914619570
         H            6.142613352311     1.426293469903     0.001766893927     1.007825032230
         H            6.126720755595    -1.430503779710     0.000589594551     1.007825032230
         O           -0.013749647289     5.010986766877     0.011508432104    15.994914619570
         H           -1.433457421644     6.138952952806     0.014545221988     1.007825032230
         H            1.419843834637     6.121280234080     0.014354359649     1.007825032230
         O           -5.015168730792     0.009076354581    -0.001872718590    15.994914619570
         H           -6.139909154225    -1.414174656260    -0.002749551513     1.007825032230
         H           -6.126599813123     1.442720859111    -0.001583590493     1.007825032230
         O            0.010127042306    -5.010863934678    -0.014864585703    15.994914619570
         H            1.435341478591    -6.131883487370    -0.018411601640     1.007825032230
         H           -1.417863401657    -6.128391273490    -0.018337902321     1.007825032230
         O            0.004612821472    -0.010015548465     4.948049438268    15.994914619570
         H           -1.427087154875    -0.009495873780     6.060929940538     1.007825032230
         H            1.436511219063    -0.015212295310     6.060654040523     1.007825032230
         O            0.002435856976     0.012912498615    -4.948123137587    15.994914619570
         H           -1.430256225588     0.018133811900    -6.059707287734     1.007825032230
         H            1.433355376434     0.012406052014    -6.062001415251     1.007825032230

  Charge       = 1
  Multiplicity = 1
  Basis Set: AUG-CC-PVTZ
    Blend: AUG-CC-PVTZ
  Basis Set: (AUG-CC-PVTZ AUX)
    Blend: AUG-CC-PVTZ-JKFIT + DEF2-UNIVERSAL-JKFIT

    Orbital Energies [Eh]
    ---------------------

    Doubly Occupied:

       1A   -133.532224     2A    -20.698145     3A    -20.698083
       4A    -20.691154     5A    -20.691062     6A    -20.685119
       7A    -20.685104     8A    -14.491531     9A    -11.521261
      10A    -11.521218    11A    -11.521173    12A     -1.759523
      13A     -1.486718    14A     -1.486300    15A     -1.480175
      16A     -1.479738    17A     -1.474268    18A     -1.473754
      19A     -0.974156    20A     -0.973035    21A     -0.972587
      22A     -0.848786    23A     -0.847796    24A     -0.841266
      25A     -0.840782    26A     -0.836442    27A     -0.836094
      28A     -0.731877    29A     -0.723880    30A     -0.719193
      31A     -0.717211    32A     -0.712915    33A     -0.705827
      34A     -0.645228    35A     -0.644877    36A     -0.641457
      37A     -0.637487    38A     -0.632063    39A     -0.629277

  @DF-RHF Final Energy: -1055.48504276579229

   => Energetics <=

    Nuclear Repulsion Energy =            465.5491648672594920
    One-Electron Energy =               -2375.0908374607179212
    Two-Electron Energy =                 854.0566298276660291
    Total Energy =                      -1055.4850427657922864
 Dipole X            :         -0.0542165            0.0574609            0.0032444
 Dipole Y            :         -0.1597532            0.1597159           -0.0000374
 Dipole Z            :          0.0429211           -0.0436187           -0.0006975
 Magnitude           :                                                    0.0033187
  Basis Set: (AUG-CC-PVTZ AUX)
    Blend: AUG-CC-PVTZ-RI + DEF2-QZVPP-RI
	 Reference Energy          =   -1055.4850427657922864 [Eh]
	 Singles Energy            =      -0.0000000000000000 [Eh]
	 Same-Spin Energy          =      -0.4577679948564645 [Eh]
	 Opposite-Spin Energy      =      -1.3964595714475458 [Eh]
	 Correlation Energy        =      -1.8542275663040104 [Eh]
	 Total Energy              =   -1057.3392703320962482 [Eh]

	 ================> DF-SCS-MP2 Energies <==================
	-----------------------------------------------------------
	 SCS Same-Spin Scale       =       0.3333333333333333 [-]
	 SCS Opposite-Spin Scale   =       1.2000000000000000 [-]
	 SCS Same-Spin Energy      =      -0.1525893316188215 [Eh]
	 SCS Opposite-Spin Energy  =      -1.6757514857370550 [Eh]
	 SCS Correlation Energy    =      -1.8283408173558766 [Eh]
	 SCS Total Energy          =   -1057.3133835831481520 [Eh]
	-----------------------------------------------------------

*** Psi4 exiting successfully. Buy a developer a beer!
