                               Psi4 1.9.1 release

  ==> Input File <==

--------------------------------------------------------------------------
MEMORY 60 GB

molecule dimer {
1 1
K          0.000000     0.000000     0.000000
O          2.654630     0.002171     0.000579
H          3.250531     0.754762     0.000935
H          3.242121    -0.756990     0.000312
O         -0.007276     2.651700     0.006090
H         -0.758553     3.248594     0.007697
H          0.751349     3.239242     0.007596
O         -2.653913     0.004803    -0.000991
H         -3.249100    -0.748349    -0.001455
H         -3.242057     0.763455    -0.000838
O          0.005359    -2.651635    -0.007866
H          0.759550    -3.244853    -0.009743
H         -0.750301    -3.243005    -0.009704
O          0.002441    -0.005300     2.618395
H         -0.755182    -0.005025     3.207306
H          0.760169    -0.008050     3.207160
O          0.001289     0.006833    -2.618434
H         -0.756859     0.009596    -3.206659
H          0.758499     0.006565    -3.207873

units ang
no_reorient
no_com
symmetry c1
}

set {
basis        aug-cc-pVTZ
scf_type     df
}

energy("mp2")
--------------------------------------------------------------------------

    Molecular point group: c1

    Geometry (in Angstrom), charge = 1, multiplicity = 1:

       Center              X                  Y                   Z               Mass
    ------------   -----------------  -----------------  -----------------  -----------------
         K            0.000000000000     0.000000000000     0.000000000000    38.963706486400
         O            2.654630000000     0.002171000000     0.000579000000    15.994914619570
         H            3.250531000000     0.754762000000     0.000935000000     1.007825032230
         H            3.242121000000    -0.756990000000     0.000312000000     1.007825032230
         O           -0.007276000000     2.651700000000     0.006090000000    15.994914619570
         H           -0.758553000000     3.248594000000     0.007697000000     1.007825032230
         H            0.751349000000     3.239242000000     0.007596000000     1.007825032230
         O           -2.653913000000     0.004803000000    -0.000991000000    15.994914619570
         H           -3.249100000000    -0.748349000000    -0.001455000000     1.007825032230
         H           -3.242057000000     0.763455000000    -0.000838000000     1.007825032230
         O            0.005359000000    -2.651635000000    -0.007866000000    15.994914619570
         H            0.759550000000    -3.244853000000    -0.009743000000     1.007825032230
         H           -0.750301000000    -3.243005000000    -0.009704000000     1.007825032230
         O            0.002441000000    -0.005300000000     2.618395000000    15.994914619570
         H           -0.755182000000    -0.005025000000     3.207306000000     1.007825032230
         H            0.760169000000    -0.008050000000     3.207160000000     1.007825032230
         O            0.001289000000     0.006833000000    -2.618434000000    15.994914619570
         H           -0.756859000000     0.009596000000    -3.206659000000     1.007825032230
         H            0.758499000000     0.006565000000    -3.207873000000     1.007825032230

  Charge       = 1
  Multiplicity = 1
  Basis Set: AUG-CC-PVTZ
    Blend: AUG-CC-PVTZ
  Basis Set: (AUG-CC-PVTZ AUX)
    Blend: AUG-CC-PVTZ-JKFIT + DEF2-UNIVERSAL-JKFIT

    Orbital Energies [Eh]
    ---------------------

    Doubly Occupied:

       1A   -133.532224     2A    -20.698145     3A    -20.698083
       4A    -20.691154     5A    -20.691062     6A    -20.685119
       7A    -20.685104     8A    -14.491531     9A    -11.521261
      10A    -11.521218    11A    -11.521173    12A     -1.759523
      13A     -1.486718    14A     -1.486300    15A     -1.480175
      16A     -1.479738    17A     -1.474268    18A     -1.473754
      19A     -0.974156    20A     -0.973035    21A     -0.972587
      22A     -0.848786    23A     -0.847796    24A     -0.841266
      25A     -0.840782    26A     -0.836442    27A     -0.836094
      28A     -0.731877    29A     -0.723880    30A     -0.719193
      31A     -0.717211    32A     -0.712915    33A     -0.705827
      34A     -0.645228    35A     -0.644877    36A     -0.641457
      37A     -0.637487    38A     -0.632063    39A     -0.629277

  @DF-RHF Final Energy: -1055.48504276643280

   => Energetics <=

    Nuclear Repulsion Energy =            465.5491648672594920
    One-Electron Energy =               -2375.0908374611249201
    Two-Electron Energy =                 854.0566298274325163
    Total Energy =                      -1055.4850427664327981
 Dipole X            :         -0.0542165            0.0574609            0.0032444
 Dipole Y            :         -0.1597532            0.1597159           -0.0000374
 Dipole Z            :          0.0429211           -0.0436187           -0.0006975
 Magnitude           :                                                    0.0033187
  Basis Set: (AUG-CC-PVTZ AUX)
    Blend: AUG-CC-PVTZ-RI + DEF2-QZVPP-RI
	 Reference Energy          =   -1055.4850427664327981 [Eh]
	 Singles Energy            =      -0.0000000000000000 [Eh]
	 Same-Spin Energy          =      -0.4577679948560629 [Eh]
	 Opposite-Spin Energy      =      -1.3964595714460533 [Eh]
	 Correlation Energy        =      -1.8542275663021162 [Eh]
	 Total Energy              =   -1057.3392703327349409 [Eh]

	 ================> DF-SCS-MP2 Energies <==================
	-----------------------------------------------------------
	 SCS Same-Spin Scale       =       0.3333333333333333 [-]
	 SCS Opposite-Spin Scale   =       1.2000000000000000 [-]
	 SCS Same-Spin Energy      =      -0.1525893316186876 [Eh]
	 SCS Opposite-Spin Energy  =      -1.6757514857352638 [Eh]
	 SCS Correlation Energy    =      -1.8283408173539515 [Eh]
	 SCS Total Energy          =   -1057.3133835837868446 [Eh]
	-----------------------------------------------------------

*** Psi4 exiting successfully. Buy a developer a beer!
