                               Psi4 1.9.1 release

  ==> Input File <==

--------------------------------------------------------------------------
MEMORY 60 GB

molecule dimer {
-1 1
F          0.000000     0.000000     0.000000
Gh(O)      2.567370    -0.022237     0.000450
Gh(H)      1.570237    -0.051088     0.000135
Gh(H)      2.745287     0.918427     0.000641
Gh(O)     -1.266676     2.233096     0.000390
Gh(H)     -0.742110     1.384616     0.000221
Gh(H)     -2.169908     1.915777     0.000517
Gh(O)     -1.297827    -2.215389     0.000764
Gh(H)     -0.826560    -1.336207    -0.000029
Gh(H)     -0.570574    -2.837902     0.010786

units ang
no_reorient
no_com
symmetry c1
}

set {
basis        aug-cc-pVTZ
scf_type     df
}

energy("mp2")
--------------------------------------------------------------------------

    Molecular point group: c1

    Geometry (in Angstrom), charge = -1, multiplicity = 1:

       Center              X                  Y                   Z               Mass
    ------------   -----------------  -----------------  -----------------  -----------------
         F            0.000000000000     0.000000000000     0.000000000000    18.998403162730
      Gh(O)           2.567370000000    -0.022237000000     0.000450000000    15.994914619570
      Gh(H)           1.570237000000    -0.051088000000     0.000135000000     1.007825032230
      Gh(H)           2.745287000000     0.918427000000     0.000641000000     1.007825032230
      Gh(O)          -1.266676000000     2.233096000000     0.000390000000    15.994914619570
      Gh(H)          -0.742110000000     1.384616000000     0.000221000000     1.007825032230
      Gh(H)          -2.169908000000     1.915777000000     0.000517000000     1.007825032230
      Gh(O)          -1.297827000000    -2.215389000000     0.000764000000    15.994914619570
      Gh(H)          -0.826560000000    -1.336207000000    -0.000029000000     1.007825032230
      Gh(H)          -0.570574000000    -2.837902000000     0.010786000000     1.007825032230

  Charge       = -1
  Multiplicity = 1
  Basis Set: AUG-CC-PVTZ
    Blend: AUG-CC-PVTZ
  Basis Set: (AUG-CC-PVTZ AUX)
    Blend: AUG-CC-PVTZ-JKFIT

    Orbital Energies [Eh]
    ---------------------

    Doubly Occupied:

       1A    -25.833730     2A     -1.075928     3A     -0.180952
       4A     -0.180952     5A     -0.180862

  @DF-RHF Final Energy:   -99.45104947402865

   => Energetics <=

    Nuclear Repulsion Energy =              0.0000000000000000
    One-Electron Energy =                -143.9972509008805162
    Two-Electron Energy =                  44.5462014268518729
    Total Energy =                        -99.4510494740286504
 Dipole X            :          0.0000001            0.0000000            0.0000001
 Dipole Y            :         -0.0000006            0.0000000           -0.0000006
 Dipole Z            :          0.0000072            0.0000000            0.0000072
 Magnitude           :                                                    0.0000073
  Basis Set: (AUG-CC-PVTZ AUX)
    Blend: AUG-CC-PVTZ-RI
	 Reference Energy          =     -99.4510494740286504 [Eh]
	 Singles Energy            =      -0.0000000000000000 [Eh]
	 Same-Spin Energy          =      -0.0819657962746490 [Eh]
	 Opposite-Spin Energy      =      -0.2299877591871656 [Eh]
	 Correlation Energy        =      -0.3119535554618146 [Eh]
	 Total Energy              =     -99.7630030294904628 [Eh]

	 ================> DF-SCS-MP2 Energies <==================
	-----------------------------------------------------------
	 SCS Same-Spin Scale       =       0.3333333333333333 [-]
	 SCS Opposite-Spin Scale   =       1.2000000000000000 [-]
	 SCS Same-Spin Energy      =      -0.0273219320915497 [Eh]
	 SCS Opposite-Spin Energy  =      -0.2759853110245987 [Eh]
	 SCS Correlation Energy    =      -0.3033072431161484 [Eh]
	 SCS Total Energy          =     -99.7543567171448018 [Eh]
	-----------------------------------------------------------

*** Psi4 exiting successfully. Buy a developer a beer!
