                               Psi4 1.9 release

  ==> Input File <==

--------------------------------------------------------------------------
MEMORY 60 GB

molecule dimer {
-1 1
F      0.000000     0.000000     0.000000
--
0 1
O      2.567370    -0.022237     0.000450
H      1.570237    -0.051088     0.000135
H      2.745287     0.918427     0.000641
O     -1.266676     2.233096     0.000390
H     -0.742110     1.384616     0.000221
H     -2.169908     1.915777     0.000517
O     -1.297827    -2.215389     0.000764
H     -0.826560    -1.336207    -0.000029
H     -0.570574    -2.837902     0.010786

units ang
no_reorient
no_com
symmetry c1
}

set {
basis        aug-cc-pVTZ
scf_type     df
}

energy("mp2", bsse_type="cp")
--------------------------------------------------------------------------

                               Psi4 1.9 release
    Molecular point group: c1
  Charge       = 0
  Multiplicity = 1
  Basis Set: AUG-CC-PVTZ
    Blend: AUG-CC-PVTZ
  Basis Set: (AUG-CC-PVTZ AUX)
    Blend: AUG-CC-PVTZ-JKFIT
  @DF-RHF Final Energy:  -228.16821956077112
    Total Energy =                       -228.1682195607711208
 Dipole X            :         -0.0548146            0.0553841            0.0005695
 Dipole Y            :          0.0822220           -0.0805345            0.0016875
 Dipole Z            :         -0.0414696            0.0474378            0.0059682
 Magnitude           :                                                    0.0062282
  Basis Set: (AUG-CC-PVTZ AUX)
    Blend: AUG-CC-PVTZ-RI
	 Reference Energy          =    -228.1682195607711208 [Eh]
	 Singles Energy            =      -0.0000000000000000 [Eh]
	 Same-Spin Energy          =      -0.2067540355945157 [Eh]
	 Opposite-Spin Energy      =      -0.6522903775114104 [Eh]
	 Correlation Energy        =      -0.8590444131059261 [Eh]
	 Total Energy              =    -229.0272639738770408 [Eh]
	 SCS Total Energy          =    -229.0198860256496403 [Eh]
                               Psi4 1.9 release
    Molecular point group: c1
  Multiplicity = 1
  Basis Set: AUG-CC-PVTZ
    Blend: AUG-CC-PVTZ
  Basis Set: (AUG-CC-PVTZ AUX)
    Blend: AUG-CC-PVTZ-JKFIT
  @DF-RHF Final Energy:   -99.45104947401842
    Total Energy =                        -99.4510494740184186
  Basis Set: (AUG-CC-PVTZ AUX)
	 Singles Energy            =      -0.0000000000000000 [Eh]
	 Same-Spin Energy          =      -0.0819657962746931 [Eh]
	 Opposite-Spin Energy      =      -0.2299877591872313 [Eh]
	 Correlation Energy        =      -0.3119535554619244 [Eh]
	 Total Energy              =     -99.7630030294803447 [Eh]
	 SCS Total Energy          =     -99.7543567171346552 [Eh]
                               Psi4 1.9 release
    Molecular point group: c1

    Geometry (in Bohr), charge = -1, multiplicity = 1:

       Center              X                  Y                   Z               Mass
    ------------   -----------------  -----------------  -----------------  -----------------
         F            0.000000000000     0.000000000000     0.000000000000    18.998403162730
         O            4.851626162717    -0.042021839852     0.000850376756    15.994914619570
         H            2.967317882061    -0.096542328297     0.000255113027     1.007825032230
         H            5.187840565780     1.735575496226     0.001211314446     1.007825032230
         O           -2.393670729690     4.219939851855     0.000736993189    15.994914619570
         H           -1.402384654964     2.616545028927     0.000417629474     1.007825032230
         H           -4.100531837440     3.620293847451     0.000976988407     1.007825032230
         O           -2.452537588225    -4.186478471352     0.001443750760    15.994914619570
         H           -1.561972026258    -2.525065276920    -0.000054802058     1.007825032230
         H           -1.078228594307    -5.362857550889     0.020382585989     1.007825032230

  Charge       = -1
  Multiplicity = 1
  Basis Set: AUG-CC-PVTZ
    Blend: AUG-CC-PVTZ
  Basis Set: (AUG-CC-PVTZ AUX)
    Blend: AUG-CC-PVTZ-JKFIT

    Orbital Energies [Eh]
    ---------------------

    Doubly Occupied:

       1A    -25.981653     2A    -20.370697     3A    -20.370680
       4A    -20.370674     5A     -1.259476     6A     -1.153657
       7A     -1.153646     8A     -1.148620     9A     -0.529200
      10A     -0.529154    11A     -0.508254    12A     -0.418788
      13A     -0.418758    14A     -0.396884    15A     -0.352368
      16A     -0.322579    17A     -0.322530    18A     -0.317922
      19A     -0.317911    20A     -0.311714

  @DF-RHF Final Energy:  -327.72424225958304

   => Energetics <=

    Nuclear Repulsion Energy =            122.6760051363759487
    One-Electron Energy =                -707.6901611429904051
    Two-Electron Energy =                 257.2899137470314486
    Total Energy =                       -327.7242422595830362
 Dipole X            :         -0.0556053            0.0553841           -0.0002212
 Dipole Y            :          0.0830259           -0.0805345            0.0024915
 Dipole Z            :         -0.0424273            0.0474378            0.0050105
 Magnitude           :                                                    0.0056002
  Basis Set: (AUG-CC-PVTZ AUX)
    Blend: AUG-CC-PVTZ-RI
	 Reference Energy          =    -327.7242422595830362 [Eh]
	 Singles Energy            =      -0.0000000000000000 [Eh]
	 Same-Spin Energy          =      -0.2941455998308772 [Eh]
	 Opposite-Spin Energy      =      -0.8806622566574821 [Eh]
	 Correlation Energy        =      -1.1748078564883593 [Eh]
	 Total Energy              =    -328.8990501160714075 [Eh]

	 ================> DF-SCS-MP2 Energies <==================
	-----------------------------------------------------------
	 SCS Same-Spin Scale       =       0.3333333333333333 [-]
	 SCS Opposite-Spin Scale   =       1.2000000000000000 [-]
	 SCS Same-Spin Energy      =      -0.0980485332769591 [Eh]
	 SCS Opposite-Spin Energy  =      -1.0567947079889786 [Eh]
	 SCS Correlation Energy    =      -1.1548432412659377 [Eh]
	 SCS Total Energy          =    -328.8790855008489871 [Eh]
	-----------------------------------------------------------

*** Psi4 exiting successfully. Buy a developer a beer!
