                               Psi4 1.9.1 release

  ==> Input File <==

--------------------------------------------------------------------------
MEMORY 60 GB

molecule dimer {
-1 1
F          0.000000     0.000000     0.000000
O          2.567370    -0.022237     0.000450
H          1.570237    -0.051088     0.000135
H          2.745287     0.918427     0.000641
O         -1.266676     2.233096     0.000390
H         -0.742110     1.384616     0.000221
H         -2.169908     1.915777     0.000517
O         -1.297827    -2.215389     0.000764
H         -0.826560    -1.336207    -0.000029
H         -0.570574    -2.837902     0.010786

units ang
no_reorient
no_com
symmetry c1
}

set {
basis        aug-cc-pVTZ
scf_type     df
}

energy("mp2")
--------------------------------------------------------------------------

    Molecular point group: c1

    Geometry (in Angstrom), charge = -1, multiplicity = 1:

       Center              X                  Y                   Z               Mass
    ------------   -----------------  -----------------  -----------------  -----------------
         F            0.000000000000     0.000000000000     0.000000000000    18.998403162730
         O            2.567370000000    -0.022237000000     0.000450000000    15.994914619570
         H            1.570237000000    -0.051088000000     0.000135000000     1.007825032230
         H            2.745287000000     0.918427000000     0.000641000000     1.007825032230
         O           -1.266676000000     2.233096000000     0.000390000000    15.994914619570
         H           -0.742110000000     1.384616000000     0.000221000000     1.007825032230
         H           -2.169908000000     1.915777000000     0.000517000000     1.007825032230
         O           -1.297827000000    -2.215389000000     0.000764000000    15.994914619570
         H           -0.826560000000    -1.336207000000    -0.000029000000     1.007825032230
         H           -0.570574000000    -2.837902000000     0.010786000000     1.007825032230

  Charge       = -1
  Multiplicity = 1
  Basis Set: AUG-CC-PVTZ
    Blend: AUG-CC-PVTZ
  Basis Set: (AUG-CC-PVTZ AUX)
    Blend: AUG-CC-PVTZ-JKFIT

    Orbital Energies [Eh]
    ---------------------

    Doubly Occupied:

       1A    -25.981653     2A    -20.370697     3A    -20.370680
       4A    -20.370674     5A     -1.259476     6A     -1.153657
       7A     -1.153646     8A     -1.148620     9A     -0.529200
      10A     -0.529154    11A     -0.508254    12A     -0.418788
      13A     -0.418758    14A     -0.396884    15A     -0.352368
      16A     -0.322579    17A     -0.322530    18A     -0.317922
      19A     -0.317911    20A     -0.311714

  @DF-RHF Final Energy:  -327.72424225953563

   => Energetics <=

    Nuclear Repulsion Energy =            122.6760051363759487
    One-Electron Energy =                -707.6901611429856302
    Two-Electron Energy =                 257.2899137470740811
    Total Energy =                       -327.7242422595356288
 Dipole X            :         -0.0556053            0.0553841           -0.0002212
 Dipole Y            :          0.0830259           -0.0805345            0.0024915
 Dipole Z            :         -0.0424273            0.0474378            0.0050105
 Magnitude           :                                                    0.0056002
  Basis Set: (AUG-CC-PVTZ AUX)
    Blend: AUG-CC-PVTZ-RI
	 Reference Energy          =    -327.7242422595356288 [Eh]
	 Singles Energy            =      -0.0000000000000000 [Eh]
	 Same-Spin Energy          =      -0.2941455998310092 [Eh]
	 Opposite-Spin Energy      =      -0.8806622566583291 [Eh]
	 Correlation Energy        =      -1.1748078564893383 [Eh]
	 Total Energy              =    -328.8990501160249664 [Eh]

	 ================> DF-SCS-MP2 Energies <==================
	-----------------------------------------------------------
	 SCS Same-Spin Scale       =       0.3333333333333333 [-]
	 SCS Opposite-Spin Scale   =       1.2000000000000000 [-]
	 SCS Same-Spin Energy      =      -0.0980485332770031 [Eh]
	 SCS Opposite-Spin Energy  =      -1.0567947079899949 [Eh]
	 SCS Correlation Energy    =      -1.1548432412669980 [Eh]
	 SCS Total Energy          =    -328.8790855008026028 [Eh]
	-----------------------------------------------------------

*** Psi4 exiting successfully. Buy a developer a beer!
