                               Psi4 1.9.1 release

  ==> Input File <==

--------------------------------------------------------------------------
MEMORY 60 GB

molecule dimer {
0 1
Gh(F)      0.000000     0.000000     0.000000
O          2.567370    -0.022237     0.000450
H          1.570237    -0.051088     0.000135
H          2.745287     0.918427     0.000641
Gh(O)     -1.266676     2.233096     0.000390
Gh(H)     -0.742110     1.384616     0.000221
Gh(H)     -2.169908     1.915777     0.000517
Gh(O)     -1.297827    -2.215389     0.000764
Gh(H)     -0.826560    -1.336207    -0.000029
Gh(H)     -0.570574    -2.837902     0.010786

units ang
no_reorient
no_com
symmetry c1
}

set {
basis        aug-cc-pVTZ
scf_type     df
}

energy("mp2")
--------------------------------------------------------------------------

    Molecular point group: c1

    Geometry (in Angstrom), charge = 0, multiplicity = 1:

       Center              X                  Y                   Z               Mass
    ------------   -----------------  -----------------  -----------------  -----------------
      Gh(F)           0.000000000000     0.000000000000     0.000000000000    18.998403162730
         O            2.567370000000    -0.022237000000     0.000450000000    15.994914619570
         H            1.570237000000    -0.051088000000     0.000135000000     1.007825032230
         H            2.745287000000     0.918427000000     0.000641000000     1.007825032230
      Gh(O)          -1.266676000000     2.233096000000     0.000390000000    15.994914619570
      Gh(H)          -0.742110000000     1.384616000000     0.000221000000     1.007825032230
      Gh(H)          -2.169908000000     1.915777000000     0.000517000000     1.007825032230
      Gh(O)          -1.297827000000    -2.215389000000     0.000764000000    15.994914619570
      Gh(H)          -0.826560000000    -1.336207000000    -0.000029000000     1.007825032230
      Gh(H)          -0.570574000000    -2.837902000000     0.010786000000     1.007825032230

  Charge       = 0
  Multiplicity = 1
  Basis Set: AUG-CC-PVTZ
    Blend: AUG-CC-PVTZ
  Basis Set: (AUG-CC-PVTZ AUX)
    Blend: AUG-CC-PVTZ-JKFIT

    Orbital Energies [Eh]
    ---------------------

    Doubly Occupied:

       1A    -20.571578     2A     -1.345233     3A     -0.702973
       4A     -0.585045     5A     -0.509384

  @DF-RHF Final Energy:   -76.05769861172118

   => Energetics <=

    Nuclear Repulsion Energy =              9.0132375809885907
    One-Electron Energy =                -122.7134423235294349
    Two-Electron Energy =                  37.6425061308196831
    Total Energy =                        -76.0576986117211646
 Dipole X            :        -47.4978065           46.9681677           -0.5296388
 Dipole Y            :         -0.7025513            1.3028584            0.6003071
 Dipole Z            :         -0.0083481            0.0082694           -0.0000787
 Magnitude           :                                                    0.8005535
  Basis Set: (AUG-CC-PVTZ AUX)
    Blend: AUG-CC-PVTZ-RI
	 Reference Energy          =     -76.0576986117211788 [Eh]
	 Singles Energy            =      -0.0000000000000000 [Eh]
	 Same-Spin Energy          =      -0.0687921686479393 [Eh]
	 Opposite-Spin Energy      =      -0.2171991486159335 [Eh]
	 Correlation Energy        =      -0.2859913172638728 [Eh]
	 Total Energy              =     -76.3436899289850572 [Eh]

	 ================> DF-SCS-MP2 Energies <==================
	-----------------------------------------------------------
	 SCS Same-Spin Scale       =       0.3333333333333333 [-]
	 SCS Opposite-Spin Scale   =       1.2000000000000000 [-]
	 SCS Same-Spin Energy      =      -0.0229307228826464 [Eh]
	 SCS Opposite-Spin Energy  =      -0.2606389783391203 [Eh]
	 SCS Correlation Energy    =      -0.2835697012217667 [Eh]
	 SCS Total Energy          =     -76.3412683129429439 [Eh]
	-----------------------------------------------------------

*** Psi4 exiting successfully. Buy a developer a beer!
