                               Psi4 1.9.1 release

  ==> Input File <==

--------------------------------------------------------------------------
MEMORY 60 GB

molecule dimer {
0 1
Gh(F)      0.000000     0.000000     0.000000
Gh(O)      2.567370    -0.022237     0.000450
Gh(H)      1.570237    -0.051088     0.000135
Gh(H)      2.745287     0.918427     0.000641
O         -1.266676     2.233096     0.000390
H         -0.742110     1.384616     0.000221
H         -2.169908     1.915777     0.000517
Gh(O)     -1.297827    -2.215389     0.000764
Gh(H)     -0.826560    -1.336207    -0.000029
Gh(H)     -0.570574    -2.837902     0.010786

units ang
no_reorient
no_com
symmetry c1
}

set {
basis        aug-cc-pVTZ
scf_type     df
}

energy("mp2")
--------------------------------------------------------------------------

    Molecular point group: c1

    Geometry (in Angstrom), charge = 0, multiplicity = 1:

       Center              X                  Y                   Z               Mass
    ------------   -----------------  -----------------  -----------------  -----------------
      Gh(F)           0.000000000000     0.000000000000     0.000000000000    18.998403162730
      Gh(O)           2.567370000000    -0.022237000000     0.000450000000    15.994914619570
      Gh(H)           1.570237000000    -0.051088000000     0.000135000000     1.007825032230
      Gh(H)           2.745287000000     0.918427000000     0.000641000000     1.007825032230
         O           -1.266676000000     2.233096000000     0.000390000000    15.994914619570
         H           -0.742110000000     1.384616000000     0.000221000000     1.007825032230
         H           -2.169908000000     1.915777000000     0.000517000000     1.007825032230
      Gh(O)          -1.297827000000    -2.215389000000     0.000764000000    15.994914619570
      Gh(H)          -0.826560000000    -1.336207000000    -0.000029000000     1.007825032230
      Gh(H)          -0.570574000000    -2.837902000000     0.010786000000     1.007825032230

  Charge       = 0
  Multiplicity = 1
  Basis Set: AUG-CC-PVTZ
    Blend: AUG-CC-PVTZ
  Basis Set: (AUG-CC-PVTZ AUX)
    Blend: AUG-CC-PVTZ-JKFIT

    Orbital Energies [Eh]
    ---------------------

    Doubly Occupied:

       1A    -20.571578     2A     -1.345232     3A     -0.702975
       4A     -0.585043     5A     -0.509384

  @DF-RHF Final Energy:   -76.05769950558395

   => Energetics <=

    Nuclear Repulsion Energy =              9.0132360747660147
    One-Electron Energy =                -122.7134443442082556
    Two-Electron Energy =                  37.6425087638582809
    Total Energy =                        -76.0576995055839689
 Dipole X            :         24.3981209          -24.6522823           -0.2541614
 Dipole Y            :        -40.7554847           39.9963577           -0.7591270
 Dipole Z            :         -0.0073159            0.0072906           -0.0000253
 Magnitude           :                                                    0.8005447
  Basis Set: (AUG-CC-PVTZ AUX)
    Blend: AUG-CC-PVTZ-RI
	 Reference Energy          =     -76.0576995055839546 [Eh]
	 Singles Energy            =      -0.0000000000000000 [Eh]
	 Same-Spin Energy          =      -0.0687921415347373 [Eh]
	 Opposite-Spin Energy      =      -0.2171993172479632 [Eh]
	 Correlation Energy        =      -0.2859914587827005 [Eh]
	 Total Energy              =     -76.3436909643666581 [Eh]

	 ================> DF-SCS-MP2 Energies <==================
	-----------------------------------------------------------
	 SCS Same-Spin Scale       =       0.3333333333333333 [-]
	 SCS Opposite-Spin Scale   =       1.2000000000000000 [-]
	 SCS Same-Spin Energy      =      -0.0229307138449124 [Eh]
	 SCS Opposite-Spin Energy  =      -0.2606391806975559 [Eh]
	 SCS Correlation Energy    =      -0.2835698945424683 [Eh]
	 SCS Total Energy          =     -76.3412694001264214 [Eh]
	-----------------------------------------------------------

*** Psi4 exiting successfully. Buy a developer a beer!
