                               Psi4 1.9 release

  ==> Input File <==

--------------------------------------------------------------------------
MEMORY 60 GB

molecule dimer {
-1 1
F      0.000000     0.000000     0.000000
--
0 1
O     -0.076568     2.088972    -1.641225
H      0.047756     1.249316    -1.145998
H     -0.126727     2.709141    -0.907183
O     -2.239604    -0.106367    -1.427194
H     -1.406974    -0.227633    -0.919555
H     -2.064696     0.749154    -1.831495
O      0.081221     2.231177     1.441604
H      0.211603     1.403872     0.927501
H     -0.768686     2.040619     1.850610
O     -2.079479     0.031941     1.654927
H     -1.240857    -0.075667     1.154159
H     -2.704407     0.077462     0.924594

units ang
no_reorient
no_com
symmetry c1
}

set {
basis        aug-cc-pVTZ
scf_type     df
}

energy("mp2", bsse_type="cp")
--------------------------------------------------------------------------

                               Psi4 1.9 release
    Molecular point group: c1
  Charge       = 0
  Multiplicity = 1
  Basis Set: AUG-CC-PVTZ
    Blend: AUG-CC-PVTZ
  Basis Set: (AUG-CC-PVTZ AUX)
    Blend: AUG-CC-PVTZ-JKFIT
  @DF-RHF Final Energy:  -304.22477704136816
    Total Energy =                       -304.2247770413681565
 Dipole X            :         80.6586346          -80.4426705            0.2159641
 Dipole Y            :        -79.3756707           79.1644976           -0.2111731
 Dipole Z            :         -0.5259684            0.5244538           -0.0015146
 Magnitude           :                                                    0.3020544
  Basis Set: (AUG-CC-PVTZ AUX)
    Blend: AUG-CC-PVTZ-RI
	 Reference Energy          =    -304.2247770413681565 [Eh]
	 Singles Energy            =      -0.0000000000000000 [Eh]
	 Same-Spin Energy          =      -0.2796162167408706 [Eh]
	 Opposite-Spin Energy      =      -0.8740082123672192 [Eh]
	 Correlation Energy        =      -1.1536244291080897 [Eh]
	 Total Energy              =    -305.3784014704762626 [Eh]
	 SCS Total Energy          =    -305.3667923017891326 [Eh]
                               Psi4 1.9 release
    Molecular point group: c1
  Multiplicity = 1
  Basis Set: AUG-CC-PVTZ
    Blend: AUG-CC-PVTZ
  Basis Set: (AUG-CC-PVTZ AUX)
    Blend: AUG-CC-PVTZ-JKFIT
  @DF-RHF Final Energy:   -99.45111501281981
    Total Energy =                        -99.4511150128198267
  Basis Set: (AUG-CC-PVTZ AUX)
	 Singles Energy            =      -0.0000000000000000 [Eh]
	 Same-Spin Energy          =      -0.0820771367908666 [Eh]
	 Opposite-Spin Energy      =      -0.2303562365752926 [Eh]
	 Correlation Energy        =      -0.3124333733661592 [Eh]
	 Total Energy              =     -99.7635483861859740 [Eh]
	 SCS Total Energy          =     -99.7549015423071239 [Eh]
                               Psi4 1.9 release
    Molecular point group: c1

    Geometry (in Bohr), charge = -1, multiplicity = 1:

       Center              X                  Y                   Z               Mass
    ------------   -----------------  -----------------  -----------------  -----------------
         F            0.000000000000     0.000000000000     0.000000000000    18.998403162730
         O           -0.144692549974     3.947584963750    -3.101465760255    15.994914619570
         H            0.090245760847     2.360865084152    -2.165622360322     1.007825032230
         H           -0.239479322701     5.119534525249    -1.714327415671     1.007825032230
         O           -4.232238189480    -0.201004498787    -2.697005787897    15.994914619570
         H           -2.658795525640    -0.430164027116    -1.737707107295     1.007825032230
         H           -3.901709972328     1.415695885791    -3.461023950145     1.007825032230
         O            0.153485445636     4.216313467421     2.724236741365    15.994914619570
         H            0.399871717325     2.652933595199     1.752722871088     1.007825032230
         H           -1.452606016474     3.856211036406     3.497146065034     1.007825032230
         O           -3.929645793641     0.060359742173     3.127358787626    15.994914619570
         H           -2.344879890857    -0.142989906735     2.181044415232     1.007825032230
         H           -5.110588561771     0.146381965130     1.747229437242     1.007825032230

  Charge       = -1
  Multiplicity = 1
  Basis Set: AUG-CC-PVTZ
    Blend: AUG-CC-PVTZ
  Basis Set: (AUG-CC-PVTZ AUX)
    Blend: AUG-CC-PVTZ-JKFIT

    Orbital Energies [Eh]
    ---------------------

    Doubly Occupied:

       1A    -26.000457     2A    -20.388864     3A    -20.388860
       4A    -20.388852     5A    -20.388838     6A     -1.276768
       7A     -1.178659     8A     -1.175980     9A     -1.175975
      10A     -1.168196    11A     -0.540610    12A     -0.540576
      13A     -0.532599    14A     -0.532197    15A     -0.438864
      16A     -0.438820    17A     -0.437931    18A     -0.422355
      19A     -0.352983    20A     -0.347811    21A     -0.347790
      22A     -0.336315    23A     -0.336288    24A     -0.334896
      25A     -0.333808

  @DF-RHF Final Energy:  -403.80147847622982

   => Energetics <=

    Nuclear Repulsion Energy =            208.2078911954028229
    One-Electron Energy =                -984.4081522464917953
    Two-Electron Energy =                 372.3987825748591831
    Total Energy =                       -403.8014784762298177
 Dipole X            :         81.5061577          -80.4426705            1.0634872
 Dipole Y            :        -80.2101543           79.1644976           -1.0456568
 Dipole Z            :         -0.5315172            0.5244538           -0.0070634
 Magnitude           :                                                    1.4914600
  Basis Set: (AUG-CC-PVTZ AUX)
    Blend: AUG-CC-PVTZ-RI
	 Reference Energy          =    -403.8014784762298177 [Eh]
	 Singles Energy            =      -0.0000000000000000 [Eh]
	 Same-Spin Energy          =      -0.3671513426311646 [Eh]
	 Opposite-Spin Energy      =      -1.1022446868686469 [Eh]
	 Correlation Energy        =      -1.4693960294998114 [Eh]
	 Total Energy              =    -405.2708745057296369 [Eh]

	 ================> DF-SCS-MP2 Energies <==================
	-----------------------------------------------------------
	 SCS Same-Spin Scale       =       0.3333333333333333 [-]
	 SCS Opposite-Spin Scale   =       1.2000000000000000 [-]
	 SCS Same-Spin Energy      =      -0.1223837808770548 [Eh]
	 SCS Opposite-Spin Energy  =      -1.3226936242423761 [Eh]
	 SCS Correlation Energy    =      -1.4450774051194311 [Eh]
	 SCS Total Energy          =    -405.2465558813492521 [Eh]
	-----------------------------------------------------------

*** Psi4 exiting successfully. Buy a developer a beer!
