                               Psi4 1.9.1 release

  ==> Input File <==

--------------------------------------------------------------------------
MEMORY 60 GB

molecule dimer {
-1 1
F          0.000000     0.000000     0.000000
O         -0.076568     2.088972    -1.641225
H          0.047756     1.249316    -1.145998
H         -0.126727     2.709141    -0.907183
O         -2.239604    -0.106367    -1.427194
H         -1.406974    -0.227633    -0.919555
H         -2.064696     0.749154    -1.831495
O          0.081221     2.231177     1.441604
H          0.211603     1.403872     0.927501
H         -0.768686     2.040619     1.850610
O         -2.079479     0.031941     1.654927
H         -1.240857    -0.075667     1.154159
H         -2.704407     0.077462     0.924594

units ang
no_reorient
no_com
symmetry c1
}

set {
basis        aug-cc-pVTZ
scf_type     df
}

energy("mp2")
--------------------------------------------------------------------------

    Molecular point group: c1

    Geometry (in Angstrom), charge = -1, multiplicity = 1:

       Center              X                  Y                   Z               Mass
    ------------   -----------------  -----------------  -----------------  -----------------
         F            0.000000000000     0.000000000000     0.000000000000    18.998403162730
         O           -0.076568000000     2.088972000000    -1.641225000000    15.994914619570
         H            0.047756000000     1.249316000000    -1.145998000000     1.007825032230
         H           -0.126727000000     2.709141000000    -0.907183000000     1.007825032230
         O           -2.239604000000    -0.106367000000    -1.427194000000    15.994914619570
         H           -1.406974000000    -0.227633000000    -0.919555000000     1.007825032230
         H           -2.064696000000     0.749154000000    -1.831495000000     1.007825032230
         O            0.081221000000     2.231177000000     1.441604000000    15.994914619570
         H            0.211603000000     1.403872000000     0.927501000000     1.007825032230
         H           -0.768686000000     2.040619000000     1.850610000000     1.007825032230
         O           -2.079479000000     0.031941000000     1.654927000000    15.994914619570
         H           -1.240857000000    -0.075667000000     1.154159000000     1.007825032230
         H           -2.704407000000     0.077462000000     0.924594000000     1.007825032230

  Charge       = -1
  Multiplicity = 1
  Basis Set: AUG-CC-PVTZ
    Blend: AUG-CC-PVTZ
  Basis Set: (AUG-CC-PVTZ AUX)
    Blend: AUG-CC-PVTZ-JKFIT

    Orbital Energies [Eh]
    ---------------------

    Doubly Occupied:

       1A    -26.000457     2A    -20.388864     3A    -20.388860
       4A    -20.388852     5A    -20.388838     6A     -1.276768
       7A     -1.178659     8A     -1.175980     9A     -1.175975
      10A     -1.168196    11A     -0.540610    12A     -0.540576
      13A     -0.532599    14A     -0.532197    15A     -0.438864
      16A     -0.438820    17A     -0.437931    18A     -0.422355
      19A     -0.352983    20A     -0.347811    21A     -0.347790
      22A     -0.336315    23A     -0.336288    24A     -0.334896
      25A     -0.333808

  @DF-RHF Final Energy:  -403.80147847643946

   => Energetics <=

    Nuclear Repulsion Energy =            208.2078911954028229
    One-Electron Energy =                -984.4081522466085516
    Two-Electron Energy =                 372.3987825747663010
    Total Energy =                       -403.8014784764394562
 Dipole X            :         81.5061577          -80.4426705            1.0634872
 Dipole Y            :        -80.2101543           79.1644976           -1.0456568
 Dipole Z            :         -0.5315172            0.5244538           -0.0070634
 Magnitude           :                                                    1.4914600
  Basis Set: (AUG-CC-PVTZ AUX)
    Blend: AUG-CC-PVTZ-RI
	 Reference Energy          =    -403.8014784764394562 [Eh]
	 Singles Energy            =      -0.0000000000000000 [Eh]
	 Same-Spin Energy          =      -0.3671513426308319 [Eh]
	 Opposite-Spin Energy      =      -1.1022446868676987 [Eh]
	 Correlation Energy        =      -1.4693960294985307 [Eh]
	 Total Energy              =    -405.2708745059379680 [Eh]

	 ================> DF-SCS-MP2 Energies <==================
	-----------------------------------------------------------
	 SCS Same-Spin Scale       =       0.3333333333333333 [-]
	 SCS Opposite-Spin Scale   =       1.2000000000000000 [-]
	 SCS Same-Spin Energy      =      -0.1223837808769440 [Eh]
	 SCS Opposite-Spin Energy  =      -1.3226936242412384 [Eh]
	 SCS Correlation Energy    =      -1.4450774051181823 [Eh]
	 SCS Total Energy          =    -405.2465558815576401 [Eh]
	-----------------------------------------------------------

*** Psi4 exiting successfully. Buy a developer a beer!
