                               Psi4 1.9.1 release

  ==> Input File <==

--------------------------------------------------------------------------
MEMORY 60 GB

molecule dimer {
0 1
Gh(F)      0.000000     0.000000     0.000000
O         -0.076568     2.088972    -1.641225
H          0.047756     1.249316    -1.145998
H         -0.126727     2.709141    -0.907183
Gh(O)     -2.239604    -0.106367    -1.427194
Gh(H)     -1.406974    -0.227633    -0.919555
Gh(H)     -2.064696     0.749154    -1.831495
Gh(O)      0.081221     2.231177     1.441604
Gh(H)      0.211603     1.403872     0.927501
Gh(H)     -0.768686     2.040619     1.850610
Gh(O)     -2.079479     0.031941     1.654927
Gh(H)     -1.240857    -0.075667     1.154159
Gh(H)     -2.704407     0.077462     0.924594

units ang
no_reorient
no_com
symmetry c1
}

set {
basis        aug-cc-pVTZ
scf_type     df
}

energy("mp2")
--------------------------------------------------------------------------

    Molecular point group: c1

    Geometry (in Angstrom), charge = 0, multiplicity = 1:

       Center              X                  Y                   Z               Mass
    ------------   -----------------  -----------------  -----------------  -----------------
      Gh(F)           0.000000000000     0.000000000000     0.000000000000    18.998403162730
         O           -0.076568000000     2.088972000000    -1.641225000000    15.994914619570
         H            0.047756000000     1.249316000000    -1.145998000000     1.007825032230
         H           -0.126727000000     2.709141000000    -0.907183000000     1.007825032230
      Gh(O)          -2.239604000000    -0.106367000000    -1.427194000000    15.994914619570
      Gh(H)          -1.406974000000    -0.227633000000    -0.919555000000     1.007825032230
      Gh(H)          -2.064696000000     0.749154000000    -1.831495000000     1.007825032230
      Gh(O)           0.081221000000     2.231177000000     1.441604000000    15.994914619570
      Gh(H)           0.211603000000     1.403872000000     0.927501000000     1.007825032230
      Gh(H)          -0.768686000000     2.040619000000     1.850610000000     1.007825032230
      Gh(O)          -2.079479000000     0.031941000000     1.654927000000    15.994914619570
      Gh(H)          -1.240857000000    -0.075667000000     1.154159000000     1.007825032230
      Gh(H)          -2.704407000000     0.077462000000     0.924594000000     1.007825032230

  Charge       = 0
  Multiplicity = 1
  Basis Set: AUG-CC-PVTZ
    Blend: AUG-CC-PVTZ
  Basis Set: (AUG-CC-PVTZ AUX)
    Blend: AUG-CC-PVTZ-JKFIT

    Orbital Energies [Eh]
    ---------------------

    Doubly Occupied:

       1A    -20.571654     2A     -1.349087     3A     -0.700619
       4A     -0.590787     5A     -0.510439

  @DF-RHF Final Energy:   -76.05839532785160

   => Energetics <=

    Nuclear Repulsion Energy =              9.0626111240943636
    One-Electron Energy =                -122.7968386544267645
    Two-Electron Energy =                  37.6758322024808052
    Total Energy =                        -76.0583953278515992
 Dipole X            :          1.3549167           -1.3067740            0.0481427
 Dipole Y            :        -39.2002375           39.0610793           -0.1391582
 Dipole Z            :         29.4918740          -28.6916759            0.8001981
 Magnitude           :                                                    0.8136337
  Basis Set: (AUG-CC-PVTZ AUX)
    Blend: AUG-CC-PVTZ-RI
	 Reference Energy          =     -76.0583953278515992 [Eh]
	 Singles Energy            =      -0.0000000000000000 [Eh]
	 Same-Spin Energy          =      -0.0688167669992267 [Eh]
	 Opposite-Spin Energy      =      -0.2174662089356006 [Eh]
	 Correlation Energy        =      -0.2862829759348273 [Eh]
	 Total Energy              =     -76.3446783037864236 [Eh]

	 ================> DF-SCS-MP2 Energies <==================
	-----------------------------------------------------------
	 SCS Same-Spin Scale       =       0.3333333333333333 [-]
	 SCS Opposite-Spin Scale   =       1.2000000000000000 [-]
	 SCS Same-Spin Energy      =      -0.0229389223330756 [Eh]
	 SCS Opposite-Spin Energy  =      -0.2609594507227207 [Eh]
	 SCS Correlation Energy    =      -0.2838983730557962 [Eh]
	 SCS Total Energy          =     -76.3422937009073905 [Eh]
	-----------------------------------------------------------

*** Psi4 exiting successfully. Buy a developer a beer!
