                               Psi4 1.9.1 release

  ==> Input File <==

--------------------------------------------------------------------------
MEMORY 60 GB

molecule dimer {
0 1
Gh(F)      0.000000     0.000000     0.000000
Gh(O)     -0.076568     2.088972    -1.641225
Gh(H)      0.047756     1.249316    -1.145998
Gh(H)     -0.126727     2.709141    -0.907183
O         -2.239604    -0.106367    -1.427194
H         -1.406974    -0.227633    -0.919555
H         -2.064696     0.749154    -1.831495
Gh(O)      0.081221     2.231177     1.441604
Gh(H)      0.211603     1.403872     0.927501
Gh(H)     -0.768686     2.040619     1.850610
Gh(O)     -2.079479     0.031941     1.654927
Gh(H)     -1.240857    -0.075667     1.154159
Gh(H)     -2.704407     0.077462     0.924594

units ang
no_reorient
no_com
symmetry c1
}

set {
basis        aug-cc-pVTZ
scf_type     df
}

energy("mp2")
--------------------------------------------------------------------------

    Molecular point group: c1

    Geometry (in Angstrom), charge = 0, multiplicity = 1:

       Center              X                  Y                   Z               Mass
    ------------   -----------------  -----------------  -----------------  -----------------
      Gh(F)           0.000000000000     0.000000000000     0.000000000000    18.998403162730
      Gh(O)          -0.076568000000     2.088972000000    -1.641225000000    15.994914619570
      Gh(H)           0.047756000000     1.249316000000    -1.145998000000     1.007825032230
      Gh(H)          -0.126727000000     2.709141000000    -0.907183000000     1.007825032230
         O           -2.239604000000    -0.106367000000    -1.427194000000    15.994914619570
         H           -1.406974000000    -0.227633000000    -0.919555000000     1.007825032230
         H           -2.064696000000     0.749154000000    -1.831495000000     1.007825032230
      Gh(O)           0.081221000000     2.231177000000     1.441604000000    15.994914619570
      Gh(H)           0.211603000000     1.403872000000     0.927501000000     1.007825032230
      Gh(H)          -0.768686000000     2.040619000000     1.850610000000     1.007825032230
      Gh(O)          -2.079479000000     0.031941000000     1.654927000000    15.994914619570
      Gh(H)          -1.240857000000    -0.075667000000     1.154159000000     1.007825032230
      Gh(H)          -2.704407000000     0.077462000000     0.924594000000     1.007825032230

  Charge       = 0
  Multiplicity = 1
  Basis Set: AUG-CC-PVTZ
    Blend: AUG-CC-PVTZ
  Basis Set: (AUG-CC-PVTZ AUX)
    Blend: AUG-CC-PVTZ-JKFIT

    Orbital Energies [Eh]
    ---------------------

    Doubly Occupied:

       1A    -20.571656     2A     -1.349094     3A     -0.700611
       4A     -0.590800     5A     -0.510441

  @DF-RHF Final Energy:   -76.05839518301164

   => Energetics <=

    Nuclear Repulsion Energy =              9.0626871406375820
    One-Electron Energy =                -122.7969588200689657
    Two-Electron Energy =                  37.6758764964197468
    Total Energy =                        -76.0583951830116405
 Dipole X            :         41.0723259          -40.4184110            0.6539149
 Dipole Y            :          1.1023609           -0.6225041            0.4798568
 Dipole Z            :         26.8395081          -26.7747774            0.0647308
 Magnitude           :                                                    0.8136690
  Basis Set: (AUG-CC-PVTZ AUX)
    Blend: AUG-CC-PVTZ-RI
	 Reference Energy          =     -76.0583951830116405 [Eh]
	 Singles Energy            =      -0.0000000000000000 [Eh]
	 Same-Spin Energy          =      -0.0688168423276015 [Eh]
	 Opposite-Spin Energy      =      -0.2174663652421076 [Eh]
	 Correlation Energy        =      -0.2862832075697092 [Eh]
	 Total Energy              =     -76.3446783905813504 [Eh]

	 ================> DF-SCS-MP2 Energies <==================
	-----------------------------------------------------------
	 SCS Same-Spin Scale       =       0.3333333333333333 [-]
	 SCS Opposite-Spin Scale   =       1.2000000000000000 [-]
	 SCS Same-Spin Energy      =      -0.0229389474425338 [Eh]
	 SCS Opposite-Spin Energy  =      -0.2609596382905292 [Eh]
	 SCS Correlation Energy    =      -0.2838985857330630 [Eh]
	 SCS Total Energy          =     -76.3422937687447103 [Eh]
	-----------------------------------------------------------

*** Psi4 exiting successfully. Buy a developer a beer!
