                               Psi4 1.9.1 release

  ==> Input File <==

--------------------------------------------------------------------------
MEMORY 60 GB

molecule dimer {
-1 1
F          0.000000     0.000000     0.000000
O          1.677212     2.104076     0.289600
H          1.175630     1.266150     0.292215
H          1.130565     2.649655    -0.280699
O         -0.997221     1.898476    -1.545274
H         -0.545634     1.218200    -0.997850
H         -1.844856     1.965956    -1.097195
O         -2.630696    -0.031288     0.479374
H         -1.657308     0.067160     0.454563
H         -2.765321    -0.562460    -0.312822
O         -0.391423    -1.847133     1.944246
H         -0.080552    -1.217752     1.266672
H         -1.336976    -1.679003     1.933275
O         -1.321952    -1.133929    -2.070236
H         -0.726672    -0.928694    -1.323045
H         -1.403279    -0.263621    -2.472540

units ang
no_reorient
no_com
symmetry c1
}

set {
basis        aug-cc-pVTZ
scf_type     df
}

energy("mp2")
--------------------------------------------------------------------------

    Molecular point group: c1

    Geometry (in Angstrom), charge = -1, multiplicity = 1:

       Center              X                  Y                   Z               Mass
    ------------   -----------------  -----------------  -----------------  -----------------
         F            0.000000000000     0.000000000000     0.000000000000    18.998403162730
         O            1.677212000000     2.104076000000     0.289600000000    15.994914619570
         H            1.175630000000     1.266150000000     0.292215000000     1.007825032230
         H            1.130565000000     2.649655000000    -0.280699000000     1.007825032230
         O           -0.997221000000     1.898476000000    -1.545274000000    15.994914619570
         H           -0.545634000000     1.218200000000    -0.997850000000     1.007825032230
         H           -1.844856000000     1.965956000000    -1.097195000000     1.007825032230
         O           -2.630696000000    -0.031288000000     0.479374000000    15.994914619570
         H           -1.657308000000     0.067160000000     0.454563000000     1.007825032230
         H           -2.765321000000    -0.562460000000    -0.312822000000     1.007825032230
         O           -0.391423000000    -1.847133000000     1.944246000000    15.994914619570
         H           -0.080552000000    -1.217752000000     1.266672000000     1.007825032230
         H           -1.336976000000    -1.679003000000     1.933275000000     1.007825032230
         O           -1.321952000000    -1.133929000000    -2.070236000000    15.994914619570
         H           -0.726672000000    -0.928694000000    -1.323045000000     1.007825032230
         H           -1.403279000000    -0.263621000000    -2.472540000000     1.007825032230

  Charge       = -1
  Multiplicity = 1
  Basis Set: AUG-CC-PVTZ
    Blend: AUG-CC-PVTZ
  Basis Set: (AUG-CC-PVTZ AUX)
    Blend: AUG-CC-PVTZ-JKFIT

    Orbital Energies [Eh]
    ---------------------

    Doubly Occupied:

       1A    -26.031309     2A    -20.416703     3A    -20.410844
       4A    -20.410342     5A    -20.397157     6A    -20.396082
       7A     -1.310305     8A     -1.205396     9A     -1.199030
      10A     -1.194559    11A     -1.182812    12A     -1.181455
      13A     -0.571369    14A     -0.562196    15A     -0.557302
      16A     -0.544650    17A     -0.539787    18A     -0.472158
      19A     -0.462003    20A     -0.454659    21A     -0.432475
      22A     -0.429936    23A     -0.386011    24A     -0.375289
      25A     -0.370720    26A     -0.365348    27A     -0.356727
      28A     -0.355179    29A     -0.343392    30A     -0.342209

  @DF-RHF Final Energy:  -479.87956600446273

   => Energetics <=

    Nuclear Repulsion Energy =            283.3482915203008474
    One-Electron Energy =               -1239.9408993238346284
    Two-Electron Energy =                 476.7130417990711067
    Total Energy =                       -479.8795660044627311
 Dipole X            :         70.6470849          -70.6134774            0.0336075
 Dipole Y            :        -19.5462511           19.7234627            0.1772117
 Dipole Z            :         18.0377255          -18.4356881           -0.3979626
 Magnitude           :                                                    0.4369298
  Basis Set: (AUG-CC-PVTZ AUX)
    Blend: AUG-CC-PVTZ-RI
	 Reference Energy          =    -479.8795660044627311 [Eh]
	 Singles Energy            =      -0.0000000000000000 [Eh]
	 Same-Spin Energy          =      -0.4370533479349931 [Eh]
	 Opposite-Spin Energy      =      -1.3200462603005971 [Eh]
	 Correlation Energy        =      -1.7570996082355903 [Eh]
	 Total Energy              =    -481.6366656126983230 [Eh]

	 ================> DF-SCS-MP2 Energies <==================
	-----------------------------------------------------------
	 SCS Same-Spin Scale       =       0.3333333333333333 [-]
	 SCS Opposite-Spin Scale   =       1.2000000000000000 [-]
	 SCS Same-Spin Energy      =      -0.1456844493116644 [Eh]
	 SCS Opposite-Spin Energy  =      -1.5840555123607165 [Eh]
	 SCS Correlation Energy    =      -1.7297399616723808 [Eh]
	 SCS Total Energy          =    -481.6093059661351390 [Eh]
	-----------------------------------------------------------

*** Psi4 exiting successfully. Buy a developer a beer!
