                               Psi4 1.9.1 release

  ==> Input File <==

--------------------------------------------------------------------------
MEMORY 60 GB

molecule dimer {
0 1
Gh(F)      0.000000     0.000000     0.000000
O          1.677212     2.104076     0.289600
H          1.175630     1.266150     0.292215
H          1.130565     2.649655    -0.280699
Gh(O)     -0.997221     1.898476    -1.545274
Gh(H)     -0.545634     1.218200    -0.997850
Gh(H)     -1.844856     1.965956    -1.097195
Gh(O)     -2.630696    -0.031288     0.479374
Gh(H)     -1.657308     0.067160     0.454563
Gh(H)     -2.765321    -0.562460    -0.312822
Gh(O)     -0.391423    -1.847133     1.944246
Gh(H)     -0.080552    -1.217752     1.266672
Gh(H)     -1.336976    -1.679003     1.933275
Gh(O)     -1.321952    -1.133929    -2.070236
Gh(H)     -0.726672    -0.928694    -1.323045
Gh(H)     -1.403279    -0.263621    -2.472540

units ang
no_reorient
no_com
symmetry c1
}

set {
basis        aug-cc-pVTZ
scf_type     df
}

energy("mp2")
--------------------------------------------------------------------------

    Molecular point group: c1

    Geometry (in Angstrom), charge = 0, multiplicity = 1:

       Center              X                  Y                   Z               Mass
    ------------   -----------------  -----------------  -----------------  -----------------
      Gh(F)           0.000000000000     0.000000000000     0.000000000000    18.998403162730
         O            1.677212000000     2.104076000000     0.289600000000    15.994914619570
         H            1.175630000000     1.266150000000     0.292215000000     1.007825032230
         H            1.130565000000     2.649655000000    -0.280699000000     1.007825032230
      Gh(O)          -0.997221000000     1.898476000000    -1.545274000000    15.994914619570
      Gh(H)          -0.545634000000     1.218200000000    -0.997850000000     1.007825032230
      Gh(H)          -1.844856000000     1.965956000000    -1.097195000000     1.007825032230
      Gh(O)          -2.630696000000    -0.031288000000     0.479374000000    15.994914619570
      Gh(H)          -1.657308000000     0.067160000000     0.454563000000     1.007825032230
      Gh(H)          -2.765321000000    -0.562460000000    -0.312822000000     1.007825032230
      Gh(O)          -0.391423000000    -1.847133000000     1.944246000000    15.994914619570
      Gh(H)          -0.080552000000    -1.217752000000     1.266672000000     1.007825032230
      Gh(H)          -1.336976000000    -1.679003000000     1.933275000000     1.007825032230
      Gh(O)          -1.321952000000    -1.133929000000    -2.070236000000    15.994914619570
      Gh(H)          -0.726672000000    -0.928694000000    -1.323045000000     1.007825032230
      Gh(H)          -1.403279000000    -0.263621000000    -2.472540000000     1.007825032230

  Charge       = 0
  Multiplicity = 1
  Basis Set: AUG-CC-PVTZ
    Blend: AUG-CC-PVTZ
  Basis Set: (AUG-CC-PVTZ AUX)
    Blend: AUG-CC-PVTZ-JKFIT

    Orbital Energies [Eh]
    ---------------------

    Doubly Occupied:

       1A    -20.570450     2A     -1.350207     3A     -0.705613
       4A     -0.588941     5A     -0.510354

  @DF-RHF Final Energy:   -76.05920018219770

   => Energetics <=

    Nuclear Repulsion Energy =              9.0976866075838121
    One-Electron Energy =                -122.8626402305417997
    Two-Electron Energy =                  37.7057534407602830
    Total Energy =                        -76.0592001821977135
 Dipole X            :        -30.4002309           29.7138476           -0.6863832
 Dipole Y            :        -39.3975633           39.2088181           -0.1887452
 Dipole Z            :         -4.7727228            4.3998796           -0.3728433
 Magnitude           :                                                    0.8035912
  Basis Set: (AUG-CC-PVTZ AUX)
    Blend: AUG-CC-PVTZ-RI
	 Reference Energy          =     -76.0592001821976993 [Eh]
	 Singles Energy            =      -0.0000000000000000 [Eh]
	 Same-Spin Energy          =      -0.0686741805558700 [Eh]
	 Opposite-Spin Energy      =      -0.2169515551363046 [Eh]
	 Correlation Energy        =      -0.2856257356921746 [Eh]
	 Total Energy              =     -76.3448259178898780 [Eh]

	 ================> DF-SCS-MP2 Energies <==================
	-----------------------------------------------------------
	 SCS Same-Spin Scale       =       0.3333333333333333 [-]
	 SCS Opposite-Spin Scale   =       1.2000000000000000 [-]
	 SCS Same-Spin Energy      =      -0.0228913935186233 [Eh]
	 SCS Opposite-Spin Energy  =      -0.2603418661635655 [Eh]
	 SCS Correlation Energy    =      -0.2832332596821888 [Eh]
	 SCS Total Energy          =     -76.3424334418798907 [Eh]
	-----------------------------------------------------------

*** Psi4 exiting successfully. Buy a developer a beer!
