                               Psi4 1.9 release

  ==> Input File <==

--------------------------------------------------------------------------
MEMORY 60 GB

molecule dimer {
-1 1
F      0.000000     0.000000     0.000000
--
0 1
O      1.677212     2.104076     0.289600
H      1.175630     1.266150     0.292215
H      1.130565     2.649655    -0.280699
O     -0.997221     1.898476    -1.545274
H     -0.545634     1.218200    -0.997850
H     -1.844856     1.965956    -1.097195
O     -2.630696    -0.031288     0.479374
H     -1.657308     0.067160     0.454563
H     -2.765321    -0.562460    -0.312822
O     -0.391423    -1.847133     1.944246
H     -0.080552    -1.217752     1.266672
H     -1.336976    -1.679003     1.933275
O     -1.321952    -1.133929    -2.070236
H     -0.726672    -0.928694    -1.323045
H     -1.403279    -0.263621    -2.472540

units ang
no_reorient
no_com
symmetry c1
}

set {
basis        aug-cc-pVTZ
scf_type     df
}

energy("mp2", bsse_type="cp")
--------------------------------------------------------------------------

                               Psi4 1.9 release
    Molecular point group: c1
  Charge       = 0
  Multiplicity = 1
  Basis Set: AUG-CC-PVTZ
    Blend: AUG-CC-PVTZ
  Basis Set: (AUG-CC-PVTZ AUX)
    Blend: AUG-CC-PVTZ-JKFIT
  @DF-RHF Final Energy:  -380.27928219288174
    Total Energy =                       -380.2792821928817375
 Dipole X            :         69.9279872          -70.6134774           -0.6854902
 Dipole Y            :        -19.2997795           19.7234627            0.4236832
 Dipole Z            :         17.8289868          -18.4356881           -0.6067013
 Magnitude           :                                                    1.0087075
  Basis Set: (AUG-CC-PVTZ AUX)
    Blend: AUG-CC-PVTZ-RI
	 Reference Energy          =    -380.2792821928817375 [Eh]
	 Singles Energy            =      -0.0000000000000000 [Eh]
	 Same-Spin Energy          =      -0.3488633002221666 [Eh]
	 Opposite-Spin Energy      =      -1.0919221689404566 [Eh]
	 Correlation Energy        =      -1.4407854691626232 [Eh]
	 Total Energy              =    -381.7200676620443573 [Eh]
	 SCS Total Energy          =    -381.7058765623510226 [Eh]
                               Psi4 1.9 release
    Molecular point group: c1
  Multiplicity = 1
  Basis Set: AUG-CC-PVTZ
    Blend: AUG-CC-PVTZ
  Basis Set: (AUG-CC-PVTZ AUX)
    Blend: AUG-CC-PVTZ-JKFIT
  @DF-RHF Final Energy:   -99.45114768539342
    Total Energy =                        -99.4511476853934226
  Basis Set: (AUG-CC-PVTZ AUX)
	 Singles Energy            =      -0.0000000000000000 [Eh]
	 Same-Spin Energy          =      -0.0821248751387696 [Eh]
	 Opposite-Spin Energy      =      -0.2308319494796862 [Eh]
	 Correlation Energy        =      -0.3129568246184558 [Eh]
	 Total Energy              =     -99.7641045100118760 [Eh]
	 SCS Total Energy          =     -99.7555209831486422 [Eh]
                               Psi4 1.9 release
    Molecular point group: c1

    Geometry (in Bohr), charge = -1, multiplicity = 1:

       Center              X                  Y                   Z               Mass
    ------------   -----------------  -----------------  -----------------  -----------------
         F            0.000000000000     0.000000000000     0.000000000000    18.998403162730
         O            3.169471334331     3.976127387149     0.547264685933    15.994914619570
         H            2.221618724872     2.392676733748     0.552206319751     1.007825032230
         H            2.136458217028     5.007122276950    -0.530444233690     1.007825032230
         O           -1.884474576555     3.587599695755    -2.920144648791    15.994914619570
         H           -1.031098824738     2.302064366033    -1.885663214288     1.007825032230
         H           -3.486272580908     3.715118414701    -2.073398056222     1.007825032230
         O           -4.971294959337    -0.059125751013     0.905885571665    15.994914619570
         H           -3.131858225530     0.126914006586     0.858999576766     1.007825032230
         H           -5.225699338977    -1.062895356525    -0.591147906018     1.007825032230
         O           -0.739682269205    -3.490575487295     3.674092460517    15.994914619570
         H           -0.152221218858    -2.301217768729     2.393663170786     1.007825032230
         H           -2.526518476310    -3.172855833822     3.653360275194     1.007825032230
         O           -2.498127231001    -2.142815255714    -3.912179055063    15.994914619570
         H           -1.373211063039    -1.754977314356    -2.500192701656     1.007825032230
         H           -2.651812987606    -0.498171490919    -4.672423434239     1.007825032230

  Charge       = -1
  Multiplicity = 1
  Basis Set: AUG-CC-PVTZ
    Blend: AUG-CC-PVTZ
  Basis Set: (AUG-CC-PVTZ AUX)
    Blend: AUG-CC-PVTZ-JKFIT

    Orbital Energies [Eh]
    ---------------------

    Doubly Occupied:

       1A    -26.031309     2A    -20.416703     3A    -20.410844
       4A    -20.410342     5A    -20.397157     6A    -20.396082
       7A     -1.310305     8A     -1.205396     9A     -1.199030
      10A     -1.194559    11A     -1.182812    12A     -1.181455
      13A     -0.571369    14A     -0.562196    15A     -0.557302
      16A     -0.544650    17A     -0.539787    18A     -0.472158
      19A     -0.462003    20A     -0.454659    21A     -0.432475
      22A     -0.429936    23A     -0.386011    24A     -0.375289
      25A     -0.370720    26A     -0.365348    27A     -0.356727
      28A     -0.355179    29A     -0.343392    30A     -0.342209

  @DF-RHF Final Energy:  -479.87956600446194

   => Energetics <=

    Nuclear Repulsion Energy =            283.3482915203008474
    One-Electron Energy =               -1239.9408993238357652
    Two-Electron Energy =                 476.7130417990730393
    Total Energy =                       -479.8795660044619353
 Dipole X            :         70.6470849          -70.6134774            0.0336075
 Dipole Y            :        -19.5462511           19.7234627            0.1772117
 Dipole Z            :         18.0377255          -18.4356881           -0.3979626
 Magnitude           :                                                    0.4369298
  Basis Set: (AUG-CC-PVTZ AUX)
    Blend: AUG-CC-PVTZ-RI
	 Reference Energy          =    -479.8795660044619353 [Eh]
	 Singles Energy            =      -0.0000000000000000 [Eh]
	 Same-Spin Energy          =      -0.4370533479349980 [Eh]
	 Opposite-Spin Energy      =      -1.3200462603006282 [Eh]
	 Correlation Energy        =      -1.7570996082356263 [Eh]
	 Total Energy              =    -481.6366656126975840 [Eh]

	 ================> DF-SCS-MP2 Energies <==================
	-----------------------------------------------------------
	 SCS Same-Spin Scale       =       0.3333333333333333 [-]
	 SCS Opposite-Spin Scale   =       1.2000000000000000 [-]
	 SCS Same-Spin Energy      =      -0.1456844493116660 [Eh]
	 SCS Opposite-Spin Energy  =      -1.5840555123607538 [Eh]
	 SCS Correlation Energy    =      -1.7297399616724198 [Eh]
	 SCS Total Energy          =    -481.6093059661343432 [Eh]
	-----------------------------------------------------------

*** Psi4 exiting successfully. Buy a developer a beer!
