                               Psi4 1.9.1 release

  ==> Input File <==

--------------------------------------------------------------------------
MEMORY 60 GB

molecule dimer {
-1 1
F          0.000000     0.000000     0.000000
O          2.615040     0.830855    -0.306548
H          1.779183     0.354941    -0.172646
H          2.290422     1.727088    -0.437083
O          0.173453     2.717899    -0.376765
H          0.091851     1.810760    -0.035543
H         -0.211367     2.609582    -1.253149
O         -2.664729    -0.415500    -0.147684
H         -1.741393    -0.110673    -0.063872
H         -2.520127    -1.364697    -0.235724
O         -0.665239    -2.671544     0.084735
H         -0.273898    -1.812643    -0.151117
H         -0.743278    -2.563566     1.039506
O         -0.855421    -0.807340     2.436516
H         -0.394648    -0.437707     1.658496
H         -1.773466    -0.627104     2.215378
O         -0.924112     0.790296    -2.457210
H         -0.429820     0.436903    -1.696363
H         -1.826383     0.561602    -2.213630

units ang
no_reorient
no_com
symmetry c1
}

set {
basis        aug-cc-pVTZ
scf_type     df
}

energy("mp2")
--------------------------------------------------------------------------

    Molecular point group: c1

    Geometry (in Angstrom), charge = -1, multiplicity = 1:

       Center              X                  Y                   Z               Mass
    ------------   -----------------  -----------------  -----------------  -----------------
         F            0.000000000000     0.000000000000     0.000000000000    18.998403162730
         O            2.615040000000     0.830855000000    -0.306548000000    15.994914619570
         H            1.779183000000     0.354941000000    -0.172646000000     1.007825032230
         H            2.290422000000     1.727088000000    -0.437083000000     1.007825032230
         O            0.173453000000     2.717899000000    -0.376765000000    15.994914619570
         H            0.091851000000     1.810760000000    -0.035543000000     1.007825032230
         H           -0.211367000000     2.609582000000    -1.253149000000     1.007825032230
         O           -2.664729000000    -0.415500000000    -0.147684000000    15.994914619570
         H           -1.741393000000    -0.110673000000    -0.063872000000     1.007825032230
         H           -2.520127000000    -1.364697000000    -0.235724000000     1.007825032230
         O           -0.665239000000    -2.671544000000     0.084735000000    15.994914619570
         H           -0.273898000000    -1.812643000000    -0.151117000000     1.007825032230
         H           -0.743278000000    -2.563566000000     1.039506000000     1.007825032230
         O           -0.855421000000    -0.807340000000     2.436516000000    15.994914619570
         H           -0.394648000000    -0.437707000000     1.658496000000     1.007825032230
         H           -1.773466000000    -0.627104000000     2.215378000000     1.007825032230
         O           -0.924112000000     0.790296000000    -2.457210000000    15.994914619570
         H           -0.429820000000     0.436903000000    -1.696363000000     1.007825032230
         H           -1.826383000000     0.561602000000    -2.213630000000     1.007825032230

  Charge       = -1
  Multiplicity = 1
  Basis Set: AUG-CC-PVTZ
    Blend: AUG-CC-PVTZ
  Basis Set: (AUG-CC-PVTZ AUX)
    Blend: AUG-CC-PVTZ-JKFIT

    Orbital Energies [Eh]
    ---------------------

    Doubly Occupied:

       1A    -26.051001     2A    -20.424286     3A    -20.423410
       4A    -20.421300     5A    -20.420254     6A    -20.413759
       7A    -20.401061     8A     -1.329389     9A     -1.217896
      10A     -1.212424    11A     -1.207411    12A     -1.204608
      13A     -1.200666    14A     -1.187239    15A     -0.579438
      16A     -0.575198    17A     -0.569786    18A     -0.565327
      19A     -0.558202    20A     -0.547178    21A     -0.485053
      22A     -0.475065    23A     -0.468599    24A     -0.452381
      25A     -0.449118    26A     -0.442852    27A     -0.400394
      28A     -0.395312    29A     -0.388065    30A     -0.374904
      31A     -0.367502    32A     -0.366959    33A     -0.364190
      34A     -0.359643    35A     -0.347758

  @DF-RHF Final Energy:  -555.95439431627528

   => Energetics <=

    Nuclear Repulsion Energy =            376.3837223005513124
    One-Electron Energy =               -1531.3809738720626683
    Two-Electron Energy =                 599.0428572552359583
    Total Energy =                       -555.9543943162752839
 Dipole X            :         45.4598559          -45.9600064           -0.5001506
 Dipole Y            :         -8.1089864            7.8268941           -0.2820923
 Dipole Z            :         14.3435511          -14.1377876            0.2057635
 Magnitude           :                                                    0.6099715
  Basis Set: (AUG-CC-PVTZ AUX)
    Blend: AUG-CC-PVTZ-RI
	 Reference Energy          =    -555.9543943162752839 [Eh]
	 Singles Energy            =      -0.0000000000000000 [Eh]
	 Same-Spin Energy          =      -0.5082641919897363 [Eh]
	 Opposite-Spin Energy      =      -1.5392844896223103 [Eh]
	 Correlation Energy        =      -2.0475486816120467 [Eh]
	 Total Energy              =    -558.0019429978873404 [Eh]

	 ================> DF-SCS-MP2 Energies <==================
	-----------------------------------------------------------
	 SCS Same-Spin Scale       =       0.3333333333333333 [-]
	 SCS Opposite-Spin Scale   =       1.2000000000000000 [-]
	 SCS Same-Spin Energy      =      -0.1694213973299121 [Eh]
	 SCS Opposite-Spin Energy  =      -1.8471413875467724 [Eh]
	 SCS Correlation Energy    =      -2.0165627848766845 [Eh]
	 SCS Total Energy          =    -557.9709571011519529 [Eh]
	-----------------------------------------------------------

*** Psi4 exiting successfully. Buy a developer a beer!
