                               Psi4 1.9 release

  ==> Input File <==

--------------------------------------------------------------------------
MEMORY 60 GB

molecule dimer {
-1 1
F      0.000000     0.000000     0.000000
--
0 1
O      2.615040     0.830855    -0.306548
H      1.779183     0.354941    -0.172646
H      2.290422     1.727088    -0.437083
O      0.173453     2.717899    -0.376765
H      0.091851     1.810760    -0.035543
H     -0.211367     2.609582    -1.253149
O     -2.664729    -0.415500    -0.147684
H     -1.741393    -0.110673    -0.063872
H     -2.520127    -1.364697    -0.235724
O     -0.665239    -2.671544     0.084735
H     -0.273898    -1.812643    -0.151117
H     -0.743278    -2.563566     1.039506
O     -0.855421    -0.807340     2.436516
H     -0.394648    -0.437707     1.658496
H     -1.773466    -0.627104     2.215378
O     -0.924112     0.790296    -2.457210
H     -0.429820     0.436903    -1.696363
H     -1.826383     0.561602    -2.213630

units ang
no_reorient
no_com
symmetry c1
}

set {
basis        aug-cc-pVTZ
scf_type     df
}

energy("mp2", bsse_type="cp")
--------------------------------------------------------------------------

                               Psi4 1.9 release
    Molecular point group: c1
  Charge       = 0
  Multiplicity = 1
  Basis Set: AUG-CC-PVTZ
    Blend: AUG-CC-PVTZ
  Basis Set: (AUG-CC-PVTZ AUX)
    Blend: AUG-CC-PVTZ-JKFIT
  @DF-RHF Final Energy:  -456.33615198019896
    Total Energy =                       -456.3361519801989630
 Dipole X            :         45.0028396          -45.9600064           -0.9571669
 Dipole Y            :         -8.0526392            7.8268941           -0.2257451
 Dipole Z            :         14.2498448          -14.1377876            0.1120572
 Magnitude           :                                                    0.9897909
  Basis Set: (AUG-CC-PVTZ AUX)
    Blend: AUG-CC-PVTZ-RI
	 Reference Energy          =    -456.3361519801989630 [Eh]
	 Singles Energy            =      -0.0000000000000000 [Eh]
	 Same-Spin Energy          =      -0.4198507818235833 [Eh]
	 Opposite-Spin Energy      =      -1.3114559842740676 [Eh]
	 Correlation Energy        =      -1.7313067660976509 [Eh]
	 Total Energy              =    -458.0674587462966088 [Eh]
	 SCS Total Energy          =    -458.0498494219357326 [Eh]
                               Psi4 1.9 release
    Molecular point group: c1
  Multiplicity = 1
  Basis Set: AUG-CC-PVTZ
    Blend: AUG-CC-PVTZ
  Basis Set: (AUG-CC-PVTZ AUX)
    Blend: AUG-CC-PVTZ-JKFIT
  @DF-RHF Final Energy:   -99.45118244428092
    Total Energy =                        -99.4511824442809029
  Basis Set: (AUG-CC-PVTZ AUX)
	 Singles Energy            =      -0.0000000000000000 [Eh]
	 Same-Spin Energy          =      -0.0821477044173303 [Eh]
	 Opposite-Spin Energy      =      -0.2309726902945400 [Eh]
	 Correlation Energy        =      -0.3131203947118703 [Eh]
	 Total Energy              =     -99.7643028389927906 [Eh]
	 SCS Total Energy          =     -99.7557322407734688 [Eh]
                               Psi4 1.9 release
    Molecular point group: c1

    Geometry (in Bohr), charge = -1, multiplicity = 1:

       Center              X                  Y                   Z               Mass
    ------------   -----------------  -----------------  -----------------  -----------------
         F            0.000000000000     0.000000000000     0.000000000000    18.998403162730
         O            4.941709407117     1.570088399967    -0.579291764307    15.994914619570
         H            3.362168597070     0.670741280696    -0.326253656656     1.007825032230
         H            4.328270291723     3.263723314565    -0.825967164093     1.007825032230
         O            0.327778665639     5.136084746656    -0.711982663658    15.994914619570
         H            0.173573234349     3.421840478934    -0.067166535677     1.007825032230
         H           -0.399425741960     4.931395281924    -2.368108404391     1.007825032230
         O           -5.035608008565    -0.785181205128    -0.279082313112    15.994914619570
         H           -3.290755846789    -0.209141659483    -0.120700587085     1.007825032230
         H           -4.762349831372    -2.578903574234    -0.445453801197     1.007825032230
         O           -1.257119517973    -5.048486492110     0.160125943241    15.994914619570
         H           -0.517592206311    -3.425398833228    -0.285569742901     1.007825032230
         H           -1.404591855078    -4.844437644535     1.964381645770     1.007825032230
         O           -1.616511411965    -1.525651490127     4.604347940296    15.994914619570
         H           -0.745776635960    -0.827146353196     3.134103220167     1.007825032230
         H           -3.351365032811    -1.185054812179     4.186457684365     1.007825032230
         O           -1.746318589249     1.493442998045    -4.643453932736    15.994914619570
         H           -0.812242083244     0.825627013391    -3.205661479360     1.007825032230
         H           -3.451363670192     1.061273971509    -4.183154443097     1.007825032230

  Charge       = -1
  Multiplicity = 1
  Basis Set: AUG-CC-PVTZ
    Blend: AUG-CC-PVTZ
  Basis Set: (AUG-CC-PVTZ AUX)
    Blend: AUG-CC-PVTZ-JKFIT

    Orbital Energies [Eh]
    ---------------------

    Doubly Occupied:

       1A    -26.051001     2A    -20.424286     3A    -20.423410
       4A    -20.421300     5A    -20.420254     6A    -20.413759
       7A    -20.401061     8A     -1.329389     9A     -1.217896
      10A     -1.212424    11A     -1.207411    12A     -1.204608
      13A     -1.200666    14A     -1.187239    15A     -0.579438
      16A     -0.575198    17A     -0.569786    18A     -0.565327
      19A     -0.558202    20A     -0.547178    21A     -0.485053
      22A     -0.475065    23A     -0.468599    24A     -0.452381
      25A     -0.449118    26A     -0.442852    27A     -0.400394
      28A     -0.395312    29A     -0.388065    30A     -0.374904
      31A     -0.367502    32A     -0.366959    33A     -0.364190
      34A     -0.359643    35A     -0.347758

  @DF-RHF Final Energy:  -555.95439431547277

   => Energetics <=

    Nuclear Repulsion Energy =            376.3837223005513124
    One-Electron Energy =               -1531.3809738718000517
    Two-Electron Energy =                 599.0428572557760845
    Total Energy =                       -555.9543943154727685
 Dipole X            :         45.4598559          -45.9600064           -0.5001506
 Dipole Y            :         -8.1089864            7.8268941           -0.2820923
 Dipole Z            :         14.3435511          -14.1377876            0.2057635
 Magnitude           :                                                    0.6099715
  Basis Set: (AUG-CC-PVTZ AUX)
    Blend: AUG-CC-PVTZ-RI
	 Reference Energy          =    -555.9543943154727685 [Eh]
	 Singles Energy            =      -0.0000000000000000 [Eh]
	 Same-Spin Energy          =      -0.5082641919902535 [Eh]
	 Opposite-Spin Energy      =      -1.5392844896210425 [Eh]
	 Correlation Energy        =      -2.0475486816112962 [Eh]
	 Total Energy              =    -558.0019429970840292 [Eh]

	 ================> DF-SCS-MP2 Energies <==================
	-----------------------------------------------------------
	 SCS Same-Spin Scale       =       0.3333333333333333 [-]
	 SCS Opposite-Spin Scale   =       1.2000000000000000 [-]
	 SCS Same-Spin Energy      =      -0.1694213973300845 [Eh]
	 SCS Opposite-Spin Energy  =      -1.8471413875452509 [Eh]
	 SCS Correlation Energy    =      -2.0165627848753354 [Eh]
	 SCS Total Energy          =    -557.9709571003480733 [Eh]
	-----------------------------------------------------------

*** Psi4 exiting successfully. Buy a developer a beer!
