                               Psi4 1.9.1 release

  ==> Input File <==

--------------------------------------------------------------------------
MEMORY 60 GB

molecule dimer {
0 1
Gh(F)      0.000000     0.000000     0.000000
Gh(O)      2.615040     0.830855    -0.306548
Gh(H)      1.779183     0.354941    -0.172646
Gh(H)      2.290422     1.727088    -0.437083
O          0.173453     2.717899    -0.376765
H          0.091851     1.810760    -0.035543
H         -0.211367     2.609582    -1.253149
Gh(O)     -2.664729    -0.415500    -0.147684
Gh(H)     -1.741393    -0.110673    -0.063872
Gh(H)     -2.520127    -1.364697    -0.235724
Gh(O)     -0.665239    -2.671544     0.084735
Gh(H)     -0.273898    -1.812643    -0.151117
Gh(H)     -0.743278    -2.563566     1.039506
Gh(O)     -0.855421    -0.807340     2.436516
Gh(H)     -0.394648    -0.437707     1.658496
Gh(H)     -1.773466    -0.627104     2.215378
Gh(O)     -0.924112     0.790296    -2.457210
Gh(H)     -0.429820     0.436903    -1.696363
Gh(H)     -1.826383     0.561602    -2.213630

units ang
no_reorient
no_com
symmetry c1
}

set {
basis        aug-cc-pVTZ
scf_type     df
}

energy("mp2")
--------------------------------------------------------------------------

    Molecular point group: c1

    Geometry (in Angstrom), charge = 0, multiplicity = 1:

       Center              X                  Y                   Z               Mass
    ------------   -----------------  -----------------  -----------------  -----------------
      Gh(F)           0.000000000000     0.000000000000     0.000000000000    18.998403162730
      Gh(O)           2.615040000000     0.830855000000    -0.306548000000    15.994914619570
      Gh(H)           1.779183000000     0.354941000000    -0.172646000000     1.007825032230
      Gh(H)           2.290422000000     1.727088000000    -0.437083000000     1.007825032230
         O            0.173453000000     2.717899000000    -0.376765000000    15.994914619570
         H            0.091851000000     1.810760000000    -0.035543000000     1.007825032230
         H           -0.211367000000     2.609582000000    -1.253149000000     1.007825032230
      Gh(O)          -2.664729000000    -0.415500000000    -0.147684000000    15.994914619570
      Gh(H)          -1.741393000000    -0.110673000000    -0.063872000000     1.007825032230
      Gh(H)          -2.520127000000    -1.364697000000    -0.235724000000     1.007825032230
      Gh(O)          -0.665239000000    -2.671544000000     0.084735000000    15.994914619570
      Gh(H)          -0.273898000000    -1.812643000000    -0.151117000000     1.007825032230
      Gh(H)          -0.743278000000    -2.563566000000     1.039506000000     1.007825032230
      Gh(O)          -0.855421000000    -0.807340000000     2.436516000000    15.994914619570
      Gh(H)          -0.394648000000    -0.437707000000     1.658496000000     1.007825032230
      Gh(H)          -1.773466000000    -0.627104000000     2.215378000000     1.007825032230
      Gh(O)          -0.924112000000     0.790296000000    -2.457210000000    15.994914619570
      Gh(H)          -0.429820000000     0.436903000000    -1.696363000000     1.007825032230
      Gh(H)          -1.826383000000     0.561602000000    -2.213630000000     1.007825032230

  Charge       = 0
  Multiplicity = 1
  Basis Set: AUG-CC-PVTZ
    Blend: AUG-CC-PVTZ
  Basis Set: (AUG-CC-PVTZ AUX)
    Blend: AUG-CC-PVTZ-JKFIT

    Orbital Energies [Eh]
    ---------------------

    Doubly Occupied:

       1A    -20.570672     2A     -1.350976     3A     -0.703875
       4A     -0.590811     5A     -0.510642

  @DF-RHF Final Energy:   -76.05916992648964

   => Energetics <=

    Nuclear Repulsion Energy =              9.1032275452967539
    One-Electron Energy =                -122.8708390637844730
    Two-Electron Energy =                  37.7084415919980671
    Total Energy =                        -76.0591699264896448
 Dipole X            :         -2.7014298            2.3963768           -0.3050530
 Dipole Y            :        -50.1042099           49.4419137           -0.6622962
 Dipole Z            :          7.7804825           -8.1311362           -0.3506538
 Magnitude           :                                                    0.8091055
  Basis Set: (AUG-CC-PVTZ AUX)
    Blend: AUG-CC-PVTZ-RI
	 Reference Energy          =     -76.0591699264896448 [Eh]
	 Singles Energy            =      -0.0000000000000000 [Eh]
	 Same-Spin Energy          =      -0.0687353098478840 [Eh]
	 Opposite-Spin Energy      =      -0.2173140948576051 [Eh]
	 Correlation Energy        =      -0.2860494047054891 [Eh]
	 Total Energy              =     -76.3452193311951390 [Eh]

	 ================> DF-SCS-MP2 Energies <==================
	-----------------------------------------------------------
	 SCS Same-Spin Scale       =       0.3333333333333333 [-]
	 SCS Opposite-Spin Scale   =       1.2000000000000000 [-]
	 SCS Same-Spin Energy      =      -0.0229117699492947 [Eh]
	 SCS Opposite-Spin Energy  =      -0.2607769138291261 [Eh]
	 SCS Correlation Energy    =      -0.2836886837784208 [Eh]
	 SCS Total Energy          =     -76.3428586102680669 [Eh]
	-----------------------------------------------------------

*** Psi4 exiting successfully. Buy a developer a beer!
