                               Psi4 1.9.1 release

  ==> Input File <==

--------------------------------------------------------------------------
MEMORY 60 GB

molecule dimer {
-1 1
Cl         0.000000     0.000000     0.000000
Gh(O)      3.130045    -0.039116     0.000000
Gh(H)      2.155226    -0.129176     0.000000
Gh(H)      3.237770     0.913004     0.000000
Gh(O)     -1.531147     2.730256     0.000000
Gh(H)     -0.965743     1.931069     0.000000
Gh(H)     -2.409570     2.347489     0.000000
Gh(O)     -1.598898    -2.691140     0.000000
Gh(H)     -1.189483    -1.801893     0.000000
Gh(H)     -0.828200    -3.260493     0.000000

units ang
no_reorient
no_com
symmetry c1
}

set {
basis        aug-cc-pVTZ
scf_type     df
}

energy("mp2")
--------------------------------------------------------------------------

    Molecular point group: c1

    Geometry (in Angstrom), charge = -1, multiplicity = 1:

       Center              X                  Y                   Z               Mass
    ------------   -----------------  -----------------  -----------------  -----------------
         CL           0.000000000000     0.000000000000     0.000000000000    34.968852682000
      Gh(O)           3.130045000000    -0.039116000000     0.000000000000    15.994914619570
      Gh(H)           2.155226000000    -0.129176000000     0.000000000000     1.007825032230
      Gh(H)           3.237770000000     0.913004000000     0.000000000000     1.007825032230
      Gh(O)          -1.531147000000     2.730256000000     0.000000000000    15.994914619570
      Gh(H)          -0.965743000000     1.931069000000     0.000000000000     1.007825032230
      Gh(H)          -2.409570000000     2.347489000000     0.000000000000     1.007825032230
      Gh(O)          -1.598898000000    -2.691140000000     0.000000000000    15.994914619570
      Gh(H)          -1.189483000000    -1.801893000000     0.000000000000     1.007825032230
      Gh(H)          -0.828200000000    -3.260493000000     0.000000000000     1.007825032230

  Charge       = -1
  Multiplicity = 1
  Basis Set: AUG-CC-PVTZ
    Blend: AUG-CC-PVTZ
  Basis Set: (AUG-CC-PVTZ AUX)
    Blend: AUG-CC-PVTZ-JKFIT

    Orbital Energies [Eh]
    ---------------------

    Doubly Occupied:

       1A   -104.506973     2A    -10.229990     3A     -7.696093
       4A     -7.696017     5A     -7.696017     6A     -0.733483
       7A     -0.150320     8A     -0.150320     9A     -0.150309

  @DF-RHF Final Energy:  -459.57355159080936

   => Energetics <=

    Nuclear Repulsion Energy =              0.0000000000000000
    One-Electron Energy =                -641.1280706411905612
    Two-Electron Energy =                 181.5545190503812307
    Total Energy =                       -459.5735515908093021
 Dipole X            :          0.0000000            0.0000000            0.0000000
 Dipole Y            :         -0.0000000            0.0000000           -0.0000000
 Dipole Z            :         -0.0000000            0.0000000           -0.0000000
 Magnitude           :                                                    0.0000000
  Basis Set: (AUG-CC-PVTZ AUX)
    Blend: AUG-CC-PVTZ-RI
	 Reference Energy          =    -459.5735515908093589 [Eh]
	 Singles Energy            =      -0.0000000000000000 [Eh]
	 Same-Spin Energy          =      -0.0633028539014128 [Eh]
	 Opposite-Spin Energy      =      -0.1830174805585993 [Eh]
	 Correlation Energy        =      -0.2463203344600121 [Eh]
	 Total Energy              =    -459.8198719252693536 [Eh]

	 ================> DF-SCS-MP2 Energies <==================
	-----------------------------------------------------------
	 SCS Same-Spin Scale       =       0.3333333333333333 [-]
	 SCS Opposite-Spin Scale   =       1.2000000000000000 [-]
	 SCS Same-Spin Energy      =      -0.0211009513004709 [Eh]
	 SCS Opposite-Spin Energy  =      -0.2196209766703192 [Eh]
	 SCS Correlation Energy    =      -0.2407219279707901 [Eh]
	 SCS Total Energy          =    -459.8142735187801691 [Eh]
	-----------------------------------------------------------

*** Psi4 exiting successfully. Buy a developer a beer!
