                               Psi4 1.9.1 release

  ==> Input File <==

--------------------------------------------------------------------------
MEMORY 60 GB

molecule dimer {
-1 1
Cl         0.000000     0.000000     0.000000
O          3.130045    -0.039116     0.000000
H          2.155226    -0.129176     0.000000
H          3.237770     0.913004     0.000000
O         -1.531147     2.730256     0.000000
H         -0.965743     1.931069     0.000000
H         -2.409570     2.347489     0.000000
O         -1.598898    -2.691140     0.000000
H         -1.189483    -1.801893     0.000000
H         -0.828200    -3.260493     0.000000

units ang
no_reorient
no_com
symmetry c1
}

set {
basis        aug-cc-pVTZ
scf_type     df
}

energy("mp2")
--------------------------------------------------------------------------

    Molecular point group: c1

    Geometry (in Angstrom), charge = -1, multiplicity = 1:

       Center              X                  Y                   Z               Mass
    ------------   -----------------  -----------------  -----------------  -----------------
         CL           0.000000000000     0.000000000000     0.000000000000    34.968852682000
         O            3.130045000000    -0.039116000000     0.000000000000    15.994914619570
         H            2.155226000000    -0.129176000000     0.000000000000     1.007825032230
         H            3.237770000000     0.913004000000     0.000000000000     1.007825032230
         O           -1.531147000000     2.730256000000     0.000000000000    15.994914619570
         H           -0.965743000000     1.931069000000     0.000000000000     1.007825032230
         H           -2.409570000000     2.347489000000     0.000000000000     1.007825032230
         O           -1.598898000000    -2.691140000000     0.000000000000    15.994914619570
         H           -1.189483000000    -1.801893000000     0.000000000000     1.007825032230
         H           -0.828200000000    -3.260493000000     0.000000000000     1.007825032230

  Charge       = -1
  Multiplicity = 1
  Basis Set: AUG-CC-PVTZ
    Blend: AUG-CC-PVTZ
  Basis Set: (AUG-CC-PVTZ AUX)
    Blend: AUG-CC-PVTZ-JKFIT

    Orbital Energies [Eh]
    ---------------------

    Doubly Occupied:

       1A   -104.575578     2A    -20.402205     3A    -20.402205
       4A    -20.402205     5A    -10.301231     6A     -7.767330
       7A     -7.767330     8A     -7.767219     9A     -1.187018
      10A     -1.186842    11A     -1.186842    12A     -0.821475
      13A     -0.547515    14A     -0.547515    15A     -0.541499
      16A     -0.433793    17A     -0.433793    18A     -0.428634
      19A     -0.348779    20A     -0.348090    21A     -0.348090
      22A     -0.232640    23A     -0.232640    24A     -0.226022

  @DF-RHF Final Energy:  -687.80206394965091

   => Energetics <=

    Nuclear Repulsion Energy =            146.9986158950645176
    One-Electron Energy =               -1252.7283741558985639
    Two-Electron Energy =                 417.9276943111830178
    Total Energy =                       -687.8020639496509148
 Dipole X            :         -0.0000012           -0.0000000           -0.0000012
 Dipole Y            :         -0.0000004           -0.0000000           -0.0000004
 Dipole Z            :          0.0000000            0.0000000            0.0000000
 Magnitude           :                                                    0.0000012
  Basis Set: (AUG-CC-PVTZ AUX)
    Blend: AUG-CC-PVTZ-RI
	 Reference Energy          =    -687.8020639496509148 [Eh]
	 Singles Energy            =      -0.0000000000000000 [Eh]
	 Same-Spin Energy          =      -0.2766130427461572 [Eh]
	 Opposite-Spin Energy      =      -0.8374337336695343 [Eh]
	 Correlation Energy        =      -1.1140467764156914 [Eh]
	 Total Energy              =    -688.9161107260665631 [Eh]

	 ================> DF-SCS-MP2 Energies <==================
	-----------------------------------------------------------
	 SCS Same-Spin Scale       =       0.3333333333333333 [-]
	 SCS Opposite-Spin Scale   =       1.2000000000000000 [-]
	 SCS Same-Spin Energy      =      -0.0922043475820524 [Eh]
	 SCS Opposite-Spin Energy  =      -1.0049204804034411 [Eh]
	 SCS Correlation Energy    =      -1.0971248279854935 [Eh]
	 SCS Total Energy          =    -688.8991887776363683 [Eh]
	-----------------------------------------------------------

*** Psi4 exiting successfully. Buy a developer a beer!
