                               Psi4 1.9.1 release

  ==> Input File <==

--------------------------------------------------------------------------
MEMORY 60 GB

molecule dimer {
0 1
Gh(Cl)     0.000000     0.000000     0.000000
Gh(O)      3.130045    -0.039116     0.000000
Gh(H)      2.155226    -0.129176     0.000000
Gh(H)      3.237770     0.913004     0.000000
O         -1.531147     2.730256     0.000000
H         -0.965743     1.931069     0.000000
H         -2.409570     2.347489     0.000000
Gh(O)     -1.598898    -2.691140     0.000000
Gh(H)     -1.189483    -1.801893     0.000000
Gh(H)     -0.828200    -3.260493     0.000000

units ang
no_reorient
no_com
symmetry c1
}

set {
basis        aug-cc-pVTZ
scf_type     df
}

energy("mp2")
--------------------------------------------------------------------------

    Molecular point group: c1

    Geometry (in Angstrom), charge = 0, multiplicity = 1:

       Center              X                  Y                   Z               Mass
    ------------   -----------------  -----------------  -----------------  -----------------
      Gh(CL)          0.000000000000     0.000000000000     0.000000000000    34.968852682000
      Gh(O)           3.130045000000    -0.039116000000     0.000000000000    15.994914619570
      Gh(H)           2.155226000000    -0.129176000000     0.000000000000     1.007825032230
      Gh(H)           3.237770000000     0.913004000000     0.000000000000     1.007825032230
         O           -1.531147000000     2.730256000000     0.000000000000    15.994914619570
         H           -0.965743000000     1.931069000000     0.000000000000     1.007825032230
         H           -2.409570000000     2.347489000000     0.000000000000     1.007825032230
      Gh(O)          -1.598898000000    -2.691140000000     0.000000000000    15.994914619570
      Gh(H)          -1.189483000000    -1.801893000000     0.000000000000     1.007825032230
      Gh(H)          -0.828200000000    -3.260493000000     0.000000000000     1.007825032230

  Charge       = 0
  Multiplicity = 1
  Basis Set: AUG-CC-PVTZ
    Blend: AUG-CC-PVTZ
  Basis Set: (AUG-CC-PVTZ AUX)
    Blend: AUG-CC-PVTZ-JKFIT

    Orbital Energies [Eh]
    ---------------------

    Doubly Occupied:

       1A    -20.570376     2A     -1.349871     3A     -0.706292
       4A     -0.588136     5A     -0.510250

  @DF-RHF Final Energy:   -76.05912962516257

   => Energetics <=

    Nuclear Repulsion Energy =              9.0946339415776833
    One-Electron Energy =                -122.8576758786107774
    Two-Electron Energy =                  37.7039123118705248
    Total Energy =                        -76.0591296251625693
 Dipole X            :         29.3172261          -29.5260051           -0.2087790
 Dipole Y            :        -50.1347715           49.3607916           -0.7739799
 Dipole Z            :         -0.0000000            0.0000000           -0.0000000
 Magnitude           :                                                    0.8016443
  Basis Set: (AUG-CC-PVTZ AUX)
    Blend: AUG-CC-PVTZ-RI
	 Reference Energy          =     -76.0591296251625693 [Eh]
	 Singles Energy            =      -0.0000000000000000 [Eh]
	 Same-Spin Energy          =      -0.0686362250171176 [Eh]
	 Opposite-Spin Energy      =      -0.2165201167130930 [Eh]
	 Correlation Energy        =      -0.2851563417302106 [Eh]
	 Total Energy              =     -76.3442859668927838 [Eh]

	 ================> DF-SCS-MP2 Energies <==================
	-----------------------------------------------------------
	 SCS Same-Spin Scale       =       0.3333333333333333 [-]
	 SCS Opposite-Spin Scale   =       1.2000000000000000 [-]
	 SCS Same-Spin Energy      =      -0.0228787416723725 [Eh]
	 SCS Opposite-Spin Energy  =      -0.2598241400557116 [Eh]
	 SCS Correlation Energy    =      -0.2827028817280841 [Eh]
	 SCS Total Energy          =     -76.3418325068906540 [Eh]
	-----------------------------------------------------------

*** Psi4 exiting successfully. Buy a developer a beer!
