                               Psi4 1.9.1 release

  ==> Input File <==

--------------------------------------------------------------------------
MEMORY 60 GB

molecule dimer {
-1 1
Cl         0.000000     0.000000     0.000000
O         -0.625827     1.305436    -2.845021
H         -0.333603     0.654623    -2.181922
H         -0.401283     2.126388    -2.386172
O         -2.753995     1.248168    -0.821801
H         -1.999726     0.852379    -0.342959
H         -2.381722     1.280045    -1.715069
O         -0.346691     3.107636    -0.517618
H         -0.023288     2.235365    -0.222474
H         -1.299840     2.972506    -0.461474
O         -2.665224    -1.803758    -0.518504
H         -1.763499    -1.508150    -0.317440
H         -3.092618    -0.962083    -0.709237

units ang
no_reorient
no_com
symmetry c1
}

set {
basis        aug-cc-pVTZ
scf_type     df
}

energy("mp2")
--------------------------------------------------------------------------

    Molecular point group: c1

    Geometry (in Angstrom), charge = -1, multiplicity = 1:

       Center              X                  Y                   Z               Mass
    ------------   -----------------  -----------------  -----------------  -----------------
         CL           0.000000000000     0.000000000000     0.000000000000    34.968852682000
         O           -0.625827000000     1.305436000000    -2.845021000000    15.994914619570
         H           -0.333603000000     0.654623000000    -2.181922000000     1.007825032230
         H           -0.401283000000     2.126388000000    -2.386172000000     1.007825032230
         O           -2.753995000000     1.248168000000    -0.821801000000    15.994914619570
         H           -1.999726000000     0.852379000000    -0.342959000000     1.007825032230
         H           -2.381722000000     1.280045000000    -1.715069000000     1.007825032230
         O           -0.346691000000     3.107636000000    -0.517618000000    15.994914619570
         H           -0.023288000000     2.235365000000    -0.222474000000     1.007825032230
         H           -1.299840000000     2.972506000000    -0.461474000000     1.007825032230
         O           -2.665224000000    -1.803758000000    -0.518504000000    15.994914619570
         H           -1.763499000000    -1.508150000000    -0.317440000000     1.007825032230
         H           -3.092618000000    -0.962083000000    -0.709237000000     1.007825032230

  Charge       = -1
  Multiplicity = 1
  Basis Set: AUG-CC-PVTZ
    Blend: AUG-CC-PVTZ
  Basis Set: (AUG-CC-PVTZ AUX)
    Blend: AUG-CC-PVTZ-JKFIT

    Orbital Energies [Eh]
    ---------------------

    Doubly Occupied:

       1A   -104.592909     2A    -20.421364     3A    -20.418435
       4A    -20.416449     5A    -20.401749     6A    -10.318461
       7A     -7.784550     8A     -7.784516     9A     -7.784474
      10A     -1.218313    11A     -1.204500    12A     -1.199951
      13A     -1.187457    14A     -0.839229    15A     -0.564204
      16A     -0.561017    17A     -0.558290    18A     -0.544208
      19A     -0.469502    20A     -0.454787    21A     -0.453622
      22A     -0.435475    23A     -0.370949    24A     -0.361169
      25A     -0.359389    26A     -0.348463    27A     -0.249180
      28A     -0.247908    29A     -0.246361

  @DF-RHF Final Energy:  -763.87777050217039

   => Energetics <=

    Nuclear Repulsion Energy =            249.7497572357592901
    One-Electron Energy =               -1563.6612875498790345
    Two-Electron Energy =                 550.0337598119493805
    Total Energy =                       -763.8777705021703923
 Dipole X            :        119.6971185         -117.9746099            1.7225086
 Dipole Y            :        -73.1763924           72.7751086           -0.4012837
 Dipole Z            :         88.0423669          -86.8523778            1.1899892
 Magnitude           :                                                    2.1316986
  Basis Set: (AUG-CC-PVTZ AUX)
    Blend: AUG-CC-PVTZ-RI
	 Reference Energy          =    -763.8777705021703923 [Eh]
	 Singles Energy            =      -0.0000000000000000 [Eh]
	 Same-Spin Energy          =      -0.3518383672904729 [Eh]
	 Opposite-Spin Energy      =      -1.0614415294717310 [Eh]
	 Correlation Energy        =      -1.4132798967622038 [Eh]
	 Total Energy              =    -765.2910503989326116 [Eh]

	 ================> DF-SCS-MP2 Energies <==================
	-----------------------------------------------------------
	 SCS Same-Spin Scale       =       0.3333333333333333 [-]
	 SCS Opposite-Spin Scale   =       1.2000000000000000 [-]
	 SCS Same-Spin Energy      =      -0.1172794557634910 [Eh]
	 SCS Opposite-Spin Energy  =      -1.2737298353660771 [Eh]
	 SCS Correlation Energy    =      -1.3910092911295679 [Eh]
	 SCS Total Energy          =    -765.2687797932999274 [Eh]
	-----------------------------------------------------------

*** Psi4 exiting successfully. Buy a developer a beer!
