                               Psi4 1.9.1 release

  ==> Input File <==

--------------------------------------------------------------------------
MEMORY 60 GB

molecule dimer {
0 1
Gh(Cl)     0.000000     0.000000     0.000000
Gh(O)     -0.625827     1.305436    -2.845021
Gh(H)     -0.333603     0.654623    -2.181922
Gh(H)     -0.401283     2.126388    -2.386172
O         -2.753995     1.248168    -0.821801
H         -1.999726     0.852379    -0.342959
H         -2.381722     1.280045    -1.715069
Gh(O)     -0.346691     3.107636    -0.517618
Gh(H)     -0.023288     2.235365    -0.222474
Gh(H)     -1.299840     2.972506    -0.461474
Gh(O)     -2.665224    -1.803758    -0.518504
Gh(H)     -1.763499    -1.508150    -0.317440
Gh(H)     -3.092618    -0.962083    -0.709237

units ang
no_reorient
no_com
symmetry c1
}

set {
basis        aug-cc-pVTZ
scf_type     df
}

energy("mp2")
--------------------------------------------------------------------------

    Molecular point group: c1

    Geometry (in Angstrom), charge = 0, multiplicity = 1:

       Center              X                  Y                   Z               Mass
    ------------   -----------------  -----------------  -----------------  -----------------
      Gh(CL)          0.000000000000     0.000000000000     0.000000000000    34.968852682000
      Gh(O)          -0.625827000000     1.305436000000    -2.845021000000    15.994914619570
      Gh(H)          -0.333603000000     0.654623000000    -2.181922000000     1.007825032230
      Gh(H)          -0.401283000000     2.126388000000    -2.386172000000     1.007825032230
         O           -2.753995000000     1.248168000000    -0.821801000000    15.994914619570
         H           -1.999726000000     0.852379000000    -0.342959000000     1.007825032230
         H           -2.381722000000     1.280045000000    -1.715069000000     1.007825032230
      Gh(O)          -0.346691000000     3.107636000000    -0.517618000000    15.994914619570
      Gh(H)          -0.023288000000     2.235365000000    -0.222474000000     1.007825032230
      Gh(H)          -1.299840000000     2.972506000000    -0.461474000000     1.007825032230
      Gh(O)          -2.665224000000    -1.803758000000    -0.518504000000    15.994914619570
      Gh(H)          -1.763499000000    -1.508150000000    -0.317440000000     1.007825032230
      Gh(H)          -3.092618000000    -0.962083000000    -0.709237000000     1.007825032230

  Charge       = 0
  Multiplicity = 1
  Basis Set: AUG-CC-PVTZ
    Blend: AUG-CC-PVTZ
  Basis Set: (AUG-CC-PVTZ AUX)
    Blend: AUG-CC-PVTZ-JKFIT

    Orbital Energies [Eh]
    ---------------------

    Doubly Occupied:

       1A    -20.571779     2A     -1.349053     3A     -0.699948
       4A     -0.591247     5A     -0.510482

  @DF-RHF Final Energy:   -76.05848726668242

   => Energetics <=

    Nuclear Repulsion Energy =              9.0603512317068322
    One-Electron Energy =                -122.7926538635908429
    Two-Electron Energy =                  37.6738153652015839
    Total Energy =                        -76.0584872666824197
 Dipole X            :         50.6456156          -49.9141072            0.7315084
 Dipole Y            :        -23.1351922           22.8992628           -0.2359295
 Dipole Z            :         16.0420986          -16.3129398           -0.2708412
 Magnitude           :                                                    0.8149370
  Basis Set: (AUG-CC-PVTZ AUX)
    Blend: AUG-CC-PVTZ-RI
	 Reference Energy          =     -76.0584872666824197 [Eh]
	 Singles Energy            =      -0.0000000000000000 [Eh]
	 Same-Spin Energy          =      -0.0688685645752484 [Eh]
	 Opposite-Spin Energy      =      -0.2177723588318556 [Eh]
	 Correlation Energy        =      -0.2866409234071040 [Eh]
	 Total Energy              =     -76.3451281900895253 [Eh]

	 ================> DF-SCS-MP2 Energies <==================
	-----------------------------------------------------------
	 SCS Same-Spin Scale       =       0.3333333333333333 [-]
	 SCS Opposite-Spin Scale   =       1.2000000000000000 [-]
	 SCS Same-Spin Energy      =      -0.0229561881917495 [Eh]
	 SCS Opposite-Spin Energy  =      -0.2613268305982268 [Eh]
	 SCS Correlation Energy    =      -0.2842830187899762 [Eh]
	 SCS Total Energy          =     -76.3427702854723975 [Eh]
	-----------------------------------------------------------

*** Psi4 exiting successfully. Buy a developer a beer!
