                               Psi4 1.9.1 release

  ==> Input File <==

--------------------------------------------------------------------------
MEMORY 60 GB

molecule dimer {
-1 1
Cl         0.000000     0.000000     0.000000
Gh(O)     -0.625827     1.305436    -2.845021
Gh(H)     -0.333603     0.654623    -2.181922
Gh(H)     -0.401283     2.126388    -2.386172
Gh(O)     -2.753995     1.248168    -0.821801
Gh(H)     -1.999726     0.852379    -0.342959
Gh(H)     -2.381722     1.280045    -1.715069
Gh(O)     -0.346691     3.107636    -0.517618
Gh(H)     -0.023288     2.235365    -0.222474
Gh(H)     -1.299840     2.972506    -0.461474
Gh(O)     -2.665224    -1.803758    -0.518504
Gh(H)     -1.763499    -1.508150    -0.317440
Gh(H)     -3.092618    -0.962083    -0.709237

units ang
no_reorient
no_com
symmetry c1
}

set {
basis        aug-cc-pVTZ
scf_type     df
}

energy("mp2")
--------------------------------------------------------------------------

    Molecular point group: c1

    Geometry (in Angstrom), charge = -1, multiplicity = 1:

       Center              X                  Y                   Z               Mass
    ------------   -----------------  -----------------  -----------------  -----------------
         CL           0.000000000000     0.000000000000     0.000000000000    34.968852682000
      Gh(O)          -0.625827000000     1.305436000000    -2.845021000000    15.994914619570
      Gh(H)          -0.333603000000     0.654623000000    -2.181922000000     1.007825032230
      Gh(H)          -0.401283000000     2.126388000000    -2.386172000000     1.007825032230
      Gh(O)          -2.753995000000     1.248168000000    -0.821801000000    15.994914619570
      Gh(H)          -1.999726000000     0.852379000000    -0.342959000000     1.007825032230
      Gh(H)          -2.381722000000     1.280045000000    -1.715069000000     1.007825032230
      Gh(O)          -0.346691000000     3.107636000000    -0.517618000000    15.994914619570
      Gh(H)          -0.023288000000     2.235365000000    -0.222474000000     1.007825032230
      Gh(H)          -1.299840000000     2.972506000000    -0.461474000000     1.007825032230
      Gh(O)          -2.665224000000    -1.803758000000    -0.518504000000    15.994914619570
      Gh(H)          -1.763499000000    -1.508150000000    -0.317440000000     1.007825032230
      Gh(H)          -3.092618000000    -0.962083000000    -0.709237000000     1.007825032230

  Charge       = -1
  Multiplicity = 1
  Basis Set: AUG-CC-PVTZ
    Blend: AUG-CC-PVTZ
  Basis Set: (AUG-CC-PVTZ AUX)
    Blend: AUG-CC-PVTZ-JKFIT

    Orbital Energies [Eh]
    ---------------------

    Doubly Occupied:

       1A   -104.507152     2A    -10.230038     3A     -7.696118
       4A     -7.696091     5A     -7.696084     6A     -0.733478
       7A     -0.150318     8A     -0.150317     9A     -0.150313

  @DF-RHF Final Energy:  -459.57356489477070

   => Energetics <=

    Nuclear Repulsion Energy =              0.0000000000000000
    One-Electron Energy =                -641.1273233561564666
    Two-Electron Energy =                 181.5537584613857121
    Total Energy =                       -459.5735648947707546
 Dipole X            :         -0.0004998            0.0000000           -0.0004998
 Dipole Y            :          0.0003150            0.0000000            0.0003150
 Dipole Z            :         -0.0002712            0.0000000           -0.0002712
 Magnitude           :                                                    0.0006501
  Basis Set: (AUG-CC-PVTZ AUX)
    Blend: AUG-CC-PVTZ-RI
	 Reference Energy          =    -459.5735648947706977 [Eh]
	 Singles Energy            =      -0.0000000000000000 [Eh]
	 Same-Spin Energy          =      -0.0634407485632354 [Eh]
	 Opposite-Spin Energy      =      -0.1834652286824648 [Eh]
	 Correlation Energy        =      -0.2469059772457002 [Eh]
	 Total Energy              =    -459.8204708720164149 [Eh]

	 ================> DF-SCS-MP2 Energies <==================
	-----------------------------------------------------------
	 SCS Same-Spin Scale       =       0.3333333333333333 [-]
	 SCS Opposite-Spin Scale   =       1.2000000000000000 [-]
	 SCS Same-Spin Energy      =      -0.0211469161877451 [Eh]
	 SCS Opposite-Spin Energy  =      -0.2201582744189577 [Eh]
	 SCS Correlation Energy    =      -0.2413051906067029 [Eh]
	 SCS Total Energy          =    -459.8148700853773789 [Eh]
	-----------------------------------------------------------

*** Psi4 exiting successfully. Buy a developer a beer!
