                               Psi4 1.9 release

  ==> Input File <==

--------------------------------------------------------------------------
MEMORY 60 GB

molecule dimer {
-1 1
Cl     0.000000     0.000000     0.000000
--
0 1
O     -0.625827     1.305436    -2.845021
H     -0.333603     0.654623    -2.181922
H     -0.401283     2.126388    -2.386172
O     -2.753995     1.248168    -0.821801
H     -1.999726     0.852379    -0.342959
H     -2.381722     1.280045    -1.715069
O     -0.346691     3.107636    -0.517618
H     -0.023288     2.235365    -0.222474
H     -1.299840     2.972506    -0.461474
O     -2.665224    -1.803758    -0.518504
H     -1.763499    -1.508150    -0.317440
H     -3.092618    -0.962083    -0.709237

units ang
no_reorient
no_com
symmetry c1
}

set {
basis        aug-cc-pVTZ
scf_type     df
}

energy("mp2", bsse_type="cp")
--------------------------------------------------------------------------

                               Psi4 1.9 release
    Molecular point group: c1
  Charge       = 0
  Multiplicity = 1
  Basis Set: AUG-CC-PVTZ
    Blend: AUG-CC-PVTZ
  Basis Set: (AUG-CC-PVTZ AUX)
    Blend: AUG-CC-PVTZ-JKFIT
  @DF-RHF Final Energy:  -304.23360575643568
    Total Energy =                       -304.2336057564356224
 Dipole X            :        118.8738375         -117.9746099            0.8992276
 Dipole Y            :        -72.5960218           72.7751086            0.1790868
 Dipole Z            :         87.4354046          -86.8523778            0.5830269
 Magnitude           :                                                    1.0865554
  Basis Set: (AUG-CC-PVTZ AUX)
    Blend: AUG-CC-PVTZ-RI
	 Reference Energy          =    -304.2336057564356793 [Eh]
	 Singles Energy            =      -0.0000000000000000 [Eh]
	 Same-Spin Energy          =      -0.2802585654764291 [Eh]
	 Opposite-Spin Energy      =      -0.8732081199462910 [Eh]
	 Correlation Energy        =      -1.1534666854227202 [Eh]
	 Total Energy              =    -305.3870724418583791 [Eh]
	 SCS Total Energy          =    -305.3748750221967043 [Eh]
                               Psi4 1.9 release
    Molecular point group: c1
  Multiplicity = 1
  Basis Set: AUG-CC-PVTZ
    Blend: AUG-CC-PVTZ
  Basis Set: (AUG-CC-PVTZ AUX)
    Blend: AUG-CC-PVTZ-JKFIT
  @DF-RHF Final Energy:  -459.57356489477121
    Total Energy =                       -459.5735648947711525
  Basis Set: (AUG-CC-PVTZ AUX)
	 Singles Energy            =      -0.0000000000000000 [Eh]
	 Same-Spin Energy          =      -0.0634407485632355 [Eh]
	 Opposite-Spin Energy      =      -0.1834652286824648 [Eh]
	 Correlation Energy        =      -0.2469059772457004 [Eh]
	 Total Energy              =    -459.8204708720169265 [Eh]
	 SCS Total Energy          =    -459.8148700853778905 [Eh]
                               Psi4 1.9 release
    Molecular point group: c1

    Geometry (in Bohr), charge = -1, multiplicity = 1:

       Center              X                  Y                   Z               Mass
    ------------   -----------------  -----------------  -----------------  -----------------
         CL           0.000000000000     0.000000000000     0.000000000000    34.968852682000
         O           -1.182641631917     2.466916514313    -5.376310511176    15.994914619570
         H           -0.630418304631     1.237058185426    -4.123235007111     1.007825032230
         H           -0.758314968802     4.018290956460    -4.509211568236     1.007825032230
         O           -5.204296300880     2.358695678560    -1.552978819627    15.994914619570
         H           -3.778934465957     1.610762865092    -0.648098582261     1.007825032230
         H           -4.500802286978     2.418934478262    -3.241010696263     1.007825032230
         O           -0.655151040161     5.872580937613    -0.978156257607    15.994914619570
         H           -0.044007942010     4.224227640434    -0.420414930035     1.007825032230
         H           -2.456341606915     5.617222246280    -0.872059474020     1.007825032230
         O           -5.036543422997    -3.408608616604    -0.979830554954    15.994914619570
         H           -3.332530132519    -2.849990456109    -0.599874661265     1.007825032230
         H           -5.844201030661    -1.818073379959    -1.340263688041     1.007825032230

  Charge       = -1
  Multiplicity = 1
  Basis Set: AUG-CC-PVTZ
    Blend: AUG-CC-PVTZ
  Basis Set: (AUG-CC-PVTZ AUX)
    Blend: AUG-CC-PVTZ-JKFIT

    Orbital Energies [Eh]
    ---------------------

    Doubly Occupied:

       1A   -104.592909     2A    -20.421364     3A    -20.418435
       4A    -20.416449     5A    -20.401749     6A    -10.318461
       7A     -7.784550     8A     -7.784516     9A     -7.784474
      10A     -1.218313    11A     -1.204500    12A     -1.199951
      13A     -1.187457    14A     -0.839229    15A     -0.564204
      16A     -0.561017    17A     -0.558290    18A     -0.544208
      19A     -0.469502    20A     -0.454787    21A     -0.453622
      22A     -0.435475    23A     -0.370949    24A     -0.361169
      25A     -0.359389    26A     -0.348463    27A     -0.249180
      28A     -0.247908    29A     -0.246361

  @DF-RHF Final Energy:  -763.87777050217153

   => Energetics <=

    Nuclear Repulsion Energy =            249.7497572357592901
    One-Electron Energy =               -1563.6612875498810808
    Two-Electron Energy =                 550.0337598119502900
    Total Energy =                       -763.8777705021715292
 Dipole X            :        119.6971185         -117.9746099            1.7225086
 Dipole Y            :        -73.1763924           72.7751086           -0.4012837
 Dipole Z            :         88.0423669          -86.8523778            1.1899892
 Magnitude           :                                                    2.1316986
  Basis Set: (AUG-CC-PVTZ AUX)
    Blend: AUG-CC-PVTZ-RI
	 Reference Energy          =    -763.8777705021715292 [Eh]
	 Singles Energy            =      -0.0000000000000000 [Eh]
	 Same-Spin Energy          =      -0.3518383672904561 [Eh]
	 Opposite-Spin Energy      =      -1.0614415294716433 [Eh]
	 Correlation Energy        =      -1.4132798967620994 [Eh]
	 Total Energy              =    -765.2910503989336348 [Eh]

	 ================> DF-SCS-MP2 Energies <==================
	-----------------------------------------------------------
	 SCS Same-Spin Scale       =       0.3333333333333333 [-]
	 SCS Opposite-Spin Scale   =       1.2000000000000000 [-]
	 SCS Same-Spin Energy      =      -0.1172794557634854 [Eh]
	 SCS Opposite-Spin Energy  =      -1.2737298353659718 [Eh]
	 SCS Correlation Energy    =      -1.3910092911294571 [Eh]
	 SCS Total Energy          =    -765.2687797933009506 [Eh]
	-----------------------------------------------------------

*** Psi4 exiting successfully. Buy a developer a beer!
