                               Psi4 1.9.1 release

  ==> Input File <==

--------------------------------------------------------------------------
MEMORY 60 GB

molecule dimer {
-1 1
Cl         0.000000     0.000000     0.000000
Gh(O)      1.193847     3.059880    -0.191540
Gh(H)      1.050622     2.135766     0.059877
Gh(H)      0.488373     3.190725    -0.833172
Gh(O)     -1.255328     2.203026    -1.849559
Gh(H)     -0.728175     1.510309    -1.405975
Gh(H)     -1.946042     2.352910    -1.192080
Gh(O)     -2.899295     1.180833     0.498000
Gh(H)     -1.947579     0.986003     0.566824
Gh(H)     -3.147755     0.570971    -0.212177
Gh(O)     -1.994106    -1.093016     2.374025
Gh(H)     -1.243096    -0.952935     1.778982
Gh(H)     -2.613084    -0.428489     2.054550
Gh(O)     -2.567289    -0.530699    -1.853207
Gh(H)     -1.770490    -0.696869    -1.319972
Gh(H)     -2.317304     0.282618    -2.307820

units ang
no_reorient
no_com
symmetry c1
}

set {
basis        aug-cc-pVTZ
scf_type     df
}

energy("mp2")
--------------------------------------------------------------------------

    Molecular point group: c1

    Geometry (in Angstrom), charge = -1, multiplicity = 1:

       Center              X                  Y                   Z               Mass
    ------------   -----------------  -----------------  -----------------  -----------------
         CL           0.000000000000     0.000000000000     0.000000000000    34.968852682000
      Gh(O)           1.193847000000     3.059880000000    -0.191540000000    15.994914619570
      Gh(H)           1.050622000000     2.135766000000     0.059877000000     1.007825032230
      Gh(H)           0.488373000000     3.190725000000    -0.833172000000     1.007825032230
      Gh(O)          -1.255328000000     2.203026000000    -1.849559000000    15.994914619570
      Gh(H)          -0.728175000000     1.510309000000    -1.405975000000     1.007825032230
      Gh(H)          -1.946042000000     2.352910000000    -1.192080000000     1.007825032230
      Gh(O)          -2.899295000000     1.180833000000     0.498000000000    15.994914619570
      Gh(H)          -1.947579000000     0.986003000000     0.566824000000     1.007825032230
      Gh(H)          -3.147755000000     0.570971000000    -0.212177000000     1.007825032230
      Gh(O)          -1.994106000000    -1.093016000000     2.374025000000    15.994914619570
      Gh(H)          -1.243096000000    -0.952935000000     1.778982000000     1.007825032230
      Gh(H)          -2.613084000000    -0.428489000000     2.054550000000     1.007825032230
      Gh(O)          -2.567289000000    -0.530699000000    -1.853207000000    15.994914619570
      Gh(H)          -1.770490000000    -0.696869000000    -1.319972000000     1.007825032230
      Gh(H)          -2.317304000000     0.282618000000    -2.307820000000     1.007825032230

  Charge       = -1
  Multiplicity = 1
  Basis Set: AUG-CC-PVTZ
    Blend: AUG-CC-PVTZ
  Basis Set: (AUG-CC-PVTZ AUX)
    Blend: AUG-CC-PVTZ-JKFIT

    Orbital Energies [Eh]
    ---------------------

    Doubly Occupied:

       1A   -104.507334     2A    -10.230084     3A     -7.696163
       4A     -7.696141     5A     -7.696133     6A     -0.733472
       7A     -0.150314     8A     -0.150312     9A     -0.150309

  @DF-RHF Final Energy:  -459.57357975257179

   => Energetics <=

    Nuclear Repulsion Energy =              0.0000000000000000
    One-Electron Energy =                -641.1266481909741515
    Two-Electron Energy =                 181.5530684384023061
    Total Energy =                       -459.5735797525718453
 Dipole X            :         -0.0003706            0.0000000           -0.0003706
 Dipole Y            :          0.0003164            0.0000000            0.0003164
 Dipole Z            :         -0.0001347            0.0000000           -0.0001347
 Magnitude           :                                                    0.0005056
  Basis Set: (AUG-CC-PVTZ AUX)
    Blend: AUG-CC-PVTZ-RI
	 Reference Energy          =    -459.5735797525717885 [Eh]
	 Singles Energy            =      -0.0000000000000000 [Eh]
	 Same-Spin Energy          =      -0.0636399395960579 [Eh]
	 Opposite-Spin Energy      =      -0.1842852635943932 [Eh]
	 Correlation Energy        =      -0.2479252031904511 [Eh]
	 Total Energy              =    -459.8215049557622365 [Eh]

	 ================> DF-SCS-MP2 Energies <==================
	-----------------------------------------------------------
	 SCS Same-Spin Scale       =       0.3333333333333333 [-]
	 SCS Opposite-Spin Scale   =       1.2000000000000000 [-]
	 SCS Same-Spin Energy      =      -0.0212133131986860 [Eh]
	 SCS Opposite-Spin Energy  =      -0.2211423163132719 [Eh]
	 SCS Correlation Energy    =      -0.2423556295119579 [Eh]
	 SCS Total Energy          =    -459.8159353820837509 [Eh]
	-----------------------------------------------------------

*** Psi4 exiting successfully. Buy a developer a beer!
