                               Psi4 1.9.1 release

  ==> Input File <==

--------------------------------------------------------------------------
MEMORY 60 GB

molecule dimer {
-1 1
Cl         0.000000     0.000000     0.000000
O          1.193847     3.059880    -0.191540
H          1.050622     2.135766     0.059877
H          0.488373     3.190725    -0.833172
O         -1.255328     2.203026    -1.849559
H         -0.728175     1.510309    -1.405975
H         -1.946042     2.352910    -1.192080
O         -2.899295     1.180833     0.498000
H         -1.947579     0.986003     0.566824
H         -3.147755     0.570971    -0.212177
O         -1.994106    -1.093016     2.374025
H         -1.243096    -0.952935     1.778982
H         -2.613084    -0.428489     2.054550
O         -2.567289    -0.530699    -1.853207
H         -1.770490    -0.696869    -1.319972
H         -2.317304     0.282618    -2.307820

units ang
no_reorient
no_com
symmetry c1
}

set {
basis        aug-cc-pVTZ
scf_type     df
}

energy("mp2")
--------------------------------------------------------------------------

    Molecular point group: c1

    Geometry (in Angstrom), charge = -1, multiplicity = 1:

       Center              X                  Y                   Z               Mass
    ------------   -----------------  -----------------  -----------------  -----------------
         CL           0.000000000000     0.000000000000     0.000000000000    34.968852682000
         O            1.193847000000     3.059880000000    -0.191540000000    15.994914619570
         H            1.050622000000     2.135766000000     0.059877000000     1.007825032230
         H            0.488373000000     3.190725000000    -0.833172000000     1.007825032230
         O           -1.255328000000     2.203026000000    -1.849559000000    15.994914619570
         H           -0.728175000000     1.510309000000    -1.405975000000     1.007825032230
         H           -1.946042000000     2.352910000000    -1.192080000000     1.007825032230
         O           -2.899295000000     1.180833000000     0.498000000000    15.994914619570
         H           -1.947579000000     0.986003000000     0.566824000000     1.007825032230
         H           -3.147755000000     0.570971000000    -0.212177000000     1.007825032230
         O           -1.994106000000    -1.093016000000     2.374025000000    15.994914619570
         H           -1.243096000000    -0.952935000000     1.778982000000     1.007825032230
         H           -2.613084000000    -0.428489000000     2.054550000000     1.007825032230
         O           -2.567289000000    -0.530699000000    -1.853207000000    15.994914619570
         H           -1.770490000000    -0.696869000000    -1.319972000000     1.007825032230
         H           -2.317304000000     0.282618000000    -2.307820000000     1.007825032230

  Charge       = -1
  Multiplicity = 1
  Basis Set: AUG-CC-PVTZ
    Blend: AUG-CC-PVTZ
  Basis Set: (AUG-CC-PVTZ AUX)
    Blend: AUG-CC-PVTZ-JKFIT

    Orbital Energies [Eh]
    ---------------------

    Doubly Occupied:

       1A   -104.612090     2A    -20.437880     3A    -20.435339
       4A    -20.431211     5A    -20.414238     6A    -20.412805
       7A    -10.337914     8A     -7.803998     9A     -7.803965
      10A     -7.803925    11A     -1.234731    12A     -1.221613
      13A     -1.216556    14A     -1.200483    15A     -1.198837
      16A     -0.860910    17A     -0.582570    18A     -0.578888
      19A     -0.575311    20A     -0.558645    21A     -0.555984
      22A     -0.485319    23A     -0.469661    24A     -0.468976
      25A     -0.447456    26A     -0.445566    27A     -0.386124
      28A     -0.376657    29A     -0.374527    30A     -0.360676
      31A     -0.359275    32A     -0.269401    33A     -0.268414
      34A     -0.266755

  @DF-RHF Final Energy:  -839.94955306584302

   => Energetics <=

    Nuclear Repulsion Energy =            336.0803481420069829
    One-Electron Energy =               -1841.5463925100518736
    Two-Electron Energy =                 665.5164913022019846
    Total Energy =                       -839.9495530658430198
 Dipole X            :        141.7717515         -140.5047241            1.2670273
 Dipole Y            :        -90.7490664           89.7831578           -0.9659086
 Dipole Z            :         20.2832922          -20.7665991           -0.4833070
 Magnitude           :                                                    1.6649094
  Basis Set: (AUG-CC-PVTZ AUX)
    Blend: AUG-CC-PVTZ-RI
	 Reference Energy          =    -839.9495530658430198 [Eh]
	 Singles Energy            =      -0.0000000000000000 [Eh]
	 Same-Spin Energy          =      -0.4230809301849012 [Eh]
	 Opposite-Spin Energy      =      -1.2809526072354460 [Eh]
	 Correlation Energy        =      -1.7040335374203472 [Eh]
	 Total Energy              =    -841.6535866032634203 [Eh]

	 ================> DF-SCS-MP2 Energies <==================
	-----------------------------------------------------------
	 SCS Same-Spin Scale       =       0.3333333333333333 [-]
	 SCS Opposite-Spin Scale   =       1.2000000000000000 [-]
	 SCS Same-Spin Energy      =      -0.1410269767283004 [Eh]
	 SCS Opposite-Spin Energy  =      -1.5371431286825352 [Eh]
	 SCS Correlation Energy    =      -1.6781701054108356 [Eh]
	 SCS Total Energy          =    -841.6277231712538196 [Eh]
	-----------------------------------------------------------

*** Psi4 exiting successfully. Buy a developer a beer!
