                               Psi4 1.9.1 release

  ==> Input File <==

--------------------------------------------------------------------------
MEMORY 60 GB

molecule dimer {
0 1
Gh(Cl)     0.000000     0.000000     0.000000
Gh(O)      1.193847     3.059880    -0.191540
Gh(H)      1.050622     2.135766     0.059877
Gh(H)      0.488373     3.190725    -0.833172
O         -1.255328     2.203026    -1.849559
H         -0.728175     1.510309    -1.405975
H         -1.946042     2.352910    -1.192080
Gh(O)     -2.899295     1.180833     0.498000
Gh(H)     -1.947579     0.986003     0.566824
Gh(H)     -3.147755     0.570971    -0.212177
Gh(O)     -1.994106    -1.093016     2.374025
Gh(H)     -1.243096    -0.952935     1.778982
Gh(H)     -2.613084    -0.428489     2.054550
Gh(O)     -2.567289    -0.530699    -1.853207
Gh(H)     -1.770490    -0.696869    -1.319972
Gh(H)     -2.317304     0.282618    -2.307820

units ang
no_reorient
no_com
symmetry c1
}

set {
basis        aug-cc-pVTZ
scf_type     df
}

energy("mp2")
--------------------------------------------------------------------------

    Molecular point group: c1

    Geometry (in Angstrom), charge = 0, multiplicity = 1:

       Center              X                  Y                   Z               Mass
    ------------   -----------------  -----------------  -----------------  -----------------
      Gh(CL)          0.000000000000     0.000000000000     0.000000000000    34.968852682000
      Gh(O)           1.193847000000     3.059880000000    -0.191540000000    15.994914619570
      Gh(H)           1.050622000000     2.135766000000     0.059877000000     1.007825032230
      Gh(H)           0.488373000000     3.190725000000    -0.833172000000     1.007825032230
         O           -1.255328000000     2.203026000000    -1.849559000000    15.994914619570
         H           -0.728175000000     1.510309000000    -1.405975000000     1.007825032230
         H           -1.946042000000     2.352910000000    -1.192080000000     1.007825032230
      Gh(O)          -2.899295000000     1.180833000000     0.498000000000    15.994914619570
      Gh(H)          -1.947579000000     0.986003000000     0.566824000000     1.007825032230
      Gh(H)          -3.147755000000     0.570971000000    -0.212177000000     1.007825032230
      Gh(O)          -1.994106000000    -1.093016000000     2.374025000000    15.994914619570
      Gh(H)          -1.243096000000    -0.952935000000     1.778982000000     1.007825032230
      Gh(H)          -2.613084000000    -0.428489000000     2.054550000000     1.007825032230
      Gh(O)          -2.567289000000    -0.530699000000    -1.853207000000    15.994914619570
      Gh(H)          -1.770490000000    -0.696869000000    -1.319972000000     1.007825032230
      Gh(H)          -2.317304000000     0.282618000000    -2.307820000000     1.007825032230

  Charge       = 0
  Multiplicity = 1
  Basis Set: AUG-CC-PVTZ
    Blend: AUG-CC-PVTZ
  Basis Set: (AUG-CC-PVTZ AUX)
    Blend: AUG-CC-PVTZ-JKFIT

    Orbital Energies [Eh]
    ---------------------

    Doubly Occupied:

       1A    -20.571049     2A     -1.349078     3A     -0.702895
       4A     -0.589455     5A     -0.510294

  @DF-RHF Final Energy:   -76.05892677365632

   => Energetics <=

    Nuclear Repulsion Energy =              9.0723065657008597
    One-Electron Energy =                -122.8169211014422189
    Two-Electron Energy =                  37.6856877620850312
    Total Energy =                        -76.0589267736563386
 Dipole X            :         23.9228950          -24.0313467           -0.1084517
 Dipole Y            :        -40.9581946           40.6053522           -0.3528424
 Dipole Z            :         33.5893319          -32.8708921            0.7184398
 Magnitude           :                                                    0.8077223
  Basis Set: (AUG-CC-PVTZ AUX)
    Blend: AUG-CC-PVTZ-RI
	 Reference Energy          =     -76.0589267736563244 [Eh]
	 Singles Energy            =      -0.0000000000000000 [Eh]
	 Same-Spin Energy          =      -0.0688116823025265 [Eh]
	 Opposite-Spin Energy      =      -0.2176519195813227 [Eh]
	 Correlation Energy        =      -0.2864636018838492 [Eh]
	 Total Energy              =     -76.3453903755401768 [Eh]

	 ================> DF-SCS-MP2 Energies <==================
	-----------------------------------------------------------
	 SCS Same-Spin Scale       =       0.3333333333333333 [-]
	 SCS Opposite-Spin Scale   =       1.2000000000000000 [-]
	 SCS Same-Spin Energy      =      -0.0229372274341755 [Eh]
	 SCS Opposite-Spin Energy  =      -0.2611823034975873 [Eh]
	 SCS Correlation Energy    =      -0.2841195309317627 [Eh]
	 SCS Total Energy          =     -76.3430463045880856 [Eh]
	-----------------------------------------------------------

*** Psi4 exiting successfully. Buy a developer a beer!
