                               Psi4 1.9.1 release

  ==> Input File <==

--------------------------------------------------------------------------
MEMORY 60 GB

molecule dimer {
0 1
Gh(Cl)     0.000000     0.000000     0.000000
Gh(O)      1.193847     3.059880    -0.191540
Gh(H)      1.050622     2.135766     0.059877
Gh(H)      0.488373     3.190725    -0.833172
Gh(O)     -1.255328     2.203026    -1.849559
Gh(H)     -0.728175     1.510309    -1.405975
Gh(H)     -1.946042     2.352910    -1.192080
Gh(O)     -2.899295     1.180833     0.498000
Gh(H)     -1.947579     0.986003     0.566824
Gh(H)     -3.147755     0.570971    -0.212177
O         -1.994106    -1.093016     2.374025
H         -1.243096    -0.952935     1.778982
H         -2.613084    -0.428489     2.054550
Gh(O)     -2.567289    -0.530699    -1.853207
Gh(H)     -1.770490    -0.696869    -1.319972
Gh(H)     -2.317304     0.282618    -2.307820

units ang
no_reorient
no_com
symmetry c1
}

set {
basis        aug-cc-pVTZ
scf_type     df
}

energy("mp2")
--------------------------------------------------------------------------

    Molecular point group: c1

    Geometry (in Angstrom), charge = 0, multiplicity = 1:

       Center              X                  Y                   Z               Mass
    ------------   -----------------  -----------------  -----------------  -----------------
      Gh(CL)          0.000000000000     0.000000000000     0.000000000000    34.968852682000
      Gh(O)           1.193847000000     3.059880000000    -0.191540000000    15.994914619570
      Gh(H)           1.050622000000     2.135766000000     0.059877000000     1.007825032230
      Gh(H)           0.488373000000     3.190725000000    -0.833172000000     1.007825032230
      Gh(O)          -1.255328000000     2.203026000000    -1.849559000000    15.994914619570
      Gh(H)          -0.728175000000     1.510309000000    -1.405975000000     1.007825032230
      Gh(H)          -1.946042000000     2.352910000000    -1.192080000000     1.007825032230
      Gh(O)          -2.899295000000     1.180833000000     0.498000000000    15.994914619570
      Gh(H)          -1.947579000000     0.986003000000     0.566824000000     1.007825032230
      Gh(H)          -3.147755000000     0.570971000000    -0.212177000000     1.007825032230
         O           -1.994106000000    -1.093016000000     2.374025000000    15.994914619570
         H           -1.243096000000    -0.952935000000     1.778982000000     1.007825032230
         H           -2.613084000000    -0.428489000000     2.054550000000     1.007825032230
      Gh(O)          -2.567289000000    -0.530699000000    -1.853207000000    15.994914619570
      Gh(H)          -1.770490000000    -0.696869000000    -1.319972000000     1.007825032230
      Gh(H)          -2.317304000000     0.282618000000    -2.307820000000     1.007825032230

  Charge       = 0
  Multiplicity = 1
  Basis Set: AUG-CC-PVTZ
    Blend: AUG-CC-PVTZ
  Basis Set: (AUG-CC-PVTZ AUX)
    Blend: AUG-CC-PVTZ-JKFIT

    Orbital Energies [Eh]
    ---------------------

    Doubly Occupied:

       1A    -20.570032     2A     -1.351669     3A     -0.706854
       4A     -0.589737     5A     -0.510606

  @DF-RHF Final Energy:   -76.05953985686639

   => Energetics <=

    Nuclear Repulsion Energy =              9.1237237860181803
    One-Electron Energy =                -122.9087281866283803
    Two-Electron Energy =                  37.7254645437438043
    Total Energy =                        -76.0595398568663938
 Dipole X            :         37.5192852          -37.4336377            0.0856475
 Dipole Y            :         19.6625769          -19.1345201            0.5280567
 Dipole Z            :        -43.7339272           43.1343821           -0.5995451
 Magnitude           :                                                    0.8035133
  Basis Set: (AUG-CC-PVTZ AUX)
    Blend: AUG-CC-PVTZ-RI
	 Reference Energy          =     -76.0595398568663938 [Eh]
	 Singles Energy            =      -0.0000000000000000 [Eh]
	 Same-Spin Energy          =      -0.0686166799166174 [Eh]
	 Opposite-Spin Energy      =      -0.2166229300064709 [Eh]
	 Correlation Energy        =      -0.2852396099230882 [Eh]
	 Total Energy              =     -76.3447794667894755 [Eh]

	 ================> DF-SCS-MP2 Energies <==================
	-----------------------------------------------------------
	 SCS Same-Spin Scale       =       0.3333333333333333 [-]
	 SCS Opposite-Spin Scale   =       1.2000000000000000 [-]
	 SCS Same-Spin Energy      =      -0.0228722266388725 [Eh]
	 SCS Opposite-Spin Energy  =      -0.2599475160077651 [Eh]
	 SCS Correlation Energy    =      -0.2828197426466375 [Eh]
	 SCS Total Energy          =     -76.3423595995130313 [Eh]
	-----------------------------------------------------------

*** Psi4 exiting successfully. Buy a developer a beer!
