                               Psi4 1.9 release

  ==> Input File <==

--------------------------------------------------------------------------
MEMORY 60 GB

molecule dimer {
-1 1
Cl     0.000000     0.000000     0.000000
--
0 1
O      1.193847     3.059880    -0.191540
H      1.050622     2.135766     0.059877
H      0.488373     3.190725    -0.833172
O     -1.255328     2.203026    -1.849559
H     -0.728175     1.510309    -1.405975
H     -1.946042     2.352910    -1.192080
O     -2.899295     1.180833     0.498000
H     -1.947579     0.986003     0.566824
H     -3.147755     0.570971    -0.212177
O     -1.994106    -1.093016     2.374025
H     -1.243096    -0.952935     1.778982
H     -2.613084    -0.428489     2.054550
O     -2.567289    -0.530699    -1.853207
H     -1.770490    -0.696869    -1.319972
H     -2.317304     0.282618    -2.307820

units ang
no_reorient
no_com
symmetry c1
}

set {
basis        aug-cc-pVTZ
scf_type     df
}

energy("mp2", bsse_type="cp")
--------------------------------------------------------------------------

                               Psi4 1.9 release
    Molecular point group: c1
  Charge       = 0
  Multiplicity = 1
  Basis Set: AUG-CC-PVTZ
    Blend: AUG-CC-PVTZ
  Basis Set: (AUG-CC-PVTZ AUX)
    Blend: AUG-CC-PVTZ-JKFIT
  @DF-RHF Final Energy:  -380.28970668452774
    Total Energy =                       -380.2897066845277436
 Dipole X            :        140.7916255         -140.5047241            0.2869013
 Dipole Y            :        -90.1258800           89.7831578           -0.3427222
 Dipole Z            :         20.0675522          -20.7665991           -0.6990470
 Magnitude           :                                                    0.8297214
  Basis Set: (AUG-CC-PVTZ AUX)
    Blend: AUG-CC-PVTZ-RI
	 Reference Energy          =    -380.2897066845277436 [Eh]
	 Singles Energy            =      -0.0000000000000000 [Eh]
	 Same-Spin Energy          =      -0.3500086480248356 [Eh]
	 Opposite-Spin Energy      =      -1.0912944589264146 [Eh]
	 Correlation Energy        =      -1.4413031069512501 [Eh]
	 Total Energy              =    -381.7310097914789822 [Eh]
	 SCS Total Energy          =    -381.7159295845810334 [Eh]
                               Psi4 1.9 release
    Molecular point group: c1
  Multiplicity = 1
  Basis Set: AUG-CC-PVTZ
    Blend: AUG-CC-PVTZ
  Basis Set: (AUG-CC-PVTZ AUX)
    Blend: AUG-CC-PVTZ-JKFIT
  @DF-RHF Final Energy:  -459.57357975258208
    Total Energy =                       -459.5735797525820772
  Basis Set: (AUG-CC-PVTZ AUX)
	 Singles Energy            =      -0.0000000000000000 [Eh]
	 Same-Spin Energy          =      -0.0636399395960348 [Eh]
	 Opposite-Spin Energy      =      -0.1842852635943132 [Eh]
	 Correlation Energy        =      -0.2479252031903480 [Eh]
	 Total Energy              =    -459.8215049557724114 [Eh]
	 SCS Total Energy          =    -459.8159353820939259 [Eh]
                               Psi4 1.9 release
    Molecular point group: c1

    Geometry (in Bohr), charge = -1, multiplicity = 1:

       Center              X                  Y                   Z               Mass
    ------------   -----------------  -----------------  -----------------  -----------------
         CL           0.000000000000     0.000000000000     0.000000000000    34.968852682000
         O            2.256043865699     5.782335176766    -0.361958142070    15.994914619570
         H            1.985387841381     4.036012808065     0.113151131214     1.007825032230
         H            0.922891217068     6.029596391651    -1.574466895400     1.007825032230
         O           -2.372226117619     4.163115787263    -3.495159962876    15.994914619570
         H           -1.376051321405     2.854070374814    -2.656907689241     1.007825032230
         H           -3.677486408638     4.446355497851    -2.252704719636     1.007825032230
         O           -5.478873506909     2.231450969903     0.941083610478    15.994914619570
         H           -3.680390917693     1.863275628880     1.071142121337     1.007825032230
         H           -5.948394860041     1.078978815579    -0.400956420121     1.007825032230
         O           -3.768314205132    -2.065500890743     4.486257064990    15.994914619570
         H           -2.349110987652    -1.800786165363     3.361788762119     1.007825032230
         H           -4.938013102816    -0.809726857771     3.882536811059     1.007825032230
         O           -4.851473094901    -1.002875765054    -3.502053683781    15.994914619570
         H           -3.345741207862    -1.316891555322    -2.494385573273     1.007825032230
         H           -4.379069909428     0.534070618125    -4.361147746854     1.007825032230

  Charge       = -1
  Multiplicity = 1
  Basis Set: AUG-CC-PVTZ
    Blend: AUG-CC-PVTZ
  Basis Set: (AUG-CC-PVTZ AUX)
    Blend: AUG-CC-PVTZ-JKFIT

    Orbital Energies [Eh]
    ---------------------

    Doubly Occupied:

       1A   -104.612090     2A    -20.437880     3A    -20.435339
       4A    -20.431211     5A    -20.414238     6A    -20.412805
       7A    -10.337914     8A     -7.803998     9A     -7.803965
      10A     -7.803925    11A     -1.234731    12A     -1.221613
      13A     -1.216556    14A     -1.200483    15A     -1.198837
      16A     -0.860910    17A     -0.582570    18A     -0.578888
      19A     -0.575311    20A     -0.558645    21A     -0.555984
      22A     -0.485319    23A     -0.469661    24A     -0.468976
      25A     -0.447456    26A     -0.445566    27A     -0.386124
      28A     -0.376657    29A     -0.374527    30A     -0.360676
      31A     -0.359275    32A     -0.269401    33A     -0.268414
      34A     -0.266755

  @DF-RHF Final Energy:  -839.94955306615384

   => Energetics <=

    Nuclear Repulsion Energy =            336.0803481420069829
    One-Electron Energy =               -1841.5463925101721543
    Two-Electron Energy =                 665.5164913020112181
    Total Energy =                       -839.9495530661538396
 Dipole X            :        141.7717515         -140.5047241            1.2670273
 Dipole Y            :        -90.7490664           89.7831578           -0.9659086
 Dipole Z            :         20.2832922          -20.7665991           -0.4833070
 Magnitude           :                                                    1.6649094
  Basis Set: (AUG-CC-PVTZ AUX)
    Blend: AUG-CC-PVTZ-RI
	 Reference Energy          =    -839.9495530661538396 [Eh]
	 Singles Energy            =      -0.0000000000000000 [Eh]
	 Same-Spin Energy          =      -0.4230809301845138 [Eh]
	 Opposite-Spin Energy      =      -1.2809526072341657 [Eh]
	 Correlation Energy        =      -1.7040335374186795 [Eh]
	 Total Energy              =    -841.6535866035725348 [Eh]

	 ================> DF-SCS-MP2 Energies <==================
	-----------------------------------------------------------
	 SCS Same-Spin Scale       =       0.3333333333333333 [-]
	 SCS Opposite-Spin Scale   =       1.2000000000000000 [-]
	 SCS Same-Spin Energy      =      -0.1410269767281712 [Eh]
	 SCS Opposite-Spin Energy  =      -1.5371431286809989 [Eh]
	 SCS Correlation Energy    =      -1.6781701054091702 [Eh]
	 SCS Total Energy          =    -841.6277231715630478 [Eh]
	-----------------------------------------------------------

*** Psi4 exiting successfully. Buy a developer a beer!
