                               Psi4 1.9.1 release

  ==> Input File <==

--------------------------------------------------------------------------
MEMORY 60 GB

molecule dimer {
-1 1
Cl         0.000000     0.000000     0.000000
O          1.083689     1.019284    -2.849619
H          0.880687     0.456888    -2.083836
H          1.032320     1.893726    -2.438242
O         -0.211212     3.060275    -1.192583
H         -0.176407     2.270776    -0.630950
H         -0.865972     2.815740    -1.865417
O         -2.730463    -0.064418    -1.476959
H         -1.897593     0.133251    -1.001609
H         -2.589112    -0.999855    -1.683691
O         -1.537426    -2.692392    -1.006896
H         -0.795193    -2.078400    -0.894851
H         -1.998456    -2.564264    -0.165396
O         -2.637711    -1.271188     1.306531
H         -1.756257    -0.872341     1.206380
H         -3.134176    -0.785556     0.637347
O         -1.665311     1.785511    -3.369201
H         -0.781589     1.388004    -3.419015
H         -2.171017     1.136460    -2.853942

units ang
no_reorient
no_com
symmetry c1
}

set {
basis        aug-cc-pVTZ
scf_type     df
}

energy("mp2")
--------------------------------------------------------------------------

    Molecular point group: c1

    Geometry (in Angstrom), charge = -1, multiplicity = 1:

       Center              X                  Y                   Z               Mass
    ------------   -----------------  -----------------  -----------------  -----------------
         CL           0.000000000000     0.000000000000     0.000000000000    34.968852682000
         O            1.083689000000     1.019284000000    -2.849619000000    15.994914619570
         H            0.880687000000     0.456888000000    -2.083836000000     1.007825032230
         H            1.032320000000     1.893726000000    -2.438242000000     1.007825032230
         O           -0.211212000000     3.060275000000    -1.192583000000    15.994914619570
         H           -0.176407000000     2.270776000000    -0.630950000000     1.007825032230
         H           -0.865972000000     2.815740000000    -1.865417000000     1.007825032230
         O           -2.730463000000    -0.064418000000    -1.476959000000    15.994914619570
         H           -1.897593000000     0.133251000000    -1.001609000000     1.007825032230
         H           -2.589112000000    -0.999855000000    -1.683691000000     1.007825032230
         O           -1.537426000000    -2.692392000000    -1.006896000000    15.994914619570
         H           -0.795193000000    -2.078400000000    -0.894851000000     1.007825032230
         H           -1.998456000000    -2.564264000000    -0.165396000000     1.007825032230
         O           -2.637711000000    -1.271188000000     1.306531000000    15.994914619570
         H           -1.756257000000    -0.872341000000     1.206380000000     1.007825032230
         H           -3.134176000000    -0.785556000000     0.637347000000     1.007825032230
         O           -1.665311000000     1.785511000000    -3.369201000000    15.994914619570
         H           -0.781589000000     1.388004000000    -3.419015000000     1.007825032230
         H           -2.171017000000     1.136460000000    -2.853942000000     1.007825032230

  Charge       = -1
  Multiplicity = 1
  Basis Set: AUG-CC-PVTZ
    Blend: AUG-CC-PVTZ
  Basis Set: (AUG-CC-PVTZ AUX)
    Blend: AUG-CC-PVTZ-JKFIT

    Orbital Energies [Eh]
    ---------------------

    Doubly Occupied:

       1A   -104.619721     2A    -20.439702     3A    -20.439125
       4A    -20.433959     5A    -20.428155     6A    -20.421292
       7A    -20.419581     8A    -10.345588     9A     -7.811656
      10A     -7.811640    11A     -7.811612    12A     -1.239114
      13A     -1.227032    14A     -1.222667    15A     -1.218180
      16A     -1.207048    17A     -1.202288    18A     -0.868749
      19A     -0.589400    20A     -0.582848    21A     -0.579505
      22A     -0.576880    23A     -0.567672    24A     -0.565342
      25A     -0.489556    26A     -0.473885    27A     -0.471764
      28A     -0.468604    29A     -0.459773    30A     -0.452352
      31A     -0.390129    32A     -0.379239    33A     -0.378401
      34A     -0.376764    35A     -0.365195    36A     -0.362926
      37A     -0.277039    38A     -0.275891    39A     -0.275050

  @DF-RHF Final Energy:  -916.02453699161799

   => Energetics <=

    Nuclear Repulsion Energy =            438.9697101393572893
    One-Electron Energy =               -2152.9378391251339053
    Two-Electron Energy =                 797.9435919941587372
    Total Energy =                       -916.0245369916179925
 Dipole X            :        144.6840591         -143.3172772            1.3667819
 Dipole Y            :        -33.8560146           33.0532091           -0.8028054
 Dipole Z            :        160.6041950         -158.5537629            2.0504321
 Magnitude           :                                                    2.5916908
  Basis Set: (AUG-CC-PVTZ AUX)
    Blend: AUG-CC-PVTZ-RI
	 Reference Energy          =    -916.0245369916179925 [Eh]
	 Singles Energy            =      -0.0000000000000000 [Eh]
	 Same-Spin Energy          =      -0.4966948006532140 [Eh]
	 Opposite-Spin Energy      =      -1.5027409311798476 [Eh]
	 Correlation Energy        =      -1.9994357318330618 [Eh]
	 Total Energy              =    -918.0239727234510383 [Eh]

	 ================> DF-SCS-MP2 Energies <==================
	-----------------------------------------------------------
	 SCS Same-Spin Scale       =       0.3333333333333333 [-]
	 SCS Opposite-Spin Scale   =       1.2000000000000000 [-]
	 SCS Same-Spin Energy      =      -0.1655649335510713 [Eh]
	 SCS Opposite-Spin Energy  =      -1.8032891174158170 [Eh]
	 SCS Correlation Energy    =      -1.9688540509668884 [Eh]
	 SCS Total Energy          =    -917.9933910425849035 [Eh]
	-----------------------------------------------------------

*** Psi4 exiting successfully. Buy a developer a beer!
