                               Psi4 1.9 release

  ==> Input File <==

--------------------------------------------------------------------------
MEMORY 60 GB

molecule dimer {
-1 1
Cl     0.000000     0.000000     0.000000
--
0 1
O      1.083689     1.019284    -2.849619
H      0.880687     0.456888    -2.083836
H      1.032320     1.893726    -2.438242
O     -0.211212     3.060275    -1.192583
H     -0.176407     2.270776    -0.630950
H     -0.865972     2.815740    -1.865417
O     -2.730463    -0.064418    -1.476959
H     -1.897593     0.133251    -1.001609
H     -2.589112    -0.999855    -1.683691
O     -1.537426    -2.692392    -1.006896
H     -0.795193    -2.078400    -0.894851
H     -1.998456    -2.564264    -0.165396
O     -2.637711    -1.271188     1.306531
H     -1.756257    -0.872341     1.206380
H     -3.134176    -0.785556     0.637347
O     -1.665311     1.785511    -3.369201
H     -0.781589     1.388004    -3.419015
H     -2.171017     1.136460    -2.853942

units ang
no_reorient
no_com
symmetry c1
}

set {
basis        aug-cc-pVTZ
scf_type     df
}

energy("mp2", bsse_type="cp")
--------------------------------------------------------------------------

                               Psi4 1.9 release
    Molecular point group: c1
  Charge       = 0
  Multiplicity = 1
  Basis Set: AUG-CC-PVTZ
    Blend: AUG-CC-PVTZ
  Basis Set: (AUG-CC-PVTZ AUX)
    Blend: AUG-CC-PVTZ-JKFIT
  @DF-RHF Final Energy:  -456.35828717670688
    Total Energy =                       -456.3582871767068809
 Dipole X            :        143.8209128         -143.3172772            0.5036355
 Dipole Y            :        -33.8151031           33.0532091           -0.7618939
 Dipole Z            :        159.8585233         -158.5537629            1.3047604
 Magnitude           :                                                    1.5926490
  Basis Set: (AUG-CC-PVTZ AUX)
    Blend: AUG-CC-PVTZ-RI
	 Reference Energy          =    -456.3582871767068809 [Eh]
	 Singles Energy            =      -0.0000000000000000 [Eh]
	 Same-Spin Energy          =      -0.4232989884542042 [Eh]
	 Opposite-Spin Energy      =      -1.3128237946826604 [Eh]
	 Correlation Energy        =      -1.7361227831368646 [Eh]
	 Total Energy              =    -458.0944099598437447 [Eh]
	 SCS Total Energy          =    -458.0747753931441366 [Eh]
                               Psi4 1.9 release
    Molecular point group: c1
  Multiplicity = 1
  Basis Set: AUG-CC-PVTZ
    Blend: AUG-CC-PVTZ
  Basis Set: (AUG-CC-PVTZ AUX)
    Blend: AUG-CC-PVTZ-JKFIT
  @DF-RHF Final Energy:  -459.57358347443693
    Total Energy =                       -459.5735834744369868
  Basis Set: (AUG-CC-PVTZ AUX)
	 Singles Energy            =      -0.0000000000000000 [Eh]
	 Same-Spin Energy          =      -0.0636648640494009 [Eh]
	 Opposite-Spin Energy      =      -0.1843769381683538 [Eh]
	 Correlation Energy        =      -0.2480418022177547 [Eh]
	 Total Energy              =    -459.8216252766546859 [Eh]
	 SCS Total Energy          =    -459.8160574215887664 [Eh]
                               Psi4 1.9 release
    Molecular point group: c1

    Geometry (in Bohr), charge = -1, multiplicity = 1:

       Center              X                  Y                   Z               Mass
    ------------   -----------------  -----------------  -----------------  -----------------
         CL           0.000000000000     0.000000000000     0.000000000000    34.968852682000
         O            2.047875415171     1.926167604061    -5.384999471901    15.994914619570
         H            1.664257232251     0.863393190008    -3.937879330370     1.007825032230
         H            1.950802073833     3.578623496659    -4.607609607589     1.007825032230
         O           -0.399132834410     5.783081618585    -2.253655251877    15.994914619570
         H           -0.333360916614     4.291144732263    -1.192322698858     1.007825032230
         H           -1.636449912315     5.320977440497    -3.525127239773     1.007825032230
         O           -5.159827265696    -0.121732377550    -2.791048008530    15.994914619570
         H           -3.585931067586     0.251807895943    -1.892766694794     1.007825032230
         H           -4.892712588136    -1.889452115170    -3.181714869898     1.007825032230
         O           -2.905314078158    -5.087883502374    -1.902757676819    15.994914619570
         H           -1.502696986881    -3.927606779152    -1.691023313092     1.007825032230
         H           -3.776534513778    -4.845756673371    -0.312553142246     1.007825032230
         O           -4.984551388107    -2.402197173968     2.468985764421    15.994914619570
         H           -3.318844735918    -1.648485578008     2.279727803230     1.007825032230
         H           -5.922734268983    -1.484485696210     1.204411276882     1.007825032230
         O           -3.146981703712     3.374126783992    -6.366867151619    15.994914619570
         H           -1.476989152670     2.622947421040    -6.461001968832     1.007825032230
         H           -4.102627543713     2.147598152538    -5.393168757941     1.007825032230

  Charge       = -1
  Multiplicity = 1
  Basis Set: AUG-CC-PVTZ
    Blend: AUG-CC-PVTZ
  Basis Set: (AUG-CC-PVTZ AUX)
    Blend: AUG-CC-PVTZ-JKFIT

    Orbital Energies [Eh]
    ---------------------

    Doubly Occupied:

       1A   -104.619721     2A    -20.439702     3A    -20.439125
       4A    -20.433959     5A    -20.428155     6A    -20.421292
       7A    -20.419581     8A    -10.345588     9A     -7.811656
      10A     -7.811640    11A     -7.811612    12A     -1.239114
      13A     -1.227032    14A     -1.222667    15A     -1.218180
      16A     -1.207048    17A     -1.202288    18A     -0.868749
      19A     -0.589400    20A     -0.582848    21A     -0.579505
      22A     -0.576880    23A     -0.567672    24A     -0.565342
      25A     -0.489556    26A     -0.473885    27A     -0.471764
      28A     -0.468604    29A     -0.459773    30A     -0.452352
      31A     -0.390129    32A     -0.379239    33A     -0.378401
      34A     -0.376764    35A     -0.365195    36A     -0.362926
      37A     -0.277039    38A     -0.275891    39A     -0.275050

  @DF-RHF Final Energy:  -916.02453699196712

   => Energetics <=

    Nuclear Repulsion Energy =            438.9697101393572893
    One-Electron Energy =               -2152.9378391252598703
    Two-Electron Energy =                 797.9435919939355699
    Total Energy =                       -916.0245369919671248
 Dipole X            :        144.6840591         -143.3172772            1.3667819
 Dipole Y            :        -33.8560146           33.0532091           -0.8028054
 Dipole Z            :        160.6041950         -158.5537629            2.0504321
 Magnitude           :                                                    2.5916908
  Basis Set: (AUG-CC-PVTZ AUX)
    Blend: AUG-CC-PVTZ-RI
	 Reference Energy          =    -916.0245369919671248 [Eh]
	 Singles Energy            =      -0.0000000000000000 [Eh]
	 Same-Spin Energy          =      -0.4966948006525203 [Eh]
	 Opposite-Spin Energy      =      -1.5027409311776698 [Eh]
	 Correlation Energy        =      -1.9994357318301901 [Eh]
	 Total Energy              =    -918.0239727237973284 [Eh]

	 ================> DF-SCS-MP2 Energies <==================
	-----------------------------------------------------------
	 SCS Same-Spin Scale       =       0.3333333333333333 [-]
	 SCS Opposite-Spin Scale   =       1.2000000000000000 [-]
	 SCS Same-Spin Energy      =      -0.1655649335508401 [Eh]
	 SCS Opposite-Spin Energy  =      -1.8032891174132037 [Eh]
	 SCS Correlation Energy    =      -1.9688540509640438 [Eh]
	 SCS Total Energy          =    -917.9933910429311936 [Eh]
	-----------------------------------------------------------

*** Psi4 exiting successfully. Buy a developer a beer!
