                               Psi4 1.9.1 release

  ==> Input File <==

--------------------------------------------------------------------------
MEMORY 60 GB

molecule dimer {
0 1
Gh(Cl)     0.000000     0.000000     0.000000
O          1.083689     1.019284    -2.849619
H          0.880687     0.456888    -2.083836
H          1.032320     1.893726    -2.438242
Gh(O)     -0.211212     3.060275    -1.192583
Gh(H)     -0.176407     2.270776    -0.630950
Gh(H)     -0.865972     2.815740    -1.865417
Gh(O)     -2.730463    -0.064418    -1.476959
Gh(H)     -1.897593     0.133251    -1.001609
Gh(H)     -2.589112    -0.999855    -1.683691
Gh(O)     -1.537426    -2.692392    -1.006896
Gh(H)     -0.795193    -2.078400    -0.894851
Gh(H)     -1.998456    -2.564264    -0.165396
Gh(O)     -2.637711    -1.271188     1.306531
Gh(H)     -1.756257    -0.872341     1.206380
Gh(H)     -3.134176    -0.785556     0.637347
Gh(O)     -1.665311     1.785511    -3.369201
Gh(H)     -0.781589     1.388004    -3.419015
Gh(H)     -2.171017     1.136460    -2.853942

units ang
no_reorient
no_com
symmetry c1
}

set {
basis        aug-cc-pVTZ
scf_type     df
}

energy("mp2")
--------------------------------------------------------------------------

    Molecular point group: c1

    Geometry (in Angstrom), charge = 0, multiplicity = 1:

       Center              X                  Y                   Z               Mass
    ------------   -----------------  -----------------  -----------------  -----------------
      Gh(CL)          0.000000000000     0.000000000000     0.000000000000    34.968852682000
         O            1.083689000000     1.019284000000    -2.849619000000    15.994914619570
         H            0.880687000000     0.456888000000    -2.083836000000     1.007825032230
         H            1.032320000000     1.893726000000    -2.438242000000     1.007825032230
      Gh(O)          -0.211212000000     3.060275000000    -1.192583000000    15.994914619570
      Gh(H)          -0.176407000000     2.270776000000    -0.630950000000     1.007825032230
      Gh(H)          -0.865972000000     2.815740000000    -1.865417000000     1.007825032230
      Gh(O)          -2.730463000000    -0.064418000000    -1.476959000000    15.994914619570
      Gh(H)          -1.897593000000     0.133251000000    -1.001609000000     1.007825032230
      Gh(H)          -2.589112000000    -0.999855000000    -1.683691000000     1.007825032230
      Gh(O)          -1.537426000000    -2.692392000000    -1.006896000000    15.994914619570
      Gh(H)          -0.795193000000    -2.078400000000    -0.894851000000     1.007825032230
      Gh(H)          -1.998456000000    -2.564264000000    -0.165396000000     1.007825032230
      Gh(O)          -2.637711000000    -1.271188000000     1.306531000000    15.994914619570
      Gh(H)          -1.756257000000    -0.872341000000     1.206380000000     1.007825032230
      Gh(H)          -3.134176000000    -0.785556000000     0.637347000000     1.007825032230
      Gh(O)          -1.665311000000     1.785511000000    -3.369201000000    15.994914619570
      Gh(H)          -0.781589000000     1.388004000000    -3.419015000000     1.007825032230
      Gh(H)          -2.171017000000     1.136460000000    -2.853942000000     1.007825032230

  Charge       = 0
  Multiplicity = 1
  Basis Set: AUG-CC-PVTZ
    Blend: AUG-CC-PVTZ
  Basis Set: (AUG-CC-PVTZ AUX)
    Blend: AUG-CC-PVTZ-JKFIT

    Orbital Energies [Eh]
    ---------------------

    Doubly Occupied:

       1A    -20.571042     2A     -1.350241     3A     -0.702506
       4A     -0.590911     5A     -0.510581

  @DF-RHF Final Energy:   -76.05896564838599

   => Energetics <=

    Nuclear Repulsion Energy =              9.0876136378237877
    One-Electron Energy =                -122.8425939743362676
    Two-Electron Energy =                  37.6960146881264819
    Total Energy =                        -76.0589656483859926
 Dipole X            :        -20.1636541           19.9980626           -0.1655914
 Dipole Y            :        -19.6472917           19.8513575            0.2040658
 Dipole Z            :         52.3926212          -51.6254847            0.7671365
 Magnitude           :                                                    0.8109018
  Basis Set: (AUG-CC-PVTZ AUX)
    Blend: AUG-CC-PVTZ-RI
	 Reference Energy          =     -76.0589656483859926 [Eh]
	 Singles Energy            =      -0.0000000000000000 [Eh]
	 Same-Spin Energy          =      -0.0687903066121569 [Eh]
	 Opposite-Spin Energy      =      -0.2174574353851371 [Eh]
	 Correlation Energy        =      -0.2862477419972940 [Eh]
	 Total Energy              =     -76.3452133903832930 [Eh]

	 ================> DF-SCS-MP2 Energies <==================
	-----------------------------------------------------------
	 SCS Same-Spin Scale       =       0.3333333333333333 [-]
	 SCS Opposite-Spin Scale   =       1.2000000000000000 [-]
	 SCS Same-Spin Energy      =      -0.0229301022040523 [Eh]
	 SCS Opposite-Spin Energy  =      -0.2609489224621644 [Eh]
	 SCS Correlation Energy    =      -0.2838790246662167 [Eh]
	 SCS Total Energy          =     -76.3428446730522126 [Eh]
	-----------------------------------------------------------

*** Psi4 exiting successfully. Buy a developer a beer!
