                               Psi4 1.9 release

  ==> Input File <==

--------------------------------------------------------------------------
MEMORY 60 GB

molecule dimer {
-1 1
Br     0.000000     0.000000     0.000000
--
0 1
O      3.259584    -0.042170     0.000000
H      2.285646    -0.124447     0.000000
H      3.375999     0.909134    -0.000000
O     -1.593272     2.843968    -0.000000
H     -1.035049     2.041651     0.000000
H     -2.475333     2.469134    -0.000000
O     -1.666313    -2.801798    -0.000000
H     -1.250597    -1.917204     0.000000
H     -0.900666    -3.378268    -0.000000

units ang
no_reorient
no_com
symmetry c1
}

set {
basis        aug-cc-pVTZ
scf_type     df
}

energy("mp2", bsse_type="cp")
--------------------------------------------------------------------------

                               Psi4 1.9 release
    Molecular point group: c1
  Charge       = 0
  Multiplicity = 1
  Basis Set: AUG-CC-PVTZ
    Blend: AUG-CC-PVTZ
  Basis Set: (AUG-CC-PVTZ AUX)
    Blend: AUG-CC-PVTZ-JKFIT
  @DF-RHF Final Energy:  -228.17589900864206
    Total Energy =                       -228.1758990086420624
 Dipole X            :          0.0000159           -0.0000151            0.0000008
 Dipole Y            :          0.0000000           -0.0000000            0.0000000
 Dipole Z            :         -0.0000000            0.0000000           -0.0000000
 Magnitude           :                                                    0.0000008
  Basis Set: (AUG-CC-PVTZ AUX)
    Blend: AUG-CC-PVTZ-RI
	 Reference Energy          =    -228.1758990086420624 [Eh]
	 Singles Energy            =      -0.0000000000000000 [Eh]
	 Same-Spin Energy          =      -0.2059370202311208 [Eh]
	 Opposite-Spin Energy      =      -0.6496231677236862 [Eh]
	 Correlation Energy        =      -0.8555601879548069 [Eh]
	 Total Energy              =    -229.0314591965968702 [Eh]
	 SCS Total Energy          =    -229.0240924833208567 [Eh]
                               Psi4 1.9 release
    Molecular point group: c1
  Multiplicity = 1
  Basis Set: AUG-CC-PVTZ
    Blend: AUG-CC-PVTZ
  Basis Set: (AUG-CC-PVTZ AUX)
    Blend: AUG-CC-PVTZ-JKFIT
  @DF-RHF Final Energy: -2572.53371425694922
    Total Energy =                      -2572.5337142569496791
  Basis Set: (AUG-CC-PVTZ AUX)
	 Singles Energy            =      -0.0000000000000000 [Eh]
	 Same-Spin Energy          =      -0.0904762064461276 [Eh]
	 Opposite-Spin Energy      =      -0.2106359128450656 [Eh]
	 Correlation Energy        =      -0.3011121192911932 [Eh]
	 Total Energy              =   -2572.8348263762404713 [Eh]
	 SCS Total Energy          =   -2572.8166360878453816 [Eh]
                               Psi4 1.9 release
    Molecular point group: c1

    Geometry (in Bohr), charge = -1, multiplicity = 1:

       Center              X                  Y                   Z               Mass
    ------------   -----------------  -----------------  -----------------  -----------------
         BR           0.000000000000     0.000000000000     0.000000000000    78.918337600000
         O            6.159721042924    -0.079689750711     0.000000000000    15.994914619570
         H            4.319244959748    -0.235170747135     0.000000000000     1.007825032230
         H            6.379713509820     1.718014271342     0.000000000000     1.007825032230
         O           -3.010847723360     5.374320629566     0.000000000000    15.994914619570
         H           -1.955959136429     3.858161233767     0.000000000000     1.007825032230
         H           -4.677701439308     4.665987027056     0.000000000000     1.007825032230
         O           -3.148875209290    -5.294630878855     0.000000000000    15.994914619570
         H           -2.363285823319    -3.622990486632     0.000000000000     1.007825032230
         H           -1.702012070512    -6.384001298398     0.000000000000     1.007825032230

  Charge       = -1
  Multiplicity = 1
  Basis Set: AUG-CC-PVTZ
    Blend: AUG-CC-PVTZ
  Basis Set: (AUG-CC-PVTZ AUX)
    Blend: AUG-CC-PVTZ-JKFIT

    Orbital Energies [Eh]
    ---------------------

    Doubly Occupied:

       1A   -489.781171     2A    -64.921793     3A    -58.276266
       4A    -58.276266     5A    -58.276248     6A    -20.407998
       7A    -20.407998     8A    -20.407998     9A     -9.594355
      10A     -7.201993    11A     -7.201993    12A     -7.201576
      13A     -2.943712    14A     -2.943712    15A     -2.943257
      16A     -2.943257    17A     -2.943113    18A     -1.192946
      19A     -1.192845    20A     -1.192845    21A     -0.762252
      22A     -0.553252    23A     -0.553251    24A     -0.547479
      25A     -0.438540    26A     -0.438540    27A     -0.434117
      28A     -0.354153    29A     -0.353690    30A     -0.353690
      31A     -0.210616    32A     -0.210616    33A     -0.202806

  @DF-RHF Final Energy: -2800.75222560186830

   => Energetics <=

    Nuclear Repulsion Energy =            232.7960247245319749
    One-Electron Energy =               -4375.7678036696934214
    Two-Electron Energy =                1342.2195533432930006
    Total Energy =                      -2800.7522256018683038
 Dipole X            :          0.0000166           -0.0000151            0.0000015
 Dipole Y            :          0.0000007           -0.0000000            0.0000007
 Dipole Z            :          0.0000000            0.0000000            0.0000000
 Magnitude           :                                                    0.0000016
  Basis Set: (AUG-CC-PVTZ AUX)
    Blend: AUG-CC-PVTZ-RI
	 Reference Energy          =   -2800.7522256018683038 [Eh]
	 Singles Energy            =      -0.0000000000000000 [Eh]
	 Same-Spin Energy          =      -0.3043523486335604 [Eh]
	 Opposite-Spin Energy      =      -0.8659257364693006 [Eh]
	 Correlation Energy        =      -1.1702780851028609 [Eh]
	 Total Energy              =   -2801.9225036869711403 [Eh]

	 ================> DF-SCS-MP2 Energies <==================
	-----------------------------------------------------------
	 SCS Same-Spin Scale       =       0.3333333333333333 [-]
	 SCS Opposite-Spin Scale   =       1.2000000000000000 [-]
	 SCS Same-Spin Energy      =      -0.1014507828778535 [Eh]
	 SCS Opposite-Spin Energy  =      -1.0391108837631606 [Eh]
	 SCS Correlation Energy    =      -1.1405616666410141 [Eh]
	 SCS Total Energy          =   -2801.8927872685094371 [Eh]
	-----------------------------------------------------------

*** Psi4 exiting successfully. Buy a developer a beer!
