                               Psi4 1.9.1 release

  ==> Input File <==

--------------------------------------------------------------------------
MEMORY 60 GB

molecule dimer {
0 1
Gh(Br)     0.000000     0.000000     0.000000
O          3.259584    -0.042170     0.000000
H          2.285646    -0.124447     0.000000
H          3.375999     0.909134    -0.000000
Gh(O)     -1.593272     2.843968    -0.000000
Gh(H)     -1.035049     2.041651     0.000000
Gh(H)     -2.475333     2.469134    -0.000000
Gh(O)     -1.666313    -2.801798    -0.000000
Gh(H)     -1.250597    -1.917204     0.000000
Gh(H)     -0.900666    -3.378268    -0.000000

units ang
no_reorient
no_com
symmetry c1
}

set {
basis        aug-cc-pVTZ
scf_type     df
}

energy("mp2")
--------------------------------------------------------------------------

    Molecular point group: c1

    Geometry (in Angstrom), charge = 0, multiplicity = 1:

       Center              X                  Y                   Z               Mass
    ------------   -----------------  -----------------  -----------------  -----------------
      Gh(BR)          0.000000000000     0.000000000000     0.000000000000    78.918337600000
         O            3.259584000000    -0.042170000000     0.000000000000    15.994914619570
         H            2.285646000000    -0.124447000000     0.000000000000     1.007825032230
         H            3.375999000000     0.909134000000     0.000000000000     1.007825032230
      Gh(O)          -1.593272000000     2.843968000000     0.000000000000    15.994914619570
      Gh(H)          -1.035049000000     2.041651000000     0.000000000000     1.007825032230
      Gh(H)          -2.475333000000     2.469134000000     0.000000000000     1.007825032230
      Gh(O)          -1.666313000000    -2.801798000000     0.000000000000    15.994914619570
      Gh(H)          -1.250597000000    -1.917204000000     0.000000000000     1.007825032230
      Gh(H)          -0.900666000000    -3.378268000000     0.000000000000     1.007825032230

  Charge       = 0
  Multiplicity = 1
  Basis Set: AUG-CC-PVTZ
    Blend: AUG-CC-PVTZ
  Basis Set: (AUG-CC-PVTZ AUX)
    Blend: AUG-CC-PVTZ-JKFIT

    Orbital Energies [Eh]
    ---------------------

    Doubly Occupied:

       1A    -20.570234     2A     -1.350150     3A     -0.706787
       4A     -0.588137     5A     -0.510281

  @DF-RHF Final Energy:   -76.05924195191022

   => Energetics <=

    Nuclear Repulsion Energy =              9.1006675564790491
    One-Electron Energy =                -122.8686363672587305
    Two-Electron Energy =                  37.7087268588694684
    Total Energy =                        -76.0592419519102094
 Dipole X            :        -60.5368796           59.9767268           -0.5601528
 Dipole Y            :         -0.2728792            0.8453255            0.5724463
 Dipole Z            :         -0.0000000            0.0000000           -0.0000000
 Magnitude           :                                                    0.8009157
  Basis Set: (AUG-CC-PVTZ AUX)
    Blend: AUG-CC-PVTZ-RI
	 Reference Energy          =     -76.0592419519102236 [Eh]
	 Singles Energy            =      -0.0000000000000000 [Eh]
	 Same-Spin Energy          =      -0.0686210397287510 [Eh]
	 Opposite-Spin Energy      =      -0.2164800194189134 [Eh]
	 Correlation Energy        =      -0.2851010591476644 [Eh]
	 Total Energy              =     -76.3443430110578873 [Eh]

	 ================> DF-SCS-MP2 Energies <==================
	-----------------------------------------------------------
	 SCS Same-Spin Scale       =       0.3333333333333333 [-]
	 SCS Opposite-Spin Scale   =       1.2000000000000000 [-]
	 SCS Same-Spin Energy      =      -0.0228736799095837 [Eh]
	 SCS Opposite-Spin Energy  =      -0.2597760233026961 [Eh]
	 SCS Correlation Energy    =      -0.2826497032122798 [Eh]
	 SCS Total Energy          =     -76.3418916551225095 [Eh]
	-----------------------------------------------------------

*** Psi4 exiting successfully. Buy a developer a beer!
