                               Psi4 1.9.1 release

  ==> Input File <==

--------------------------------------------------------------------------
MEMORY 60 GB

molecule dimer {
-1 1
Br         0.000000     0.000000     0.000000
Gh(O)      3.259584    -0.042170     0.000000
Gh(H)      2.285646    -0.124447     0.000000
Gh(H)      3.375999     0.909134    -0.000000
Gh(O)     -1.593272     2.843968    -0.000000
Gh(H)     -1.035049     2.041651     0.000000
Gh(H)     -2.475333     2.469134    -0.000000
Gh(O)     -1.666313    -2.801798    -0.000000
Gh(H)     -1.250597    -1.917204     0.000000
Gh(H)     -0.900666    -3.378268    -0.000000

units ang
no_reorient
no_com
symmetry c1
}

set {
basis        aug-cc-pVTZ
scf_type     df
}

energy("mp2")
--------------------------------------------------------------------------

    Molecular point group: c1

    Geometry (in Angstrom), charge = -1, multiplicity = 1:

       Center              X                  Y                   Z               Mass
    ------------   -----------------  -----------------  -----------------  -----------------
         BR           0.000000000000     0.000000000000     0.000000000000    78.918337600000
      Gh(O)           3.259584000000    -0.042170000000     0.000000000000    15.994914619570
      Gh(H)           2.285646000000    -0.124447000000     0.000000000000     1.007825032230
      Gh(H)           3.375999000000     0.909134000000     0.000000000000     1.007825032230
      Gh(O)          -1.593272000000     2.843968000000     0.000000000000    15.994914619570
      Gh(H)          -1.035049000000     2.041651000000     0.000000000000     1.007825032230
      Gh(H)          -2.475333000000     2.469134000000     0.000000000000     1.007825032230
      Gh(O)          -1.666313000000    -2.801798000000     0.000000000000    15.994914619570
      Gh(H)          -1.250597000000    -1.917204000000     0.000000000000     1.007825032230
      Gh(H)          -0.900666000000    -3.378268000000     0.000000000000     1.007825032230

  Charge       = -1
  Multiplicity = 1
  Basis Set: AUG-CC-PVTZ
    Blend: AUG-CC-PVTZ
  Basis Set: (AUG-CC-PVTZ AUX)
    Blend: AUG-CC-PVTZ-JKFIT

    Orbital Energies [Eh]
    ---------------------

    Doubly Occupied:

       1A   -489.721859     2A    -64.861532     3A    -58.216059
       4A    -58.216053     5A    -58.216053     6A     -9.533203
       7A     -7.140561     8A     -7.140520     9A     -7.140520
      10A     -2.882244    11A     -2.882244    12A     -2.882221
      13A     -2.882217    14A     -2.882217    15A     -0.685996
      16A     -0.139340    17A     -0.139336    18A     -0.139336

  @DF-RHF Final Energy: -2572.53371425694877

   => Energetics <=

    Nuclear Repulsion Energy =              0.0000000000000000
    One-Electron Energy =               -3593.6644076384468462
    Two-Electron Energy =                1021.1306933814983040
    Total Energy =                      -2572.5337142569487696
 Dipole X            :         -0.0000000            0.0000000           -0.0000000
 Dipole Y            :         -0.0000000            0.0000000           -0.0000000
 Dipole Z            :         -0.0000000            0.0000000           -0.0000000
 Magnitude           :                                                    0.0000000
  Basis Set: (AUG-CC-PVTZ AUX)
    Blend: AUG-CC-PVTZ-RI
	 Reference Energy          =   -2572.5337142569487696 [Eh]
	 Singles Energy            =      -0.0000000000000000 [Eh]
	 Same-Spin Energy          =      -0.0904762064457391 [Eh]
	 Opposite-Spin Energy      =      -0.2106359128444065 [Eh]
	 Correlation Energy        =      -0.3011121192901455 [Eh]
	 Total Energy              =   -2572.8348263762391070 [Eh]

	 ================> DF-SCS-MP2 Energies <==================
	-----------------------------------------------------------
	 SCS Same-Spin Scale       =       0.3333333333333333 [-]
	 SCS Opposite-Spin Scale   =       1.2000000000000000 [-]
	 SCS Same-Spin Energy      =      -0.0301587354819130 [Eh]
	 SCS Opposite-Spin Energy  =      -0.2527630954132877 [Eh]
	 SCS Correlation Energy    =      -0.2829218308952007 [Eh]
	 SCS Total Energy          =   -2572.8166360878440173 [Eh]
	-----------------------------------------------------------

*** Psi4 exiting successfully. Buy a developer a beer!
