                               Psi4 1.9.1 release

  ==> Input File <==

--------------------------------------------------------------------------
MEMORY 60 GB

molecule dimer {
-1 1
Br         0.000000     0.000000     0.000000
O          3.259584    -0.042170     0.000000
H          2.285646    -0.124447     0.000000
H          3.375999     0.909134    -0.000000
O         -1.593272     2.843968    -0.000000
H         -1.035049     2.041651     0.000000
H         -2.475333     2.469134    -0.000000
O         -1.666313    -2.801798    -0.000000
H         -1.250597    -1.917204     0.000000
H         -0.900666    -3.378268    -0.000000

units ang
no_reorient
no_com
symmetry c1
}

set {
basis        aug-cc-pVTZ
scf_type     df
}

energy("mp2")
--------------------------------------------------------------------------

    Molecular point group: c1

    Geometry (in Angstrom), charge = -1, multiplicity = 1:

       Center              X                  Y                   Z               Mass
    ------------   -----------------  -----------------  -----------------  -----------------
         BR           0.000000000000     0.000000000000     0.000000000000    78.918337600000
         O            3.259584000000    -0.042170000000     0.000000000000    15.994914619570
         H            2.285646000000    -0.124447000000     0.000000000000     1.007825032230
         H            3.375999000000     0.909134000000     0.000000000000     1.007825032230
         O           -1.593272000000     2.843968000000     0.000000000000    15.994914619570
         H           -1.035049000000     2.041651000000     0.000000000000     1.007825032230
         H           -2.475333000000     2.469134000000     0.000000000000     1.007825032230
         O           -1.666313000000    -2.801798000000     0.000000000000    15.994914619570
         H           -1.250597000000    -1.917204000000     0.000000000000     1.007825032230
         H           -0.900666000000    -3.378268000000     0.000000000000     1.007825032230

  Charge       = -1
  Multiplicity = 1
  Basis Set: AUG-CC-PVTZ
    Blend: AUG-CC-PVTZ
  Basis Set: (AUG-CC-PVTZ AUX)
    Blend: AUG-CC-PVTZ-JKFIT

    Orbital Energies [Eh]
    ---------------------

    Doubly Occupied:

       1A   -489.781171     2A    -64.921793     3A    -58.276266
       4A    -58.276266     5A    -58.276248     6A    -20.407998
       7A    -20.407998     8A    -20.407998     9A     -9.594355
      10A     -7.201993    11A     -7.201993    12A     -7.201576
      13A     -2.943712    14A     -2.943712    15A     -2.943257
      16A     -2.943257    17A     -2.943113    18A     -1.192946
      19A     -1.192845    20A     -1.192845    21A     -0.762252
      22A     -0.553252    23A     -0.553251    24A     -0.547479
      25A     -0.438540    26A     -0.438540    27A     -0.434117
      28A     -0.354153    29A     -0.353690    30A     -0.353690
      31A     -0.210616    32A     -0.210616    33A     -0.202806

  @DF-RHF Final Energy: -2800.75222560186558

   => Energetics <=

    Nuclear Repulsion Energy =            232.7960247245319749
    One-Electron Energy =               -4375.7678036696879644
    Two-Electron Energy =                1342.2195533432904995
    Total Energy =                      -2800.7522256018655753
 Dipole X            :          0.0000166           -0.0000151            0.0000015
 Dipole Y            :          0.0000007           -0.0000000            0.0000007
 Dipole Z            :          0.0000000            0.0000000            0.0000000
 Magnitude           :                                                    0.0000016
  Basis Set: (AUG-CC-PVTZ AUX)
    Blend: AUG-CC-PVTZ-RI
	 Reference Energy          =   -2800.7522256018655753 [Eh]
	 Singles Energy            =      -0.0000000000000000 [Eh]
	 Same-Spin Energy          =      -0.3043523486335631 [Eh]
	 Opposite-Spin Energy      =      -0.8659257364692790 [Eh]
	 Correlation Energy        =      -1.1702780851028420 [Eh]
	 Total Energy              =   -2801.9225036869684118 [Eh]

	 ================> DF-SCS-MP2 Energies <==================
	-----------------------------------------------------------
	 SCS Same-Spin Scale       =       0.3333333333333333 [-]
	 SCS Opposite-Spin Scale   =       1.2000000000000000 [-]
	 SCS Same-Spin Energy      =      -0.1014507828778544 [Eh]
	 SCS Opposite-Spin Energy  =      -1.0391108837631347 [Eh]
	 SCS Correlation Energy    =      -1.1405616666409890 [Eh]
	 SCS Total Energy          =   -2801.8927872685067086 [Eh]
	-----------------------------------------------------------

*** Psi4 exiting successfully. Buy a developer a beer!
