                               Psi4 1.9.1 release

  ==> Input File <==

--------------------------------------------------------------------------
MEMORY 60 GB

molecule dimer {
0 1
Gh(Br)     0.000000     0.000000     0.000000
Gh(O)      0.553611     2.534250    -2.078110
Gh(H)      0.629338     1.653964    -1.672755
Gh(H)      0.306285     3.057750    -1.302436
O         -2.264363     1.718106    -1.669804
H         -1.819846     1.014407    -1.163465
H         -1.513796     2.067261    -2.169836
Gh(O)     -0.808349     3.157421     0.457372
Gh(H)     -0.454952     2.261911     0.607349
Gh(H)     -1.567751     2.947410    -0.103931
Gh(O)     -1.611921    -1.947691     2.093967
Gh(H)     -1.065322    -1.430972     1.474055
Gh(H)     -2.391561    -1.397160     2.181608

units ang
no_reorient
no_com
symmetry c1
}

set {
basis        aug-cc-pVTZ
scf_type     df
}

energy("mp2")
--------------------------------------------------------------------------

    Molecular point group: c1

    Geometry (in Angstrom), charge = 0, multiplicity = 1:

       Center              X                  Y                   Z               Mass
    ------------   -----------------  -----------------  -----------------  -----------------
      Gh(BR)          0.000000000000     0.000000000000     0.000000000000    78.918337600000
      Gh(O)           0.553611000000     2.534250000000    -2.078110000000    15.994914619570
      Gh(H)           0.629338000000     1.653964000000    -1.672755000000     1.007825032230
      Gh(H)           0.306285000000     3.057750000000    -1.302436000000     1.007825032230
         O           -2.264363000000     1.718106000000    -1.669804000000    15.994914619570
         H           -1.819846000000     1.014407000000    -1.163465000000     1.007825032230
         H           -1.513796000000     2.067261000000    -2.169836000000     1.007825032230
      Gh(O)          -0.808349000000     3.157421000000     0.457372000000    15.994914619570
      Gh(H)          -0.454952000000     2.261911000000     0.607349000000     1.007825032230
      Gh(H)          -1.567751000000     2.947410000000    -0.103931000000     1.007825032230
      Gh(O)          -1.611921000000    -1.947691000000     2.093967000000    15.994914619570
      Gh(H)          -1.065322000000    -1.430972000000     1.474055000000     1.007825032230
      Gh(H)          -2.391561000000    -1.397160000000     2.181608000000     1.007825032230

  Charge       = 0
  Multiplicity = 1
  Basis Set: AUG-CC-PVTZ
    Blend: AUG-CC-PVTZ
  Basis Set: (AUG-CC-PVTZ AUX)
    Blend: AUG-CC-PVTZ-JKFIT

    Orbital Energies [Eh]
    ---------------------

    Doubly Occupied:

       1A    -20.571289     2A     -1.349810     3A     -0.701811
       4A     -0.590895     5A     -0.510529

  @DF-RHF Final Energy:   -76.05879653252204

   => Energetics <=

    Nuclear Repulsion Energy =              9.0782786363328931
    One-Electron Energy =                -122.8254784195726472
    Two-Electron Energy =                  37.6884032507177125
    Total Energy =                        -76.0587965325220381
 Dipole X            :         41.3104762          -40.5318777            0.7785985
 Dipole Y            :        -32.0275051           31.7975069           -0.2299982
 Dipole Z            :         31.5458882          -31.5428039            0.0030842
 Magnitude           :                                                    0.8118647
  Basis Set: (AUG-CC-PVTZ AUX)
    Blend: AUG-CC-PVTZ-RI
	 Reference Energy          =     -76.0587965325220381 [Eh]
	 Singles Energy            =      -0.0000000000000000 [Eh]
	 Same-Spin Energy          =      -0.0687952143500026 [Eh]
	 Opposite-Spin Energy      =      -0.2173481704409306 [Eh]
	 Correlation Energy        =      -0.2861433847909332 [Eh]
	 Total Energy              =     -76.3449399173129706 [Eh]

	 ================> DF-SCS-MP2 Energies <==================
	-----------------------------------------------------------
	 SCS Same-Spin Scale       =       0.3333333333333333 [-]
	 SCS Opposite-Spin Scale   =       1.2000000000000000 [-]
	 SCS Same-Spin Energy      =      -0.0229317381166675 [Eh]
	 SCS Opposite-Spin Energy  =      -0.2608178045291167 [Eh]
	 SCS Correlation Energy    =      -0.2837495426457842 [Eh]
	 SCS Total Energy          =     -76.3425460751678173 [Eh]
	-----------------------------------------------------------

*** Psi4 exiting successfully. Buy a developer a beer!
