                               Psi4 1.9.1 release

  ==> Input File <==

--------------------------------------------------------------------------
MEMORY 60 GB

molecule dimer {
-1 1
Br         0.000000     0.000000     0.000000
O          0.553611     2.534250    -2.078110
H          0.629338     1.653964    -1.672755
H          0.306285     3.057750    -1.302436
O         -2.264363     1.718106    -1.669804
H         -1.819846     1.014407    -1.163465
H         -1.513796     2.067261    -2.169836
O         -0.808349     3.157421     0.457372
H         -0.454952     2.261911     0.607349
H         -1.567751     2.947410    -0.103931
O         -1.611921    -1.947691     2.093967
H         -1.065322    -1.430972     1.474055
H         -2.391561    -1.397160     2.181608

units ang
no_reorient
no_com
symmetry c1
}

set {
basis        aug-cc-pVTZ
scf_type     df
}

energy("mp2")
--------------------------------------------------------------------------

    Molecular point group: c1

    Geometry (in Angstrom), charge = -1, multiplicity = 1:

       Center              X                  Y                   Z               Mass
    ------------   -----------------  -----------------  -----------------  -----------------
         BR           0.000000000000     0.000000000000     0.000000000000    78.918337600000
         O            0.553611000000     2.534250000000    -2.078110000000    15.994914619570
         H            0.629338000000     1.653964000000    -1.672755000000     1.007825032230
         H            0.306285000000     3.057750000000    -1.302436000000     1.007825032230
         O           -2.264363000000     1.718106000000    -1.669804000000    15.994914619570
         H           -1.819846000000     1.014407000000    -1.163465000000     1.007825032230
         H           -1.513796000000     2.067261000000    -2.169836000000     1.007825032230
         O           -0.808349000000     3.157421000000     0.457372000000    15.994914619570
         H           -0.454952000000     2.261911000000     0.607349000000     1.007825032230
         H           -1.567751000000     2.947410000000    -0.103931000000     1.007825032230
         O           -1.611921000000    -1.947691000000     2.093967000000    15.994914619570
         H           -1.065322000000    -1.430972000000     1.474055000000     1.007825032230
         H           -2.391561000000    -1.397160000000     2.181608000000     1.007825032230

  Charge       = -1
  Multiplicity = 1
  Basis Set: AUG-CC-PVTZ
    Blend: AUG-CC-PVTZ
  Basis Set: (AUG-CC-PVTZ AUX)
    Blend: AUG-CC-PVTZ-JKFIT

    Orbital Energies [Eh]
    ---------------------

    Doubly Occupied:

       1A   -489.797600     2A    -64.938253     3A    -58.292731
       4A    -58.292724     5A    -58.292701     6A    -20.419186
       7A    -20.418658     8A    -20.418590     9A    -20.417030
      10A     -9.610809    11A     -7.218452    12A     -7.218283
      13A     -7.218203    14A     -2.960005    15A     -2.959943
      16A     -2.959893    17A     -2.959740    18A     -2.959734
      19A     -1.218616    20A     -1.202254    21A     -1.201751
      22A     -1.201303    23A     -0.779876    24A     -0.565321
      25A     -0.559902    26A     -0.559573    27A     -0.559172
      28A     -0.467341    29A     -0.454666    30A     -0.453946
      31A     -0.444980    32A     -0.371793    33A     -0.362716
      34A     -0.360724    35A     -0.360190    36A     -0.228150
      37A     -0.224111    38A     -0.222713

  @DF-RHF Final Energy: -2876.82729831621509

   => Energetics <=

    Nuclear Repulsion Energy =            353.9729638377509104
    One-Electron Energy =               -4723.2972532549811149
    Two-Electron Energy =                1492.4969911010146006
    Total Energy =                      -2876.8272983162150922
 Dipole X            :         78.0923748          -77.3385176            0.7538573
 Dipole Y            :       -102.8368124          101.8019255           -1.0348869
 Dipole Z            :         22.3867745          -22.1513904            0.2353841
 Magnitude           :                                                    1.3018054
  Basis Set: (AUG-CC-PVTZ AUX)
    Blend: AUG-CC-PVTZ-RI
	 Reference Energy          =   -2876.8272983162150922 [Eh]
	 Singles Energy            =      -0.0000000000000000 [Eh]
	 Same-Spin Energy          =      -0.3792840225393976 [Eh]
	 Opposite-Spin Energy      =      -1.0895233810858045 [Eh]
	 Correlation Energy        =      -1.4688074036252021 [Eh]
	 Total Energy              =   -2878.2961057198403978 [Eh]

	 ================> DF-SCS-MP2 Energies <==================
	-----------------------------------------------------------
	 SCS Same-Spin Scale       =       0.3333333333333333 [-]
	 SCS Opposite-Spin Scale   =       1.2000000000000000 [-]
	 SCS Same-Spin Energy      =      -0.1264280075131325 [Eh]
	 SCS Opposite-Spin Energy  =      -1.3074280573029653 [Eh]
	 SCS Correlation Energy    =      -1.4338560648160978 [Eh]
	 SCS Total Energy          =   -2878.2611543810312469 [Eh]
	-----------------------------------------------------------

*** Psi4 exiting successfully. Buy a developer a beer!
