                               Psi4 1.9 release

  ==> Input File <==

--------------------------------------------------------------------------
MEMORY 60 GB

molecule dimer {
-1 1
Br     0.000000     0.000000     0.000000
--
0 1
O      0.553611     2.534250    -2.078110
H      0.629338     1.653964    -1.672755
H      0.306285     3.057750    -1.302436
O     -2.264363     1.718106    -1.669804
H     -1.819846     1.014407    -1.163465
H     -1.513796     2.067261    -2.169836
O     -0.808349     3.157421     0.457372
H     -0.454952     2.261911     0.607349
H     -1.567751     2.947410    -0.103931
O     -1.611921    -1.947691     2.093967
H     -1.065322    -1.430972     1.474055
H     -2.391561    -1.397160     2.181608

units ang
no_reorient
no_com
symmetry c1
}

set {
basis        aug-cc-pVTZ
scf_type     df
}

energy("mp2", bsse_type="cp")
--------------------------------------------------------------------------

                               Psi4 1.9 release
    Molecular point group: c1
  Charge       = 0
  Multiplicity = 1
  Basis Set: AUG-CC-PVTZ
    Blend: AUG-CC-PVTZ
  Basis Set: (AUG-CC-PVTZ AUX)
    Blend: AUG-CC-PVTZ-JKFIT
  @DF-RHF Final Energy:  -304.23615393772855
    Total Energy =                       -304.2361539377285453
 Dipole X            :         77.5312150          -77.3385176            0.1926975
 Dipole Y            :       -102.1774721          101.8019255           -0.3755465
 Dipole Z            :         22.2748735          -22.1513904            0.1234830
 Magnitude           :                                                    0.4397904
  Basis Set: (AUG-CC-PVTZ AUX)
    Blend: AUG-CC-PVTZ-RI
	 Reference Energy          =    -304.2361539377285453 [Eh]
	 Singles Energy            =      -0.0000000000000000 [Eh]
	 Same-Spin Energy          =      -0.2791475054313831 [Eh]
	 Opposite-Spin Energy      =      -0.8715361115483029 [Eh]
	 Correlation Energy        =      -1.1506836169796859 [Eh]
	 Total Energy              =    -305.3868375547082223 [Eh]
	 SCS Total Energy          =    -305.3750464400636133 [Eh]
                               Psi4 1.9 release
    Molecular point group: c1
  Multiplicity = 1
  Basis Set: AUG-CC-PVTZ
    Blend: AUG-CC-PVTZ
  Basis Set: (AUG-CC-PVTZ AUX)
    Blend: AUG-CC-PVTZ-JKFIT
  @DF-RHF Final Energy: -2572.53372290009384
    Total Energy =                      -2572.5337229000938351
  Basis Set: (AUG-CC-PVTZ AUX)
	 Singles Energy            =      -0.0000000000000000 [Eh]
	 Same-Spin Energy          =      -0.0909303216792356 [Eh]
	 Opposite-Spin Energy      =      -0.2116736728560490 [Eh]
	 Correlation Energy        =      -0.3026039945352846 [Eh]
	 Total Energy              =   -2572.8363268946291100 [Eh]
	 SCS Total Energy          =   -2572.8180414147473130 [Eh]
                               Psi4 1.9 release
    Molecular point group: c1

    Geometry (in Bohr), charge = -1, multiplicity = 1:

       Center              X                  Y                   Z               Mass
    ------------   -----------------  -----------------  -----------------  -----------------
         BR           0.000000000000     0.000000000000     0.000000000000    78.918337600000
         O            1.046173170041     4.789038433442    -3.927058758575    15.994914619570
         H            1.189276460343     3.125538981367    -3.161048824990     1.007825032230
         H            0.578794766336     5.778310060119    -2.461247335937     1.007825032230
         O           -4.279025918620     3.246749794506    -3.155472243194    15.994914619570
         H           -3.439010530510     1.916951409747    -2.198630206556     1.007825032230
         H           -2.860659849814     3.906557119840    -4.100395777159     1.007825032230
         O           -1.527558223788     5.966660952769     0.864307817453    15.994914619570
         H           -0.859734680229     4.274392310160     1.147723272571     1.007825032230
         H           -2.962620022913     5.569797679436    -0.196401125945     1.007825032230
         O           -3.046089225874    -3.680602567019     3.957024145747    15.994914619570
         H           -2.013166815425    -2.704145173199     2.785560243862     1.007825032230
         H           -4.519395302326    -2.640249753445     4.122641633108     1.007825032230

  Charge       = -1
  Multiplicity = 1
  Basis Set: AUG-CC-PVTZ
    Blend: AUG-CC-PVTZ
  Basis Set: (AUG-CC-PVTZ AUX)
    Blend: AUG-CC-PVTZ-JKFIT

    Orbital Energies [Eh]
    ---------------------

    Doubly Occupied:

       1A   -489.797600     2A    -64.938253     3A    -58.292731
       4A    -58.292724     5A    -58.292701     6A    -20.419186
       7A    -20.418658     8A    -20.418590     9A    -20.417030
      10A     -9.610809    11A     -7.218452    12A     -7.218283
      13A     -7.218203    14A     -2.960005    15A     -2.959943
      16A     -2.959893    17A     -2.959740    18A     -2.959734
      19A     -1.218616    20A     -1.202254    21A     -1.201751
      22A     -1.201303    23A     -0.779876    24A     -0.565321
      25A     -0.559902    26A     -0.559573    27A     -0.559172
      28A     -0.467341    29A     -0.454666    30A     -0.453946
      31A     -0.444980    32A     -0.371793    33A     -0.362716
      34A     -0.360724    35A     -0.360190    36A     -0.228150
      37A     -0.224111    38A     -0.222713

  @DF-RHF Final Energy: -2876.82729831601682

   => Energetics <=

    Nuclear Repulsion Energy =            353.9729638377509104
    One-Electron Energy =               -4723.2972532549511016
    Two-Electron Energy =                1492.4969911011833119
    Total Energy =                      -2876.8272983160168224
 Dipole X            :         78.0923748          -77.3385176            0.7538573
 Dipole Y            :       -102.8368124          101.8019255           -1.0348869
 Dipole Z            :         22.3867745          -22.1513904            0.2353841
 Magnitude           :                                                    1.3018054
  Basis Set: (AUG-CC-PVTZ AUX)
    Blend: AUG-CC-PVTZ-RI
	 Reference Energy          =   -2876.8272983160168224 [Eh]
	 Singles Energy            =      -0.0000000000000000 [Eh]
	 Same-Spin Energy          =      -0.3792840225399992 [Eh]
	 Opposite-Spin Energy      =      -1.0895233810874234 [Eh]
	 Correlation Energy        =      -1.4688074036274226 [Eh]
	 Total Energy              =   -2878.2961057196444017 [Eh]

	 ================> DF-SCS-MP2 Energies <==================
	-----------------------------------------------------------
	 SCS Same-Spin Scale       =       0.3333333333333333 [-]
	 SCS Opposite-Spin Scale   =       1.2000000000000000 [-]
	 SCS Same-Spin Energy      =      -0.1264280075133331 [Eh]
	 SCS Opposite-Spin Energy  =      -1.3074280573049080 [Eh]
	 SCS Correlation Energy    =      -1.4338560648182410 [Eh]
	 SCS Total Energy          =   -2878.2611543808352508 [Eh]
	-----------------------------------------------------------

*** Psi4 exiting successfully. Buy a developer a beer!
