                               Psi4 1.9.1 release

  ==> Input File <==

--------------------------------------------------------------------------
MEMORY 60 GB

molecule dimer {
-1 1
Br         0.000000     0.000000     0.000000
Gh(O)      0.553611     2.534250    -2.078110
Gh(H)      0.629338     1.653964    -1.672755
Gh(H)      0.306285     3.057750    -1.302436
Gh(O)     -2.264363     1.718106    -1.669804
Gh(H)     -1.819846     1.014407    -1.163465
Gh(H)     -1.513796     2.067261    -2.169836
Gh(O)     -0.808349     3.157421     0.457372
Gh(H)     -0.454952     2.261911     0.607349
Gh(H)     -1.567751     2.947410    -0.103931
Gh(O)     -1.611921    -1.947691     2.093967
Gh(H)     -1.065322    -1.430972     1.474055
Gh(H)     -2.391561    -1.397160     2.181608

units ang
no_reorient
no_com
symmetry c1
}

set {
basis        aug-cc-pVTZ
scf_type     df
}

energy("mp2")
--------------------------------------------------------------------------

    Molecular point group: c1

    Geometry (in Angstrom), charge = -1, multiplicity = 1:

       Center              X                  Y                   Z               Mass
    ------------   -----------------  -----------------  -----------------  -----------------
         BR           0.000000000000     0.000000000000     0.000000000000    78.918337600000
      Gh(O)           0.553611000000     2.534250000000    -2.078110000000    15.994914619570
      Gh(H)           0.629338000000     1.653964000000    -1.672755000000     1.007825032230
      Gh(H)           0.306285000000     3.057750000000    -1.302436000000     1.007825032230
      Gh(O)          -2.264363000000     1.718106000000    -1.669804000000    15.994914619570
      Gh(H)          -1.819846000000     1.014407000000    -1.163465000000     1.007825032230
      Gh(H)          -1.513796000000     2.067261000000    -2.169836000000     1.007825032230
      Gh(O)          -0.808349000000     3.157421000000     0.457372000000    15.994914619570
      Gh(H)          -0.454952000000     2.261911000000     0.607349000000     1.007825032230
      Gh(H)          -1.567751000000     2.947410000000    -0.103931000000     1.007825032230
      Gh(O)          -1.611921000000    -1.947691000000     2.093967000000    15.994914619570
      Gh(H)          -1.065322000000    -1.430972000000     1.474055000000     1.007825032230
      Gh(H)          -2.391561000000    -1.397160000000     2.181608000000     1.007825032230

  Charge       = -1
  Multiplicity = 1
  Basis Set: AUG-CC-PVTZ
    Blend: AUG-CC-PVTZ
  Basis Set: (AUG-CC-PVTZ AUX)
    Blend: AUG-CC-PVTZ-JKFIT

    Orbital Energies [Eh]
    ---------------------

    Doubly Occupied:

       1A   -489.722047     2A    -64.861672     3A    -58.216203
       4A    -58.216203     5A    -58.216199     6A     -9.533250
       7A     -7.140593     8A     -7.140586     9A     -7.140557
      10A     -2.882298    11A     -2.882294    12A     -2.882272
      13A     -2.882267    14A     -2.882253    15A     -0.685994
      16A     -0.139340    17A     -0.139339    18A     -0.139331

  @DF-RHF Final Energy: -2572.53372290015068

   => Energetics <=

    Nuclear Repulsion Energy =              0.0000000000000000
    One-Electron Energy =               -3593.6620547276479556
    Two-Electron Energy =                1021.1283318274975045
    Total Energy =                      -2572.5337229001506785
 Dipole X            :         -0.0002037            0.0000000           -0.0002037
 Dipole Y            :          0.0000382            0.0000000            0.0000382
 Dipole Z            :          0.0000695            0.0000000            0.0000695
 Magnitude           :                                                    0.0002186
  Basis Set: (AUG-CC-PVTZ AUX)
    Blend: AUG-CC-PVTZ-RI
	 Reference Energy          =   -2572.5337229001506785 [Eh]
	 Singles Energy            =      -0.0000000000000000 [Eh]
	 Same-Spin Energy          =      -0.0909303216788752 [Eh]
	 Opposite-Spin Energy      =      -0.2116736728553991 [Eh]
	 Correlation Energy        =      -0.3026039945342743 [Eh]
	 Total Energy              =   -2572.8363268946850440 [Eh]

	 ================> DF-SCS-MP2 Energies <==================
	-----------------------------------------------------------
	 SCS Same-Spin Scale       =       0.3333333333333333 [-]
	 SCS Opposite-Spin Scale   =       1.2000000000000000 [-]
	 SCS Same-Spin Energy      =      -0.0303101072262917 [Eh]
	 SCS Opposite-Spin Energy  =      -0.2540084074264789 [Eh]
	 SCS Correlation Energy    =      -0.2843185146527706 [Eh]
	 SCS Total Energy          =   -2572.8180414148032469 [Eh]
	-----------------------------------------------------------

*** Psi4 exiting successfully. Buy a developer a beer!
