                               Psi4 1.9.1 release

  ==> Input File <==

--------------------------------------------------------------------------
MEMORY 60 GB

molecule dimer {
-1 1
Br         0.000000     0.000000     0.000000
O          3.120425    -0.826381    -0.653955
H          2.175049    -0.688085    -0.469907
H          3.482944     0.051128    -0.523257
O         -3.065056     0.696841    -1.021874
H         -2.151256     0.841718    -0.723588
H         -3.276492    -0.116119    -0.543554
O         -2.496649    -2.067458    -0.054316
H         -1.678532    -1.545525     0.055514
H         -2.454744    -2.255828    -1.000530
O         -1.575261    -1.133354     2.756572
H         -0.995542    -0.711630     2.103923
H         -2.135217    -1.683743     2.202281
O         -1.631762    -1.165015    -2.753747
H         -0.868527    -0.968596    -2.190041
H         -2.244185    -0.471353    -2.467719

units ang
no_reorient
no_com
symmetry c1
}

set {
basis        aug-cc-pVTZ
scf_type     df
}

energy("mp2")
--------------------------------------------------------------------------

    Molecular point group: c1

    Geometry (in Angstrom), charge = -1, multiplicity = 1:

       Center              X                  Y                   Z               Mass
    ------------   -----------------  -----------------  -----------------  -----------------
         BR           0.000000000000     0.000000000000     0.000000000000    78.918337600000
         O            3.120425000000    -0.826381000000    -0.653955000000    15.994914619570
         H            2.175049000000    -0.688085000000    -0.469907000000     1.007825032230
         H            3.482944000000     0.051128000000    -0.523257000000     1.007825032230
         O           -3.065056000000     0.696841000000    -1.021874000000    15.994914619570
         H           -2.151256000000     0.841718000000    -0.723588000000     1.007825032230
         H           -3.276492000000    -0.116119000000    -0.543554000000     1.007825032230
         O           -2.496649000000    -2.067458000000    -0.054316000000    15.994914619570
         H           -1.678532000000    -1.545525000000     0.055514000000     1.007825032230
         H           -2.454744000000    -2.255828000000    -1.000530000000     1.007825032230
         O           -1.575261000000    -1.133354000000     2.756572000000    15.994914619570
         H           -0.995542000000    -0.711630000000     2.103923000000     1.007825032230
         H           -2.135217000000    -1.683743000000     2.202281000000     1.007825032230
         O           -1.631762000000    -1.165015000000    -2.753747000000    15.994914619570
         H           -0.868527000000    -0.968596000000    -2.190041000000     1.007825032230
         H           -2.244185000000    -0.471353000000    -2.467719000000     1.007825032230

  Charge       = -1
  Multiplicity = 1
  Basis Set: AUG-CC-PVTZ
    Blend: AUG-CC-PVTZ
  Basis Set: (AUG-CC-PVTZ AUX)
    Blend: AUG-CC-PVTZ-JKFIT

    Orbital Energies [Eh]
    ---------------------

    Doubly Occupied:

       1A   -489.814338     2A    -64.955094     3A    -58.309566
       4A    -58.309557     5A    -58.309542     6A    -20.433376
       7A    -20.431274     8A    -20.426304     9A    -20.425580
      10A    -20.416667    11A     -9.627679    12A     -7.235342
      13A     -7.235142    14A     -7.235123    15A     -2.976840
      16A     -2.976813    17A     -2.976777    18A     -2.976623
      19A     -2.976614    20A     -1.230827    21A     -1.216937
      22A     -1.211121    23A     -1.210469    24A     -1.202558
      25A     -0.799294    26A     -0.581759    27A     -0.574511
      28A     -0.570546    29A     -0.569114    30A     -0.560475
      31A     -0.479288    32A     -0.467910    33A     -0.462982
      34A     -0.453313    35A     -0.443598    36A     -0.385304
      37A     -0.373403    38A     -0.371141    39A     -0.369788
      40A     -0.362086    41A     -0.245107    42A     -0.241924
      43A     -0.241163

  @DF-RHF Final Energy: -2952.89620122299948

   => Energetics <=

    Nuclear Repulsion Energy =            467.4747178670596099
    One-Electron Energy =               -5055.3960966518034184
    Two-Electron Energy =                1635.0251775617443855
    Total Energy =                      -2952.8962012229994798
 Dipole X            :        105.7596929         -104.5640759            1.1956170
 Dipole Y            :         83.6139988          -82.2238149            1.3901840
 Dipole Z            :         32.8947662          -32.8348191            0.0599471
 Magnitude           :                                                    1.8345858
  Basis Set: (AUG-CC-PVTZ AUX)
    Blend: AUG-CC-PVTZ-RI
	 Reference Energy          =   -2952.8962012229994798 [Eh]
	 Singles Energy            =      -0.0000000000000000 [Eh]
	 Same-Spin Energy          =      -0.4513976651878310 [Eh]
	 Opposite-Spin Energy      =      -1.3106093088998390 [Eh]
	 Correlation Energy        =      -1.7620069740876700 [Eh]
	 Total Energy              =   -2954.6582081970873332 [Eh]

	 ================> DF-SCS-MP2 Energies <==================
	-----------------------------------------------------------
	 SCS Same-Spin Scale       =       0.3333333333333333 [-]
	 SCS Opposite-Spin Scale   =       1.2000000000000000 [-]
	 SCS Same-Spin Energy      =      -0.1504658883959437 [Eh]
	 SCS Opposite-Spin Energy  =      -1.5727311706798066 [Eh]
	 SCS Correlation Energy    =      -1.7231970590757504 [Eh]
	 SCS Total Energy          =   -2954.6193982820750534 [Eh]
	-----------------------------------------------------------

*** Psi4 exiting successfully. Buy a developer a beer!
