                               Psi4 1.9.1 release

  ==> Input File <==

--------------------------------------------------------------------------
MEMORY 60 GB

molecule dimer {
-1 1
Br         0.000000     0.000000     0.000000
Gh(O)      3.120425    -0.826381    -0.653955
Gh(H)      2.175049    -0.688085    -0.469907
Gh(H)      3.482944     0.051128    -0.523257
Gh(O)     -3.065056     0.696841    -1.021874
Gh(H)     -2.151256     0.841718    -0.723588
Gh(H)     -3.276492    -0.116119    -0.543554
Gh(O)     -2.496649    -2.067458    -0.054316
Gh(H)     -1.678532    -1.545525     0.055514
Gh(H)     -2.454744    -2.255828    -1.000530
Gh(O)     -1.575261    -1.133354     2.756572
Gh(H)     -0.995542    -0.711630     2.103923
Gh(H)     -2.135217    -1.683743     2.202281
Gh(O)     -1.631762    -1.165015    -2.753747
Gh(H)     -0.868527    -0.968596    -2.190041
Gh(H)     -2.244185    -0.471353    -2.467719

units ang
no_reorient
no_com
symmetry c1
}

set {
basis        aug-cc-pVTZ
scf_type     df
}

energy("mp2")
--------------------------------------------------------------------------

    Molecular point group: c1

    Geometry (in Angstrom), charge = -1, multiplicity = 1:

       Center              X                  Y                   Z               Mass
    ------------   -----------------  -----------------  -----------------  -----------------
         BR           0.000000000000     0.000000000000     0.000000000000    78.918337600000
      Gh(O)           3.120425000000    -0.826381000000    -0.653955000000    15.994914619570
      Gh(H)           2.175049000000    -0.688085000000    -0.469907000000     1.007825032230
      Gh(H)           3.482944000000     0.051128000000    -0.523257000000     1.007825032230
      Gh(O)          -3.065056000000     0.696841000000    -1.021874000000    15.994914619570
      Gh(H)          -2.151256000000     0.841718000000    -0.723588000000     1.007825032230
      Gh(H)          -3.276492000000    -0.116119000000    -0.543554000000     1.007825032230
      Gh(O)          -2.496649000000    -2.067458000000    -0.054316000000    15.994914619570
      Gh(H)          -1.678532000000    -1.545525000000     0.055514000000     1.007825032230
      Gh(H)          -2.454744000000    -2.255828000000    -1.000530000000     1.007825032230
      Gh(O)          -1.575261000000    -1.133354000000     2.756572000000    15.994914619570
      Gh(H)          -0.995542000000    -0.711630000000     2.103923000000     1.007825032230
      Gh(H)          -2.135217000000    -1.683743000000     2.202281000000     1.007825032230
      Gh(O)          -1.631762000000    -1.165015000000    -2.753747000000    15.994914619570
      Gh(H)          -0.868527000000    -0.968596000000    -2.190041000000     1.007825032230
      Gh(H)          -2.244185000000    -0.471353000000    -2.467719000000     1.007825032230

  Charge       = -1
  Multiplicity = 1
  Basis Set: AUG-CC-PVTZ
    Blend: AUG-CC-PVTZ
  Basis Set: (AUG-CC-PVTZ AUX)
    Blend: AUG-CC-PVTZ-JKFIT

    Orbital Energies [Eh]
    ---------------------

    Doubly Occupied:

       1A   -489.722384     2A    -64.861919     3A    -58.216461
       4A    -58.216459     5A    -58.216456     6A     -9.533333
       7A     -7.140668     8A     -7.140658     9A     -7.140638
      10A     -2.882380    11A     -2.882370    12A     -2.882357
      13A     -2.882351    14A     -2.882338    15A     -0.685993
      16A     -0.139338    17A     -0.139337    18A     -0.139330

  @DF-RHF Final Energy: -2572.53373448576303

   => Energetics <=

    Nuclear Repulsion Energy =              0.0000000000000000
    One-Electron Energy =               -3593.6579271085324763
    Two-Electron Energy =                1021.1241926227695558
    Total Energy =                      -2572.5337344857630342
 Dipole X            :         -0.0000777            0.0000000           -0.0000777
 Dipole Y            :         -0.0003207            0.0000000           -0.0003207
 Dipole Z            :         -0.0000670            0.0000000           -0.0000670
 Magnitude           :                                                    0.0003367
  Basis Set: (AUG-CC-PVTZ AUX)
    Blend: AUG-CC-PVTZ-RI
	 Reference Energy          =   -2572.5337344857630342 [Eh]
	 Singles Energy            =      -0.0000000000000000 [Eh]
	 Same-Spin Energy          =      -0.0918890508131920 [Eh]
	 Opposite-Spin Energy      =      -0.2140606879352646 [Eh]
	 Correlation Energy        =      -0.3059497387484565 [Eh]
	 Total Energy              =   -2572.8396842245115295 [Eh]

	 ================> DF-SCS-MP2 Energies <==================
	-----------------------------------------------------------
	 SCS Same-Spin Scale       =       0.3333333333333333 [-]
	 SCS Opposite-Spin Scale   =       1.2000000000000000 [-]
	 SCS Same-Spin Energy      =      -0.0306296836043973 [Eh]
	 SCS Opposite-Spin Energy  =      -0.2568728255223174 [Eh]
	 SCS Correlation Energy    =      -0.2875025091267148 [Eh]
	 SCS Total Energy          =   -2572.8212369948896594 [Eh]
	-----------------------------------------------------------

*** Psi4 exiting successfully. Buy a developer a beer!
