                               Psi4 1.9.1 release

  ==> Input File <==

--------------------------------------------------------------------------
MEMORY 60 GB

molecule dimer {
0 1
Gh(Br)     0.000000     0.000000     0.000000
Gh(O)      3.120425    -0.826381    -0.653955
Gh(H)      2.175049    -0.688085    -0.469907
Gh(H)      3.482944     0.051128    -0.523257
O         -3.065056     0.696841    -1.021874
H         -2.151256     0.841718    -0.723588
H         -3.276492    -0.116119    -0.543554
Gh(O)     -2.496649    -2.067458    -0.054316
Gh(H)     -1.678532    -1.545525     0.055514
Gh(H)     -2.454744    -2.255828    -1.000530
Gh(O)     -1.575261    -1.133354     2.756572
Gh(H)     -0.995542    -0.711630     2.103923
Gh(H)     -2.135217    -1.683743     2.202281
Gh(O)     -1.631762    -1.165015    -2.753747
Gh(H)     -0.868527    -0.968596    -2.190041
Gh(H)     -2.244185    -0.471353    -2.467719

units ang
no_reorient
no_com
symmetry c1
}

set {
basis        aug-cc-pVTZ
scf_type     df
}

energy("mp2")
--------------------------------------------------------------------------

    Molecular point group: c1

    Geometry (in Angstrom), charge = 0, multiplicity = 1:

       Center              X                  Y                   Z               Mass
    ------------   -----------------  -----------------  -----------------  -----------------
      Gh(BR)          0.000000000000     0.000000000000     0.000000000000    78.918337600000
      Gh(O)           3.120425000000    -0.826381000000    -0.653955000000    15.994914619570
      Gh(H)           2.175049000000    -0.688085000000    -0.469907000000     1.007825032230
      Gh(H)           3.482944000000     0.051128000000    -0.523257000000     1.007825032230
         O           -3.065056000000     0.696841000000    -1.021874000000    15.994914619570
         H           -2.151256000000     0.841718000000    -0.723588000000     1.007825032230
         H           -3.276492000000    -0.116119000000    -0.543554000000     1.007825032230
      Gh(O)          -2.496649000000    -2.067458000000    -0.054316000000    15.994914619570
      Gh(H)          -1.678532000000    -1.545525000000     0.055514000000     1.007825032230
      Gh(H)          -2.454744000000    -2.255828000000    -1.000530000000     1.007825032230
      Gh(O)          -1.575261000000    -1.133354000000     2.756572000000    15.994914619570
      Gh(H)          -0.995542000000    -0.711630000000     2.103923000000     1.007825032230
      Gh(H)          -2.135217000000    -1.683743000000     2.202281000000     1.007825032230
      Gh(O)          -1.631762000000    -1.165015000000    -2.753747000000    15.994914619570
      Gh(H)          -0.868527000000    -0.968596000000    -2.190041000000     1.007825032230
      Gh(H)          -2.244185000000    -0.471353000000    -2.467719000000     1.007825032230

  Charge       = 0
  Multiplicity = 1
  Basis Set: AUG-CC-PVTZ
    Blend: AUG-CC-PVTZ
  Basis Set: (AUG-CC-PVTZ AUX)
    Blend: AUG-CC-PVTZ-JKFIT

    Orbital Energies [Eh]
    ---------------------

    Doubly Occupied:

       1A    -20.570947     2A     -1.350299     3A     -0.702916
       4A     -0.590720     5A     -0.510563

  @DF-RHF Final Energy:   -76.05901078035151

   => Energetics <=

    Nuclear Repulsion Energy =              9.0898662774051822
    One-Electron Energy =                -122.8468617063816595
    Two-Electron Energy =                  37.6979846486249670
    Total Energy =                        -76.0590107803515139
 Dipole X            :         57.0511124          -56.5938884            0.4572240
 Dipole Y            :        -12.3422262           11.9058925           -0.4363337
 Dipole Z            :         18.3497526          -17.8430473            0.5067053
 Magnitude           :                                                    0.8100562
  Basis Set: (AUG-CC-PVTZ AUX)
    Blend: AUG-CC-PVTZ-RI
	 Reference Energy          =     -76.0590107803515139 [Eh]
	 Singles Energy            =      -0.0000000000000000 [Eh]
	 Same-Spin Energy          =      -0.0687699910645174 [Eh]
	 Opposite-Spin Energy      =      -0.2173154527841330 [Eh]
	 Correlation Energy        =      -0.2860854438486504 [Eh]
	 Total Energy              =     -76.3450962242001623 [Eh]

	 ================> DF-SCS-MP2 Energies <==================
	-----------------------------------------------------------
	 SCS Same-Spin Scale       =       0.3333333333333333 [-]
	 SCS Opposite-Spin Scale   =       1.2000000000000000 [-]
	 SCS Same-Spin Energy      =      -0.0229233303548391 [Eh]
	 SCS Opposite-Spin Energy  =      -0.2607785433409596 [Eh]
	 SCS Correlation Energy    =      -0.2837018736957987 [Eh]
	 SCS Total Energy          =     -76.3427126540473182 [Eh]
	-----------------------------------------------------------

*** Psi4 exiting successfully. Buy a developer a beer!
