                               Psi4 1.9.1 release

  ==> Input File <==

--------------------------------------------------------------------------
MEMORY 60 GB

molecule dimer {
-1 1
Br         0.000000     0.000000     0.000000
Gh(O)      3.254549    -0.104249    -0.528795
Gh(H)      2.296582    -0.168320    -0.374734
Gh(H)      3.387302     0.841606    -0.608219
Gh(O)     -2.518083     2.051371    -0.581415
Gh(H)     -1.703853     1.674382    -0.207010
Gh(H)     -2.516563     1.636470    -1.456756
Gh(O)     -4.082211    -0.088074     0.445581
Gh(H)     -3.647518     0.737277     0.167576
Gh(H)     -3.629719    -0.757063    -0.088344
Gh(O)     -2.310157    -2.192940    -0.581192
Gh(H)     -1.513275    -1.631592    -0.523839
Gh(H)     -2.417527    -2.424018     0.352130
Gh(O)     -2.198556    -1.336618     2.238290
Gh(H)     -1.416373    -0.945329     1.821464
Gh(H)     -2.916803    -0.802952     1.862374
Gh(O)     -1.898927     0.119536    -2.674112
Gh(H)     -1.161002     0.090721    -2.038380
Gh(H)     -2.398752    -0.668230    -2.436475

units ang
no_reorient
no_com
symmetry c1
}

set {
basis        aug-cc-pVTZ
scf_type     df
}

energy("mp2")
--------------------------------------------------------------------------

    Molecular point group: c1

    Geometry (in Angstrom), charge = -1, multiplicity = 1:

       Center              X                  Y                   Z               Mass
    ------------   -----------------  -----------------  -----------------  -----------------
         BR           0.000000000000     0.000000000000     0.000000000000    78.918337600000
      Gh(O)           3.254549000000    -0.104249000000    -0.528795000000    15.994914619570
      Gh(H)           2.296582000000    -0.168320000000    -0.374734000000     1.007825032230
      Gh(H)           3.387302000000     0.841606000000    -0.608219000000     1.007825032230
      Gh(O)          -2.518083000000     2.051371000000    -0.581415000000    15.994914619570
      Gh(H)          -1.703853000000     1.674382000000    -0.207010000000     1.007825032230
      Gh(H)          -2.516563000000     1.636470000000    -1.456756000000     1.007825032230
      Gh(O)          -4.082211000000    -0.088074000000     0.445581000000    15.994914619570
      Gh(H)          -3.647518000000     0.737277000000     0.167576000000     1.007825032230
      Gh(H)          -3.629719000000    -0.757063000000    -0.088344000000     1.007825032230
      Gh(O)          -2.310157000000    -2.192940000000    -0.581192000000    15.994914619570
      Gh(H)          -1.513275000000    -1.631592000000    -0.523839000000     1.007825032230
      Gh(H)          -2.417527000000    -2.424018000000     0.352130000000     1.007825032230
      Gh(O)          -2.198556000000    -1.336618000000     2.238290000000    15.994914619570
      Gh(H)          -1.416373000000    -0.945329000000     1.821464000000     1.007825032230
      Gh(H)          -2.916803000000    -0.802952000000     1.862374000000     1.007825032230
      Gh(O)          -1.898927000000     0.119536000000    -2.674112000000    15.994914619570
      Gh(H)          -1.161002000000     0.090721000000    -2.038380000000     1.007825032230
      Gh(H)          -2.398752000000    -0.668230000000    -2.436475000000     1.007825032230

  Charge       = -1
  Multiplicity = 1
  Basis Set: AUG-CC-PVTZ
    Blend: AUG-CC-PVTZ
  Basis Set: (AUG-CC-PVTZ AUX)
    Blend: AUG-CC-PVTZ-JKFIT

    Orbital Energies [Eh]
    ---------------------

    Doubly Occupied:

       1A   -489.722516     2A    -64.862024     3A    -58.216568
       4A    -58.216568     5A    -58.216564     6A     -9.533371
       7A     -7.140700     8A     -7.140694     9A     -7.140674
      10A     -2.882422    11A     -2.882396    12A     -2.882392
      13A     -2.882384    14A     -2.882380    15A     -0.685992
      16A     -0.139336    17A     -0.139335    18A     -0.139330

  @DF-RHF Final Energy: -2572.53373966547178

   => Energetics <=

    Nuclear Repulsion Energy =              0.0000000000000000
    One-Electron Energy =               -3593.6561881636880571
    Two-Electron Energy =                1021.1224484982161584
    Total Energy =                      -2572.5337396654717850
 Dipole X            :         -0.0000523            0.0000000           -0.0000523
 Dipole Y            :         -0.0001726            0.0000000           -0.0001726
 Dipole Z            :         -0.0001459            0.0000000           -0.0001459
 Magnitude           :                                                    0.0002320
  Basis Set: (AUG-CC-PVTZ AUX)
    Blend: AUG-CC-PVTZ-RI
	 Reference Energy          =   -2572.5337396654717850 [Eh]
	 Singles Energy            =      -0.0000000000000000 [Eh]
	 Same-Spin Energy          =      -0.0922954260127055 [Eh]
	 Opposite-Spin Energy      =      -0.2150588421365420 [Eh]
	 Correlation Energy        =      -0.3073542681492475 [Eh]
	 Total Energy              =   -2572.8410939336208685 [Eh]

	 ================> DF-SCS-MP2 Energies <==================
	-----------------------------------------------------------
	 SCS Same-Spin Scale       =       0.3333333333333333 [-]
	 SCS Opposite-Spin Scale   =       1.2000000000000000 [-]
	 SCS Same-Spin Energy      =      -0.0307651420042352 [Eh]
	 SCS Opposite-Spin Energy  =      -0.2580706105638504 [Eh]
	 SCS Correlation Energy    =      -0.2888357525680856 [Eh]
	 SCS Total Energy          =   -2572.8225754180398326 [Eh]
	-----------------------------------------------------------

*** Psi4 exiting successfully. Buy a developer a beer!
