                               Psi4 1.9.1 release

  ==> Input File <==

--------------------------------------------------------------------------
MEMORY 60 GB

molecule dimer {
-1 1
Br         0.000000     0.000000     0.000000
O          3.254549    -0.104249    -0.528795
H          2.296582    -0.168320    -0.374734
H          3.387302     0.841606    -0.608219
O         -2.518083     2.051371    -0.581415
H         -1.703853     1.674382    -0.207010
H         -2.516563     1.636470    -1.456756
O         -4.082211    -0.088074     0.445581
H         -3.647518     0.737277     0.167576
H         -3.629719    -0.757063    -0.088344
O         -2.310157    -2.192940    -0.581192
H         -1.513275    -1.631592    -0.523839
H         -2.417527    -2.424018     0.352130
O         -2.198556    -1.336618     2.238290
H         -1.416373    -0.945329     1.821464
H         -2.916803    -0.802952     1.862374
O         -1.898927     0.119536    -2.674112
H         -1.161002     0.090721    -2.038380
H         -2.398752    -0.668230    -2.436475

units ang
no_reorient
no_com
symmetry c1
}

set {
basis        aug-cc-pVTZ
scf_type     df
}

energy("mp2")
--------------------------------------------------------------------------

    Molecular point group: c1

    Geometry (in Angstrom), charge = -1, multiplicity = 1:

       Center              X                  Y                   Z               Mass
    ------------   -----------------  -----------------  -----------------  -----------------
         BR           0.000000000000     0.000000000000     0.000000000000    78.918337600000
         O            3.254549000000    -0.104249000000    -0.528795000000    15.994914619570
         H            2.296582000000    -0.168320000000    -0.374734000000     1.007825032230
         H            3.387302000000     0.841606000000    -0.608219000000     1.007825032230
         O           -2.518083000000     2.051371000000    -0.581415000000    15.994914619570
         H           -1.703853000000     1.674382000000    -0.207010000000     1.007825032230
         H           -2.516563000000     1.636470000000    -1.456756000000     1.007825032230
         O           -4.082211000000    -0.088074000000     0.445581000000    15.994914619570
         H           -3.647518000000     0.737277000000     0.167576000000     1.007825032230
         H           -3.629719000000    -0.757063000000    -0.088344000000     1.007825032230
         O           -2.310157000000    -2.192940000000    -0.581192000000    15.994914619570
         H           -1.513275000000    -1.631592000000    -0.523839000000     1.007825032230
         H           -2.417527000000    -2.424018000000     0.352130000000     1.007825032230
         O           -2.198556000000    -1.336618000000     2.238290000000    15.994914619570
         H           -1.416373000000    -0.945329000000     1.821464000000     1.007825032230
         H           -2.916803000000    -0.802952000000     1.862374000000     1.007825032230
         O           -1.898927000000     0.119536000000    -2.674112000000    15.994914619570
         H           -1.161002000000     0.090721000000    -2.038380000000     1.007825032230
         H           -2.398752000000    -0.668230000000    -2.436475000000     1.007825032230

  Charge       = -1
  Multiplicity = 1
  Basis Set: AUG-CC-PVTZ
    Blend: AUG-CC-PVTZ
  Basis Set: (AUG-CC-PVTZ AUX)
    Blend: AUG-CC-PVTZ-JKFIT

    Orbital Energies [Eh]
    ---------------------

    Doubly Occupied:

       1A   -489.823625     2A    -64.964441     3A    -58.318915
       4A    -58.318903     5A    -58.318877     6A    -20.443955
       7A    -20.440311     8A    -20.433253     9A    -20.430503
      10A    -20.425504    11A    -20.422260    12A     -9.637046
      13A     -7.244671    14A     -7.244549    15A     -7.244514
      16A     -2.986178    17A     -2.986154    18A     -2.986107
      19A     -2.986032    20A     -2.986021    21A     -1.238598
      22A     -1.230877    23A     -1.223981    24A     -1.216083
      25A     -1.212336    26A     -1.204918    27A     -0.809834
      28A     -0.593795    29A     -0.588811    30A     -0.578874
      31A     -0.577812    32A     -0.574257    33A     -0.566626
      34A     -0.484851    35A     -0.476419    36A     -0.471884
      37A     -0.466216    38A     -0.458728    39A     -0.456671
      40A     -0.390131    41A     -0.386846    42A     -0.376047
      43A     -0.376021    44A     -0.371405    45A     -0.366180
      46A     -0.253944    47A     -0.252031    48A     -0.251312

  @DF-RHF Final Energy: -3028.96906533673064

   => Energetics <=

    Nuclear Repulsion Energy =            595.9363292277729443
    One-Electron Energy =               -5417.6161653672379543
    Two-Electron Energy =                1792.7107708027342596
    Total Energy =                      -3028.9690653367306368
 Dipole X            :        182.7171511         -180.7798580            1.9372931
 Dipole Y            :         28.6303563          -28.0148875            0.6154689
 Dipole Z            :         32.0706970          -32.0938934           -0.0231964
 Magnitude           :                                                    2.0328415
  Basis Set: (AUG-CC-PVTZ AUX)
    Blend: AUG-CC-PVTZ-RI
	 Reference Energy          =   -3028.9690653367306368 [Eh]
	 Singles Energy            =      -0.0000000000000000 [Eh]
	 Same-Spin Energy          =      -0.5254285534032801 [Eh]
	 Opposite-Spin Energy      =      -1.5334872466496339 [Eh]
	 Correlation Energy        =      -2.0589158000529140 [Eh]
	 Total Energy              =   -3031.0279811367836373 [Eh]

	 ================> DF-SCS-MP2 Energies <==================
	-----------------------------------------------------------
	 SCS Same-Spin Scale       =       0.3333333333333333 [-]
	 SCS Opposite-Spin Scale   =       1.2000000000000000 [-]
	 SCS Same-Spin Energy      =      -0.1751428511344267 [Eh]
	 SCS Opposite-Spin Energy  =      -1.8401846959795605 [Eh]
	 SCS Correlation Energy    =      -2.0153275471139871 [Eh]
	 SCS Total Energy          =   -3030.9843928838445208 [Eh]
	-----------------------------------------------------------

*** Psi4 exiting successfully. Buy a developer a beer!
