                               Psi4 1.9.1 release

  ==> Input File <==

--------------------------------------------------------------------------
MEMORY 60 GB

molecule dimer {
0 1
Gh(Br)     0.000000     0.000000     0.000000
Gh(O)      3.254549    -0.104249    -0.528795
Gh(H)      2.296582    -0.168320    -0.374734
Gh(H)      3.387302     0.841606    -0.608219
Gh(O)     -2.518083     2.051371    -0.581415
Gh(H)     -1.703853     1.674382    -0.207010
Gh(H)     -2.516563     1.636470    -1.456756
Gh(O)     -4.082211    -0.088074     0.445581
Gh(H)     -3.647518     0.737277     0.167576
Gh(H)     -3.629719    -0.757063    -0.088344
O         -2.310157    -2.192940    -0.581192
H         -1.513275    -1.631592    -0.523839
H         -2.417527    -2.424018     0.352130
Gh(O)     -2.198556    -1.336618     2.238290
Gh(H)     -1.416373    -0.945329     1.821464
Gh(H)     -2.916803    -0.802952     1.862374
Gh(O)     -1.898927     0.119536    -2.674112
Gh(H)     -1.161002     0.090721    -2.038380
Gh(H)     -2.398752    -0.668230    -2.436475

units ang
no_reorient
no_com
symmetry c1
}

set {
basis        aug-cc-pVTZ
scf_type     df
}

energy("mp2")
--------------------------------------------------------------------------

    Molecular point group: c1

    Geometry (in Angstrom), charge = 0, multiplicity = 1:

       Center              X                  Y                   Z               Mass
    ------------   -----------------  -----------------  -----------------  -----------------
      Gh(BR)          0.000000000000     0.000000000000     0.000000000000    78.918337600000
      Gh(O)           3.254549000000    -0.104249000000    -0.528795000000    15.994914619570
      Gh(H)           2.296582000000    -0.168320000000    -0.374734000000     1.007825032230
      Gh(H)           3.387302000000     0.841606000000    -0.608219000000     1.007825032230
      Gh(O)          -2.518083000000     2.051371000000    -0.581415000000    15.994914619570
      Gh(H)          -1.703853000000     1.674382000000    -0.207010000000     1.007825032230
      Gh(H)          -2.516563000000     1.636470000000    -1.456756000000     1.007825032230
      Gh(O)          -4.082211000000    -0.088074000000     0.445581000000    15.994914619570
      Gh(H)          -3.647518000000     0.737277000000     0.167576000000     1.007825032230
      Gh(H)          -3.629719000000    -0.757063000000    -0.088344000000     1.007825032230
         O           -2.310157000000    -2.192940000000    -0.581192000000    15.994914619570
         H           -1.513275000000    -1.631592000000    -0.523839000000     1.007825032230
         H           -2.417527000000    -2.424018000000     0.352130000000     1.007825032230
      Gh(O)          -2.198556000000    -1.336618000000     2.238290000000    15.994914619570
      Gh(H)          -1.416373000000    -0.945329000000     1.821464000000     1.007825032230
      Gh(H)          -2.916803000000    -0.802952000000     1.862374000000     1.007825032230
      Gh(O)          -1.898927000000     0.119536000000    -2.674112000000    15.994914619570
      Gh(H)          -1.161002000000     0.090721000000    -2.038380000000     1.007825032230
      Gh(H)          -2.398752000000    -0.668230000000    -2.436475000000     1.007825032230

  Charge       = 0
  Multiplicity = 1
  Basis Set: AUG-CC-PVTZ
    Blend: AUG-CC-PVTZ
  Basis Set: (AUG-CC-PVTZ AUX)
    Blend: AUG-CC-PVTZ-JKFIT

    Orbital Energies [Eh]
    ---------------------

    Doubly Occupied:

       1A    -20.571567     2A     -1.349312     3A     -0.700636
       4A     -0.591087     5A     -0.510490

  @DF-RHF Final Energy:   -76.05862346531994

   => Energetics <=

    Nuclear Repulsion Energy =              9.0670419811574856
    One-Electron Energy =                -122.8051429358481670
    Two-Electron Energy =                  37.6794774893707398
    Total Energy =                        -76.0586234653199398
 Dipole X            :         42.8000884          -42.3526515            0.4474369
 Dipole Y            :         41.0302160          -40.8164402            0.2137758
 Dipole Z            :          9.7560216           -9.1108326            0.6451890
 Magnitude           :                                                    0.8137375
  Basis Set: (AUG-CC-PVTZ AUX)
    Blend: AUG-CC-PVTZ-RI
	 Reference Energy          =     -76.0586234653199398 [Eh]
	 Singles Energy            =      -0.0000000000000000 [Eh]
	 Same-Spin Energy          =      -0.0688612459640452 [Eh]
	 Opposite-Spin Energy      =      -0.2178097361384661 [Eh]
	 Correlation Energy        =      -0.2866709821025113 [Eh]
	 Total Energy              =     -76.3452944474224466 [Eh]

	 ================> DF-SCS-MP2 Energies <==================
	-----------------------------------------------------------
	 SCS Same-Spin Scale       =       0.3333333333333333 [-]
	 SCS Opposite-Spin Scale   =       1.2000000000000000 [-]
	 SCS Same-Spin Energy      =      -0.0229537486546817 [Eh]
	 SCS Opposite-Spin Energy  =      -0.2613716833661593 [Eh]
	 SCS Correlation Energy    =      -0.2843254320208410 [Eh]
	 SCS Total Energy          =     -76.3429488973407757 [Eh]
	-----------------------------------------------------------

*** Psi4 exiting successfully. Buy a developer a beer!
