                               Psi4 1.9 release

  ==> Input File <==

--------------------------------------------------------------------------
MEMORY 60 GB

molecule dimer {
-1 1
Br     0.000000     0.000000     0.000000
--
0 1
O      3.254549    -0.104249    -0.528795
H      2.296582    -0.168320    -0.374734
H      3.387302     0.841606    -0.608219
O     -2.518083     2.051371    -0.581415
H     -1.703853     1.674382    -0.207010
H     -2.516563     1.636470    -1.456756
O     -4.082211    -0.088074     0.445581
H     -3.647518     0.737277     0.167576
H     -3.629719    -0.757063    -0.088344
O     -2.310157    -2.192940    -0.581192
H     -1.513275    -1.631592    -0.523839
H     -2.417527    -2.424018     0.352130
O     -2.198556    -1.336618     2.238290
H     -1.416373    -0.945329     1.821464
H     -2.916803    -0.802952     1.862374
O     -1.898927     0.119536    -2.674112
H     -1.161002     0.090721    -2.038380
H     -2.398752    -0.668230    -2.436475

units ang
no_reorient
no_com
symmetry c1
}

set {
basis        aug-cc-pVTZ
scf_type     df
}

energy("mp2", bsse_type="cp")
--------------------------------------------------------------------------

                               Psi4 1.9 release
    Molecular point group: c1
  Charge       = 0
  Multiplicity = 1
  Basis Set: AUG-CC-PVTZ
    Blend: AUG-CC-PVTZ
  Basis Set: (AUG-CC-PVTZ AUX)
    Blend: AUG-CC-PVTZ-JKFIT
  @DF-RHF Final Energy:  -456.35929836513446
    Total Energy =                       -456.3592983651344639
 Dipole X            :        181.9145347         -180.7798580            1.1346767
 Dipole Y            :         28.4666516          -28.0148875            0.4517642
 Dipole Z            :         31.7507911          -32.0938934           -0.3431023
 Magnitude           :                                                    1.2685824
  Basis Set: (AUG-CC-PVTZ AUX)
    Blend: AUG-CC-PVTZ-RI
	 Reference Energy          =    -456.3592983651344639 [Eh]
	 Singles Energy            =      -0.0000000000000000 [Eh]
	 Same-Spin Energy          =      -0.4214104065294369 [Eh]
	 Opposite-Spin Energy      =      -1.3104216023231126 [Eh]
	 Correlation Energy        =      -1.7318320088525494 [Eh]
	 Total Energy              =    -458.0911303739870277 [Eh]
	 SCS Total Energy          =    -458.0722744234320203 [Eh]
                               Psi4 1.9 release
    Molecular point group: c1
  Multiplicity = 1
  Basis Set: AUG-CC-PVTZ
    Blend: AUG-CC-PVTZ
  Basis Set: (AUG-CC-PVTZ AUX)
    Blend: AUG-CC-PVTZ-JKFIT
  @DF-RHF Final Energy: -2572.53373966547451
    Total Energy =                      -2572.5337396654745135
  Basis Set: (AUG-CC-PVTZ AUX)
	 Singles Energy            =      -0.0000000000000000 [Eh]
	 Same-Spin Energy          =      -0.0922954260127197 [Eh]
	 Opposite-Spin Energy      =      -0.2150588421363790 [Eh]
	 Correlation Energy        =      -0.3073542681490987 [Eh]
	 Total Energy              =   -2572.8410939336235970 [Eh]
	 SCS Total Energy          =   -2572.8225754180425611 [Eh]
                               Psi4 1.9 release
    Molecular point group: c1

    Geometry (in Bohr), charge = -1, multiplicity = 1:

       Center              X                  Y                   Z               Mass
    ------------   -----------------  -----------------  -----------------  -----------------
         BR           0.000000000000     0.000000000000     0.000000000000    78.918337600000
         O            6.150206271883    -0.197002058853    -0.999277726511    15.994914619570
         H            4.339911004656    -0.318078701437    -0.708144629897     1.007825032230
         H            6.401073084216     1.590404845542    -1.149367334300     1.007825032230
         O           -4.758487231171     3.876529371707    -1.098715115233    15.994914619570
         H           -3.219815528040     3.164123409396    -0.391192205231     1.007825032230
         H           -4.755614847461     3.092480112528    -2.752869871617     1.007825032230
         O           -7.714260776331    -0.166435738774     0.842026056708    15.994914619570
         H           -6.892810057678     1.393251608599     0.316672745200     1.007825032230
         H           -6.859174822371    -1.430641729717    -0.166945964827     1.007825032230
         O           -4.365564036809    -4.144056009561    -1.098293706307    15.994914619570
         H           -2.859675302502    -3.083262028488    -0.989912243834     1.007825032230
         H           -4.568463930900    -4.580730143180     0.665429260557     1.007825032230
         O           -4.154668711482    -2.525841954357     4.229755089351    15.994914619570
         H           -2.676557061493    -1.786412908453     3.442068107381     1.007825032230
         H           -5.511958831914    -1.517359371889     3.519376803173     1.007825032230
         O           -3.588451962237     0.225890302133    -5.053339308800    15.994914619570
         H           -2.193975811109     0.171437843828    -3.851979939611     1.007825032230
         H           -4.532984322894    -1.262771688815    -4.604270461525     1.007825032230

  Charge       = -1
  Multiplicity = 1
  Basis Set: AUG-CC-PVTZ
    Blend: AUG-CC-PVTZ
  Basis Set: (AUG-CC-PVTZ AUX)
    Blend: AUG-CC-PVTZ-JKFIT

    Orbital Energies [Eh]
    ---------------------

    Doubly Occupied:

       1A   -489.823625     2A    -64.964441     3A    -58.318915
       4A    -58.318903     5A    -58.318877     6A    -20.443955
       7A    -20.440311     8A    -20.433253     9A    -20.430503
      10A    -20.425504    11A    -20.422260    12A     -9.637046
      13A     -7.244671    14A     -7.244549    15A     -7.244514
      16A     -2.986178    17A     -2.986154    18A     -2.986107
      19A     -2.986032    20A     -2.986021    21A     -1.238598
      22A     -1.230877    23A     -1.223981    24A     -1.216083
      25A     -1.212336    26A     -1.204918    27A     -0.809834
      28A     -0.593795    29A     -0.588811    30A     -0.578874
      31A     -0.577812    32A     -0.574257    33A     -0.566626
      34A     -0.484851    35A     -0.476419    36A     -0.471884
      37A     -0.466216    38A     -0.458728    39A     -0.456671
      40A     -0.390131    41A     -0.386846    42A     -0.376047
      43A     -0.376021    44A     -0.371405    45A     -0.366180
      46A     -0.253944    47A     -0.252031    48A     -0.251312

  @DF-RHF Final Energy: -3028.96906533672791

   => Energetics <=

    Nuclear Repulsion Energy =            595.9363292277729443
    One-Electron Energy =               -5417.6161653672406828
    Two-Electron Energy =                1792.7107708027394892
    Total Energy =                      -3028.9690653367279083
 Dipole X            :        182.7171511         -180.7798580            1.9372931
 Dipole Y            :         28.6303563          -28.0148875            0.6154689
 Dipole Z            :         32.0706970          -32.0938934           -0.0231964
 Magnitude           :                                                    2.0328415
  Basis Set: (AUG-CC-PVTZ AUX)
    Blend: AUG-CC-PVTZ-RI
	 Reference Energy          =   -3028.9690653367279083 [Eh]
	 Singles Energy            =      -0.0000000000000000 [Eh]
	 Same-Spin Energy          =      -0.5254285534032783 [Eh]
	 Opposite-Spin Energy      =      -1.5334872466495573 [Eh]
	 Correlation Energy        =      -2.0589158000528354 [Eh]
	 Total Energy              =   -3031.0279811367809089 [Eh]

	 ================> DF-SCS-MP2 Energies <==================
	-----------------------------------------------------------
	 SCS Same-Spin Scale       =       0.3333333333333333 [-]
	 SCS Opposite-Spin Scale   =       1.2000000000000000 [-]
	 SCS Same-Spin Energy      =      -0.1751428511344261 [Eh]
	 SCS Opposite-Spin Energy  =      -1.8401846959794685 [Eh]
	 SCS Correlation Energy    =      -2.0153275471138947 [Eh]
	 SCS Total Energy          =   -3030.9843928838417924 [Eh]
	-----------------------------------------------------------

*** Psi4 exiting successfully. Buy a developer a beer!
