                               Psi4 1.9 release

  ==> Input File <==

--------------------------------------------------------------------------
MEMORY 60 GB

molecule dimer {
0 1
O      0.000000     0.000000     0.000000
H     -0.367975     0.889835     0.000000
H     -0.763593    -0.586632     0.000000
--
1 1
Li     1.828878     0.000000     0.000000

units ang
no_reorient
no_com
symmetry c1
}

set {
basis        aug-cc-pVTZ
scf_type     df
}

energy("mp2", bsse_type="cp")
--------------------------------------------------------------------------

                               Psi4 1.9 release
    Molecular point group: c1
  Charge       = 1
  Multiplicity = 1
  Basis Set: AUG-CC-PVTZ
    Blend: AUG-CC-PVTZ
  Basis Set: (AUG-CC-PVTZ AUX)
    Blend: AUG-CC-PVTZ-JKFIT + DEF2-UNIVERSAL-JKFIT
  @DF-RHF Final Energy:    -7.23638360396625
    Total Energy =                         -7.2363836039662530
 Dipole X            :         -6.9121721           10.3682356            3.4560636
 Dipole Y            :         -0.0000116            0.0000000           -0.0000116
 Dipole Z            :         -0.0000000            0.0000000           -0.0000000
 Magnitude           :                                                    3.4560636
  Basis Set: (AUG-CC-PVTZ AUX)
    Blend: AUG-CC-PVTZ-RI + DEF2-QZVPP-RI
	 Reference Energy          =      -7.2363836039662530 [Eh]
	 Singles Energy            =      -0.0000000000000000 [Eh]
	 Same-Spin Energy          =       0.0000000000000000 [Eh]
	 Opposite-Spin Energy      =      -0.0133875237689839 [Eh]
	 Correlation Energy        =      -0.0133875237689839 [Eh]
	 Total Energy              =      -7.2497711277352366 [Eh]
	 SCS Total Energy          =      -7.2524486324890338 [Eh]
                               Psi4 1.9 release
    Molecular point group: c1
  Multiplicity = 1
  Basis Set: AUG-CC-PVTZ
    Blend: AUG-CC-PVTZ
  Basis Set: (AUG-CC-PVTZ AUX)
    Blend: AUG-CC-PVTZ-JKFIT + DEF2-UNIVERSAL-JKFIT
  @DF-RHF Final Energy:   -76.06025788844931
    Total Energy =                        -76.0602578884492999
  Basis Set: (AUG-CC-PVTZ AUX)
	 Singles Energy            =      -0.0000000000000000 [Eh]
	 Same-Spin Energy          =      -0.0684724627624338 [Eh]
	 Opposite-Spin Energy      =      -0.2158391261179491 [Eh]
	 Correlation Energy        =      -0.2843115888803829 [Eh]
	 Total Energy              =     -76.3445694773296992 [Eh]
	 SCS Total Energy          =     -76.3420889940449996 [Eh]
                               Psi4 1.9 release
    Molecular point group: c1

    Geometry (in Bohr), charge = 1, multiplicity = 1:

       Center              X                  Y                   Z               Mass
    ------------   -----------------  -----------------  -----------------  -----------------
         O            0.000000000000     0.000000000000     0.000000000000    15.994914619570
         H           -0.695371971015     1.681544446847     0.000000000000     1.007825032230
         H           -1.442981641317    -1.108573816430     0.000000000000     1.007825032230
         LI           3.456078536875     0.000000000000     0.000000000000     7.016003436600

  Charge       = 1
  Multiplicity = 1
  Basis Set: AUG-CC-PVTZ
    Blend: AUG-CC-PVTZ
  Basis Set: (AUG-CC-PVTZ AUX)
    Blend: AUG-CC-PVTZ-JKFIT + DEF2-UNIVERSAL-JKFIT

    Orbital Energies [Eh]
    ---------------------

    Doubly Occupied:

       1A    -20.813888     2A     -2.704057     3A     -1.603051
       4A     -0.965489     5A     -0.866352     6A     -0.764728

  @DF-RHF Final Energy:   -83.35126885861770

   => Energetics <=

    Nuclear Repulsion Energy =             17.3504156076923195
    One-Electron Energy =                -145.9682374059870824
    Two-Electron Energy =                  45.2665529396770623
    Total Energy =                        -83.3512688586176864
 Dipole X            :         -5.9924226            8.2298820            2.2374594
 Dipole Y            :         -0.3621929            0.5729706            0.2107778
 Dipole Z            :         -0.0000000            0.0000000           -0.0000000
 Magnitude           :                                                    2.2473656
  Basis Set: (AUG-CC-PVTZ AUX)
    Blend: AUG-CC-PVTZ-RI + DEF2-QZVPP-RI
	 Reference Energy          =     -83.3512688586177006 [Eh]
	 Singles Energy            =      -0.0000000000000000 [Eh]
	 Same-Spin Energy          =      -0.0678380704575311 [Eh]
	 Opposite-Spin Energy      =      -0.2266219721683919 [Eh]
	 Correlation Energy        =      -0.2944600426259231 [Eh]
	 Total Energy              =     -83.6457289012436291 [Eh]

	 ================> DF-SCS-MP2 Energies <==================
	-----------------------------------------------------------
	 SCS Same-Spin Scale       =       0.3333333333333333 [-]
	 SCS Opposite-Spin Scale   =       1.2000000000000000 [-]
	 SCS Same-Spin Energy      =      -0.0226126901525104 [Eh]
	 SCS Opposite-Spin Energy  =      -0.2719463666020703 [Eh]
	 SCS Correlation Energy    =      -0.2945590567545807 [Eh]
	 SCS Total Energy          =     -83.6458279153722799 [Eh]
	-----------------------------------------------------------

*** Psi4 exiting successfully. Buy a developer a beer!
