                               Psi4 1.9 release

  ==> Input File <==

--------------------------------------------------------------------------
MEMORY 60 GB

molecule dimer {
0 1
O      0.000000     0.000000     0.000000
H      0.369011     0.889406     0.000000
H     -0.954754     0.125130     0.000000
--
1 1
Li     1.828878     0.000000     0.000000

units ang
no_reorient
no_com
symmetry c1
}

set {
basis        aug-cc-pVTZ
scf_type     df
}

energy("mp2", bsse_type="cp")
--------------------------------------------------------------------------

                               Psi4 1.9 release
    Molecular point group: c1
  Charge       = 1
  Multiplicity = 1
  Basis Set: AUG-CC-PVTZ
    Blend: AUG-CC-PVTZ
  Basis Set: (AUG-CC-PVTZ AUX)
    Blend: AUG-CC-PVTZ-JKFIT + DEF2-UNIVERSAL-JKFIT
  @DF-RHF Final Energy:    -7.23638368014564
    Total Energy =                         -7.2363836801456349
 Dipole X            :         -6.9121714           10.3682356            3.4560643
 Dipole Y            :         -0.0000098            0.0000000           -0.0000098
 Dipole Z            :          0.0000000            0.0000000            0.0000000
 Magnitude           :                                                    3.4560643
  Basis Set: (AUG-CC-PVTZ AUX)
    Blend: AUG-CC-PVTZ-RI + DEF2-QZVPP-RI
	 Reference Energy          =      -7.2363836801456358 [Eh]
	 Singles Energy            =      -0.0000000000000000 [Eh]
	 Same-Spin Energy          =      -0.0000000000000000 [Eh]
	 Opposite-Spin Energy      =      -0.0137393206526846 [Eh]
	 Correlation Energy        =      -0.0137393206526846 [Eh]
	 Total Energy              =      -7.2501230007983208 [Eh]
	 SCS Total Energy          =      -7.2528708649288571 [Eh]
                               Psi4 1.9 release
    Molecular point group: c1
  Multiplicity = 1
  Basis Set: AUG-CC-PVTZ
    Blend: AUG-CC-PVTZ
  Basis Set: (AUG-CC-PVTZ AUX)
    Blend: AUG-CC-PVTZ-JKFIT + DEF2-UNIVERSAL-JKFIT
  @DF-RHF Final Energy:   -76.06025614315681
    Total Energy =                        -76.0602561431568063
  Basis Set: (AUG-CC-PVTZ AUX)
	 Singles Energy            =      -0.0000000000000000 [Eh]
	 Same-Spin Energy          =      -0.0684724712118188 [Eh]
	 Opposite-Spin Energy      =      -0.2158475574679831 [Eh]
	 Correlation Energy        =      -0.2843200286798018 [Eh]
	 Total Energy              =     -76.3445761718366072 [Eh]
	 SCS Total Energy          =     -76.3420973691889913 [Eh]
                               Psi4 1.9 release
    Molecular point group: c1

    Geometry (in Bohr), charge = 1, multiplicity = 1:

       Center              X                  Y                   Z               Mass
    ------------   -----------------  -----------------  -----------------  -----------------
         O            0.000000000000     0.000000000000     0.000000000000    15.994914619570
         H            0.697329727281     1.680733754339     0.000000000000     1.007825032230
         H           -1.804223577185     0.236461430079     0.000000000000     1.007825032230
         LI           3.456078536875     0.000000000000     0.000000000000     7.016003436600

  Charge       = 1
  Multiplicity = 1
  Basis Set: AUG-CC-PVTZ
    Blend: AUG-CC-PVTZ
  Basis Set: (AUG-CC-PVTZ AUX)
    Blend: AUG-CC-PVTZ-JKFIT + DEF2-UNIVERSAL-JKFIT

    Orbital Energies [Eh]
    ---------------------

    Doubly Occupied:

       1A    -20.826937     2A     -2.736858     3A     -1.617382
       4A     -0.989510     5A     -0.857378     6A     -0.773984

  @DF-RHF Final Energy:   -83.31973349448474

   => Energetics <=

    Nuclear Repulsion Energy =             17.5817769668464869
    One-Electron Energy =                -146.1989238933046522
    Two-Electron Energy =                  45.2974134319734247
    Total Energy =                        -83.3197334944847370
 Dipole X            :         -6.6930297            9.2613418            2.5683120
 Dipole Y            :         -1.2257344            1.9171952            0.6914607
 Dipole Z            :         -0.0000000            0.0000000           -0.0000000
 Magnitude           :                                                    2.6597640
  Basis Set: (AUG-CC-PVTZ AUX)
    Blend: AUG-CC-PVTZ-RI + DEF2-QZVPP-RI
	 Reference Energy          =     -83.3197334944847370 [Eh]
	 Singles Energy            =      -0.0000000000000000 [Eh]
	 Same-Spin Energy          =      -0.0682051360338056 [Eh]
	 Opposite-Spin Energy      =      -0.2280653518566264 [Eh]
	 Correlation Energy        =      -0.2962704878904319 [Eh]
	 Total Energy              =     -83.6160039823751760 [Eh]

	 ================> DF-SCS-MP2 Energies <==================
	-----------------------------------------------------------
	 SCS Same-Spin Scale       =       0.3333333333333333 [-]
	 SCS Opposite-Spin Scale   =       1.2000000000000000 [-]
	 SCS Same-Spin Energy      =      -0.0227350453446019 [Eh]
	 SCS Opposite-Spin Energy  =      -0.2736784222279516 [Eh]
	 SCS Correlation Energy    =      -0.2964134675725535 [Eh]
	 SCS Total Energy          =     -83.6161469620572859 [Eh]
	-----------------------------------------------------------

*** Psi4 exiting successfully. Buy a developer a beer!
