                               Psi4 1.9 release

  ==> Input File <==

--------------------------------------------------------------------------
MEMORY 60 GB

molecule dimer {
0 1
O      0.000000     0.000000     0.000000
H      0.126242     0.954608     0.000000
H     -0.954608    -0.126242     0.000000
--
1 1
Li     1.828878     0.000000     0.000000

units ang
no_reorient
no_com
symmetry c1
}

set {
basis        aug-cc-pVTZ
scf_type     df
}

energy("mp2", bsse_type="cp")
--------------------------------------------------------------------------

                               Psi4 1.9 release
    Molecular point group: c1
  Charge       = 1
  Multiplicity = 1
  Basis Set: AUG-CC-PVTZ
    Blend: AUG-CC-PVTZ
  Basis Set: (AUG-CC-PVTZ AUX)
    Blend: AUG-CC-PVTZ-JKFIT + DEF2-UNIVERSAL-JKFIT
  @DF-RHF Final Energy:    -7.23638364171162
    Total Energy =                         -7.2363836417116190
 Dipole X            :         -6.9121800           10.3682356            3.4560556
 Dipole Y            :          0.0000067            0.0000000            0.0000067
 Dipole Z            :          0.0000000            0.0000000            0.0000000
 Magnitude           :                                                    3.4560556
  Basis Set: (AUG-CC-PVTZ AUX)
    Blend: AUG-CC-PVTZ-RI + DEF2-QZVPP-RI
	 Reference Energy          =      -7.2363836417116190 [Eh]
	 Singles Energy            =      -0.0000000000000000 [Eh]
	 Same-Spin Energy          =       0.0000000000000000 [Eh]
	 Opposite-Spin Energy      =      -0.0135024778330437 [Eh]
	 Correlation Energy        =      -0.0135024778330437 [Eh]
	 Total Energy              =      -7.2498861195446622 [Eh]
	 SCS Total Energy          =      -7.2525866151112712 [Eh]
                               Psi4 1.9 release
    Molecular point group: c1
  Multiplicity = 1
  Basis Set: AUG-CC-PVTZ
    Blend: AUG-CC-PVTZ
  Basis Set: (AUG-CC-PVTZ AUX)
    Blend: AUG-CC-PVTZ-JKFIT + DEF2-UNIVERSAL-JKFIT
  @DF-RHF Final Energy:   -76.06025472432962
    Total Energy =                        -76.0602547243296243
  Basis Set: (AUG-CC-PVTZ AUX)
	 Singles Energy            =      -0.0000000000000000 [Eh]
	 Same-Spin Energy          =      -0.0684715733147560 [Eh]
	 Opposite-Spin Energy      =      -0.2158330915476798 [Eh]
	 Correlation Energy        =      -0.2843046648624358 [Eh]
	 Total Energy              =     -76.3445593891920566 [Eh]
	 SCS Total Energy          =     -76.3420782919584298 [Eh]
                               Psi4 1.9 release
    Molecular point group: c1

    Geometry (in Bohr), charge = 1, multiplicity = 1:

       Center              X                  Y                   Z               Mass
    ------------   -----------------  -----------------  -----------------  -----------------
         O            0.000000000000     0.000000000000     0.000000000000    15.994914619570
         H            0.238562805530     1.803947677171     0.000000000000     1.007825032230
         H           -1.803947677171    -0.238562805530     0.000000000000     1.007825032230
         LI           3.456078536875     0.000000000000     0.000000000000     7.016003436600

  Charge       = 1
  Multiplicity = 1
  Basis Set: AUG-CC-PVTZ
    Blend: AUG-CC-PVTZ
  Basis Set: (AUG-CC-PVTZ AUX)
    Blend: AUG-CC-PVTZ-JKFIT + DEF2-UNIVERSAL-JKFIT

    Orbital Energies [Eh]
    ---------------------

    Doubly Occupied:

       1A    -20.820087     2A     -2.721932     3A     -1.610417
       4A     -0.979053     5A     -0.859521     6A     -0.769237

  @DF-RHF Final Energy:   -83.33513393204791

   => Energetics <=

    Nuclear Repulsion Energy =             17.4664081685786954
    One-Electron Energy =                -146.0825876266303851
    Two-Electron Energy =                  45.2810455260037941
    Total Energy =                        -83.3351339320479099
 Dipole X            :         -6.3774142            8.8028507            2.4254365
 Dipole Y            :         -0.9945178            1.5653849            0.5708671
 Dipole Z            :         -0.0000000            0.0000000           -0.0000000
 Magnitude           :                                                    2.4917126
  Basis Set: (AUG-CC-PVTZ AUX)
    Blend: AUG-CC-PVTZ-RI + DEF2-QZVPP-RI
	 Reference Energy          =     -83.3351339320479099 [Eh]
	 Singles Energy            =      -0.0000000000000000 [Eh]
	 Same-Spin Energy          =      -0.0680760615783246 [Eh]
	 Opposite-Spin Energy      =      -0.2273004962995460 [Eh]
	 Correlation Energy        =      -0.2953765578778706 [Eh]
	 Total Energy              =     -83.6305104899257827 [Eh]

	 ================> DF-SCS-MP2 Energies <==================
	-----------------------------------------------------------
	 SCS Same-Spin Scale       =       0.3333333333333333 [-]
	 SCS Opposite-Spin Scale   =       1.2000000000000000 [-]
	 SCS Same-Spin Energy      =      -0.0226920205261082 [Eh]
	 SCS Opposite-Spin Energy  =      -0.2727605955594552 [Eh]
	 SCS Correlation Energy    =      -0.2954526160855634 [Eh]
	 SCS Total Energy          =     -83.6305865481334791 [Eh]
	-----------------------------------------------------------

*** Psi4 exiting successfully. Buy a developer a beer!
