                               Psi4 1.9 release

  ==> Input File <==

--------------------------------------------------------------------------
MEMORY 60 GB

molecule dimer {
0 1
O      0.000000     0.000000     0.000000
H     -0.371188     0.886847     0.000000
H     -0.764882    -0.582438     0.000000
--
1 1
Na     2.158940     0.000000     0.000000

units ang
no_reorient
no_com
symmetry c1
}

set {
basis        aug-cc-pVTZ
scf_type     df
}

energy("mp2", bsse_type="cp")
--------------------------------------------------------------------------

                               Psi4 1.9 release
    Molecular point group: c1
  Charge       = 1
  Multiplicity = 1
  Basis Set: AUG-CC-PVTZ
    Blend: AUG-CC-PVTZ
  Basis Set: (AUG-CC-PVTZ AUX)
    Blend: AUG-CC-PVTZ-JKFIT + DEF2-UNIVERSAL-JKFIT
  @DF-RHF Final Energy:  -161.67604451610279
    Total Energy =                       -161.6760445161028201
 Dipole X            :        -40.7986117           44.8778585            4.0792468
 Dipole Y            :          0.0000081            0.0000000            0.0000081
 Dipole Z            :         -0.0000000            0.0000000           -0.0000000
 Magnitude           :                                                    4.0792468
  Basis Set: (AUG-CC-PVTZ AUX)
    Blend: AUG-CC-PVTZ-RI + DEF2-QZVPP-RI
	 Reference Energy          =    -161.6760445161027917 [Eh]
	 Singles Energy            =      -0.0000000000000000 [Eh]
	 Same-Spin Energy          =      -0.0029879580317605 [Eh]
	 Opposite-Spin Energy      =      -0.0108032445336551 [Eh]
	 Correlation Energy        =      -0.0137912025654155 [Eh]
	 Total Energy              =    -161.6898357186682063 [Eh]
	 SCS Total Energy          =    -161.6900043955537569 [Eh]
                               Psi4 1.9 release
    Molecular point group: c1
  Multiplicity = 1
  Basis Set: AUG-CC-PVTZ
    Blend: AUG-CC-PVTZ
  Basis Set: (AUG-CC-PVTZ AUX)
    Blend: AUG-CC-PVTZ-JKFIT + DEF2-UNIVERSAL-JKFIT
  @DF-RHF Final Energy:   -76.06036663448860
    Total Energy =                        -76.0603666344886022
  Basis Set: (AUG-CC-PVTZ AUX)
	 Singles Energy            =      -0.0000000000000000 [Eh]
	 Same-Spin Energy          =      -0.0684461570194607 [Eh]
	 Opposite-Spin Energy      =      -0.2157514915216626 [Eh]
	 Correlation Energy        =      -0.2841976485411233 [Eh]
	 Total Energy              =     -76.3445642830297260 [Eh]
	 SCS Total Energy          =     -76.3420838099877557 [Eh]
                               Psi4 1.9 release
    Molecular point group: c1

    Geometry (in Bohr), charge = 1, multiplicity = 1:

       Center              X                  Y                   Z               Mass
    ------------   -----------------  -----------------  -----------------  -----------------
         O            0.000000000000     0.000000000000     0.000000000000    15.994914619570
         H           -0.701443661056     1.675897945184     0.000000000000     1.007825032230
         H           -1.445417498292    -1.100648305059     0.000000000000     1.007825032230
         NA           4.079805321296     0.000000000000     0.000000000000    22.989769282000

  Charge       = 1
  Multiplicity = 1
  Basis Set: AUG-CC-PVTZ
    Blend: AUG-CC-PVTZ
  Basis Set: (AUG-CC-PVTZ AUX)
    Blend: AUG-CC-PVTZ-JKFIT + DEF2-UNIVERSAL-JKFIT

    Orbital Energies [Eh]
    ---------------------

    Doubly Occupied:

       1A    -40.696975     2A    -20.779631     3A     -3.014801
       4A     -1.739191     5A     -1.738370     6A     -1.738089
       7A     -1.567927     8A     -0.931442     9A     -0.822368
      10A     -0.730011

  @DF-RHF Final Energy:  -237.77288765876352

   => Energetics <=

    Nuclear Repulsion Energy =             34.8480263190380768
    One-Electron Energy =                -397.7242144347693511
    Two-Electron Energy =                 125.1033004569677445
    Total Energy =                       -237.7728876587635227
 Dipole X            :        -39.7582189           42.7309974            2.9727785
 Dipole Y            :         -0.3673501            0.5752496            0.2078995
 Dipole Z            :         -0.0000000            0.0000000           -0.0000000
 Magnitude           :                                                    2.9800393
  Basis Set: (AUG-CC-PVTZ AUX)
    Blend: AUG-CC-PVTZ-RI + DEF2-QZVPP-RI
	 Reference Energy          =    -237.7728876587635227 [Eh]
	 Singles Energy            =      -0.0000000000000000 [Eh]
	 Same-Spin Energy          =      -0.0709516416127035 [Eh]
	 Opposite-Spin Energy      =      -0.2244765148367376 [Eh]
	 Correlation Energy        =      -0.2954281564494411 [Eh]
	 Total Energy              =    -238.0683158152129693 [Eh]

	 ================> DF-SCS-MP2 Energies <==================
	-----------------------------------------------------------
	 SCS Same-Spin Scale       =       0.3333333333333333 [-]
	 SCS Opposite-Spin Scale   =       1.2000000000000000 [-]
	 SCS Same-Spin Energy      =      -0.0236505472042345 [Eh]
	 SCS Opposite-Spin Energy  =      -0.2693718178040851 [Eh]
	 SCS Correlation Energy    =      -0.2930223650083196 [Eh]
	 SCS Total Energy          =    -238.0659100237718349 [Eh]
	-----------------------------------------------------------

*** Psi4 exiting successfully. Buy a developer a beer!
