                               Psi4 1.9 release

  ==> Input File <==

--------------------------------------------------------------------------
MEMORY 60 GB

molecule dimer {
0 1
O      0.000000     0.000000     0.000000
H     -0.952699    -0.129007     0.000000
H      0.364626    -0.889565     0.000000
--
1 1
Na     2.158940     0.000000     0.000000

units ang
no_reorient
no_com
symmetry c1
}

set {
basis        aug-cc-pVTZ
scf_type     df
}

energy("mp2", bsse_type="cp")
--------------------------------------------------------------------------

                               Psi4 1.9 release
    Molecular point group: c1
  Charge       = 1
  Multiplicity = 1
  Basis Set: AUG-CC-PVTZ
    Blend: AUG-CC-PVTZ
  Basis Set: (AUG-CC-PVTZ AUX)
    Blend: AUG-CC-PVTZ-JKFIT + DEF2-UNIVERSAL-JKFIT
  @DF-RHF Final Energy:  -161.67604751804035
    Total Energy =                       -161.6760475180403489
 Dipole X            :        -40.7986618           44.8778585            4.0791967
 Dipole Y            :         -0.0001000            0.0000000           -0.0001000
 Dipole Z            :          0.0000000            0.0000000            0.0000000
 Magnitude           :                                                    4.0791967
  Basis Set: (AUG-CC-PVTZ AUX)
    Blend: AUG-CC-PVTZ-RI + DEF2-QZVPP-RI
	 Reference Energy          =    -161.6760475180403489 [Eh]
	 Singles Energy            =      -0.0000000000000000 [Eh]
	 Same-Spin Energy          =      -0.0034315555796070 [Eh]
	 Opposite-Spin Energy      =      -0.0120120301671264 [Eh]
	 Correlation Energy        =      -0.0154435857467334 [Eh]
	 Total Energy              =    -161.6914911037870866 [Eh]
	 SCS Total Energy          =    -161.6916058061007675 [Eh]
                               Psi4 1.9 release
    Molecular point group: c1
  Multiplicity = 1
  Basis Set: AUG-CC-PVTZ
    Blend: AUG-CC-PVTZ
  Basis Set: (AUG-CC-PVTZ AUX)
    Blend: AUG-CC-PVTZ-JKFIT + DEF2-UNIVERSAL-JKFIT
  @DF-RHF Final Energy:   -76.06035328641210
    Total Energy =                        -76.0603532864120950
  Basis Set: (AUG-CC-PVTZ AUX)
	 Singles Energy            =      -0.0000000000000000 [Eh]
	 Same-Spin Energy          =      -0.0684453405419776 [Eh]
	 Opposite-Spin Energy      =      -0.2157522368951576 [Eh]
	 Correlation Energy        =      -0.2841975774371353 [Eh]
	 Total Energy              =     -76.3445508638492356 [Eh]
	 SCS Total Energy          =     -76.3420710842002705 [Eh]
                               Psi4 1.9 release
    Molecular point group: c1

    Geometry (in Bohr), charge = 1, multiplicity = 1:

       Center              X                  Y                   Z               Mass
    ------------   -----------------  -----------------  -----------------  -----------------
         O            0.000000000000     0.000000000000     0.000000000000    15.994914619570
         H           -1.800340189998    -0.243787898267     0.000000000000     1.007825032230
         H            0.689043278221    -1.681034220793     0.000000000000     1.007825032230
         NA           4.079805321296     0.000000000000     0.000000000000    22.989769282000

  Charge       = 1
  Multiplicity = 1
  Basis Set: AUG-CC-PVTZ
    Blend: AUG-CC-PVTZ
  Basis Set: (AUG-CC-PVTZ AUX)
    Blend: AUG-CC-PVTZ-JKFIT + DEF2-UNIVERSAL-JKFIT

    Orbital Energies [Eh]
    ---------------------

    Doubly Occupied:

       1A    -40.722672     2A    -20.789855     3A     -3.039860
       4A     -1.766278     5A     -1.762645     6A     -1.762604
       7A     -1.578095     8A     -0.947595     9A     -0.818184
      10A     -0.737087

  @DF-RHF Final Energy:  -237.74862818254149

   => Energetics <=

    Nuclear Repulsion Energy =             35.4999952740773921
    One-Electron Energy =                -398.6475002090834323
    Two-Electron Energy =                 125.3988767524645453
    Total Energy =                       -237.7486281825414949
 Dipole X            :        -40.4470813           43.7665616            3.3194803
 Dipole Y            :          1.2437503           -1.9248221           -0.6810718
 Dipole Z            :          0.0000000            0.0000000            0.0000000
 Magnitude           :                                                    3.3886293
  Basis Set: (AUG-CC-PVTZ AUX)
    Blend: AUG-CC-PVTZ-RI + DEF2-QZVPP-RI
	 Reference Energy          =    -237.7486281825414949 [Eh]
	 Singles Energy            =      -0.0000000000000000 [Eh]
	 Same-Spin Energy          =      -0.0715831816761474 [Eh]
	 Opposite-Spin Energy      =      -0.2264778268521215 [Eh]
	 Correlation Energy        =      -0.2980610085282689 [Eh]
	 Total Energy              =    -238.0466891910697598 [Eh]

	 ================> DF-SCS-MP2 Energies <==================
	-----------------------------------------------------------
	 SCS Same-Spin Scale       =       0.3333333333333333 [-]
	 SCS Opposite-Spin Scale   =       1.2000000000000000 [-]
	 SCS Same-Spin Energy      =      -0.0238610605587158 [Eh]
	 SCS Opposite-Spin Energy  =      -0.2717733922225458 [Eh]
	 SCS Correlation Energy    =      -0.2956344527812616 [Eh]
	 SCS Total Energy          =    -238.0442626353227524 [Eh]
	-----------------------------------------------------------

*** Psi4 exiting successfully. Buy a developer a beer!
