                               Psi4 1.9 release

  ==> Input File <==

--------------------------------------------------------------------------
MEMORY 60 GB

molecule dimer {
0 1
O      0.000000     0.000000     0.000000
H     -0.953626     0.121965     0.000000
H      0.121965    -0.953626     0.000000
--
1 1
Na     2.158940     0.000000     0.000000

units ang
no_reorient
no_com
symmetry c1
}

set {
basis        aug-cc-pVTZ
scf_type     df
}

energy("mp2", bsse_type="cp")
--------------------------------------------------------------------------

                               Psi4 1.9 release
    Molecular point group: c1
  Charge       = 1
  Multiplicity = 1
  Basis Set: AUG-CC-PVTZ
    Blend: AUG-CC-PVTZ
  Basis Set: (AUG-CC-PVTZ AUX)
    Blend: AUG-CC-PVTZ-JKFIT + DEF2-UNIVERSAL-JKFIT
  @DF-RHF Final Energy:  -161.67604534036786
    Total Energy =                       -161.6760453403678639
 Dipole X            :        -40.7986819           44.8778585            4.0791766
 Dipole Y            :         -0.0000384            0.0000000           -0.0000384
 Dipole Z            :         -0.0000000            0.0000000           -0.0000000
 Magnitude           :                                                    4.0791766
  Basis Set: (AUG-CC-PVTZ AUX)
    Blend: AUG-CC-PVTZ-RI + DEF2-QZVPP-RI
	 Reference Energy          =    -161.6760453403678639 [Eh]
	 Singles Energy            =      -0.0000000000000000 [Eh]
	 Same-Spin Energy          =      -0.0030249698649346 [Eh]
	 Opposite-Spin Energy      =      -0.0108842171462717 [Eh]
	 Correlation Energy        =      -0.0139091870112064 [Eh]
	 Total Energy              =    -161.6899545273790579 [Eh]
	 SCS Total Energy          =    -161.6901147242317052 [Eh]
                               Psi4 1.9 release
    Molecular point group: c1
  Multiplicity = 1
  Basis Set: AUG-CC-PVTZ
    Blend: AUG-CC-PVTZ
  Basis Set: (AUG-CC-PVTZ AUX)
    Blend: AUG-CC-PVTZ-JKFIT + DEF2-UNIVERSAL-JKFIT
  @DF-RHF Final Energy:   -76.06035113320051
    Total Energy =                        -76.0603511332005127
  Basis Set: (AUG-CC-PVTZ AUX)
	 Singles Energy            =      -0.0000000000000000 [Eh]
	 Same-Spin Energy          =      -0.0684459091296364 [Eh]
	 Opposite-Spin Energy      =      -0.2157445418637092 [Eh]
	 Correlation Energy        =      -0.2841904509933457 [Eh]
	 Total Energy              =     -76.3445415841938626 [Eh]
	 SCS Total Energy          =     -76.3420598864801718 [Eh]
                               Psi4 1.9 release
    Molecular point group: c1

    Geometry (in Bohr), charge = 1, multiplicity = 1:

       Center              X                  Y                   Z               Mass
    ------------   -----------------  -----------------  -----------------  -----------------
         O            0.000000000000     0.000000000000     0.000000000000    15.994914619570
         H           -1.802091966116     0.230480446891     0.000000000000     1.007825032230
         H            0.230480446891    -1.802091966116     0.000000000000     1.007825032230
         NA           4.079805321296     0.000000000000     0.000000000000    22.989769282000

  Charge       = 1
  Multiplicity = 1
  Basis Set: AUG-CC-PVTZ
    Blend: AUG-CC-PVTZ
  Basis Set: (AUG-CC-PVTZ AUX)
    Blend: AUG-CC-PVTZ-JKFIT + DEF2-UNIVERSAL-JKFIT

    Orbital Energies [Eh]
    ---------------------

    Doubly Occupied:

       1A    -40.711232     2A    -20.784800     3A     -3.028468
       4A     -1.753839     5A     -1.751591     6A     -1.751530
       7A     -1.573376     8A     -0.940601     9A     -0.819086
      10A     -0.733633

  @DF-RHF Final Energy:  -237.76055292364825

   => Energetics <=

    Nuclear Repulsion Energy =             35.1811567791593447
    One-Electron Energy =                -398.1871026246114411
    Two-Electron Energy =                 125.2453929218038695
    Total Energy =                       -237.7605529236482482
 Dipole X            :        -40.1382691           43.3062470            3.1679779
 Dipole Y            :          1.0100730           -1.5716115           -0.5615385
 Dipole Z            :          0.0000000            0.0000000            0.0000000
 Magnitude           :                                                    3.2173607
  Basis Set: (AUG-CC-PVTZ AUX)
    Blend: AUG-CC-PVTZ-RI + DEF2-QZVPP-RI
	 Reference Energy          =    -237.7605529236482482 [Eh]
	 Singles Energy            =      -0.0000000000000000 [Eh]
	 Same-Spin Energy          =      -0.0711070659902838 [Eh]
	 Opposite-Spin Energy      =      -0.2249609300974938 [Eh]
	 Correlation Energy        =      -0.2960679960877776 [Eh]
	 Total Energy              =    -238.0566209197360195 [Eh]

	 ================> DF-SCS-MP2 Energies <==================
	-----------------------------------------------------------
	 SCS Same-Spin Scale       =       0.3333333333333333 [-]
	 SCS Opposite-Spin Scale   =       1.2000000000000000 [-]
	 SCS Same-Spin Energy      =      -0.0237023553300946 [Eh]
	 SCS Opposite-Spin Energy  =      -0.2699531161169926 [Eh]
	 SCS Correlation Energy    =      -0.2936554714470871 [Eh]
	 SCS Total Energy          =    -238.0542083950953440 [Eh]
	-----------------------------------------------------------

*** Psi4 exiting successfully. Buy a developer a beer!
