                               Psi4 1.9 release

  ==> Input File <==

--------------------------------------------------------------------------
MEMORY 60 GB

molecule dimer {
0 1
O      0.000000     0.000000     0.000000
H     -0.889565     0.364626     0.000000
H     -0.129007    -0.952699     0.000000
--
1 1
Na     2.158940     0.000000     0.000000

units ang
no_reorient
no_com
symmetry c1
}

set {
basis        aug-cc-pVTZ
scf_type     df
}

energy("mp2", bsse_type="cp")
--------------------------------------------------------------------------

                               Psi4 1.9 release
    Molecular point group: c1
  Charge       = 1
  Multiplicity = 1
  Basis Set: AUG-CC-PVTZ
    Blend: AUG-CC-PVTZ
  Basis Set: (AUG-CC-PVTZ AUX)
    Blend: AUG-CC-PVTZ-JKFIT + DEF2-UNIVERSAL-JKFIT
  @DF-RHF Final Energy:  -161.67604483123552
    Total Energy =                       -161.6760448312354868
 Dipole X            :        -40.7986687           44.8778585            4.0791898
 Dipole Y            :         -0.0000304            0.0000000           -0.0000304
 Dipole Z            :          0.0000000            0.0000000            0.0000000
 Magnitude           :                                                    4.0791898
  Basis Set: (AUG-CC-PVTZ AUX)
    Blend: AUG-CC-PVTZ-RI + DEF2-QZVPP-RI
	 Reference Energy          =    -161.6760448312355152 [Eh]
	 Singles Energy            =      -0.0000000000000000 [Eh]
	 Same-Spin Energy          =      -0.0030151417825382 [Eh]
	 Opposite-Spin Energy      =      -0.0108860698968641 [Eh]
	 Correlation Energy        =      -0.0139012116794023 [Eh]
	 Total Energy              =    -161.6899460429149258 [Eh]
	 SCS Total Energy          =    -161.6901131623725973 [Eh]
                               Psi4 1.9 release
    Molecular point group: c1
  Multiplicity = 1
  Basis Set: AUG-CC-PVTZ
    Blend: AUG-CC-PVTZ
  Basis Set: (AUG-CC-PVTZ AUX)
    Blend: AUG-CC-PVTZ-JKFIT + DEF2-UNIVERSAL-JKFIT
  @DF-RHF Final Energy:   -76.06035802678774
    Total Energy =                        -76.0603580267877533
  Basis Set: (AUG-CC-PVTZ AUX)
	 Singles Energy            =      -0.0000000000000000 [Eh]
	 Same-Spin Energy          =      -0.0684459050853013 [Eh]
	 Opposite-Spin Energy      =      -0.2157491138782617 [Eh]
	 Correlation Energy        =      -0.2841950189635630 [Eh]
	 Total Energy              =     -76.3445530457512973 [Eh]
	 SCS Total Energy          =     -76.3420722651367498 [Eh]
                               Psi4 1.9 release
    Molecular point group: c1

    Geometry (in Bohr), charge = 1, multiplicity = 1:

       Center              X                  Y                   Z               Mass
    ------------   -----------------  -----------------  -----------------  -----------------
         O            0.000000000000     0.000000000000     0.000000000000    15.994914619570
         H           -1.681034220793     0.689043278221     0.000000000000     1.007825032230
         H           -0.243787898267    -1.800340189998     0.000000000000     1.007825032230
         NA           4.079805321296     0.000000000000     0.000000000000    22.989769282000

  Charge       = 1
  Multiplicity = 1
  Basis Set: AUG-CC-PVTZ
    Blend: AUG-CC-PVTZ
  Basis Set: (AUG-CC-PVTZ AUX)
    Blend: AUG-CC-PVTZ-JKFIT + DEF2-UNIVERSAL-JKFIT

    Orbital Energies [Eh]
    ---------------------

    Doubly Occupied:

       1A    -40.702455     2A    -20.781448     3A     -3.020013
       4A     -1.744798     5A     -1.743366     6A     -1.743230
       7A     -1.569947     8A     -0.935027     9A     -0.820786
      10A     -0.731297

  @DF-RHF Final Energy:  -237.76835512798374

   => Energetics <=

    Nuclear Repulsion Energy =             34.9690050530179803
    One-Electron Energy =                -397.8899855458191723
    Two-Electron Energy =                 125.1526253648174105
    Total Energy =                       -237.7683551279837388
 Dipole X            :        -39.9041403           42.9530364            3.0488961
 Dipole Y            :          0.7113060           -1.1112969           -0.3999909
 Dipole Z            :          0.0000000            0.0000000            0.0000000
 Magnitude           :                                                    3.0750220
  Basis Set: (AUG-CC-PVTZ AUX)
    Blend: AUG-CC-PVTZ-RI + DEF2-QZVPP-RI
	 Reference Energy          =    -237.7683551279837388 [Eh]
	 Singles Energy            =      -0.0000000000000000 [Eh]
	 Same-Spin Energy          =      -0.0710315687732969 [Eh]
	 Opposite-Spin Energy      =      -0.2247097263111518 [Eh]
	 Correlation Energy        =      -0.2957412950844486 [Eh]
	 Total Energy              =    -238.0640964230681789 [Eh]

	 ================> DF-SCS-MP2 Energies <==================
	-----------------------------------------------------------
	 SCS Same-Spin Scale       =       0.3333333333333333 [-]
	 SCS Opposite-Spin Scale   =       1.2000000000000000 [-]
	 SCS Same-Spin Energy      =      -0.0236771895910990 [Eh]
	 SCS Opposite-Spin Energy  =      -0.2696516715733821 [Eh]
	 SCS Correlation Energy    =      -0.2933288611644810 [Eh]
	 SCS Total Energy          =    -238.0616839891482073 [Eh]
	-----------------------------------------------------------

*** Psi4 exiting successfully. Buy a developer a beer!
