                               Psi4 1.9 release

  ==> Input File <==

--------------------------------------------------------------------------
MEMORY 60 GB

molecule dimer {
0 1
O      0.000000     0.000000     0.000000
H     -0.375905     0.884151     0.000000
H     -0.767618    -0.577745     0.000000
--
1 1
K      2.466222     0.000000     0.000000

units ang
no_reorient
no_com
symmetry c1
}

set {
basis        aug-cc-pVTZ
scf_type     df
}

energy("mp2", bsse_type="cp")
--------------------------------------------------------------------------

                               Psi4 1.9 release
    Molecular point group: c1
  Charge       = 1
  Multiplicity = 1
  Basis Set: AUG-CC-PVTZ
    Blend: AUG-CC-PVTZ
  Basis Set: (AUG-CC-PVTZ AUX)
    Blend: AUG-CC-PVTZ-JKFIT + DEF2-UNIVERSAL-JKFIT
  @DF-RHF Final Energy:  -599.01750888321294
    Total Energy =                       -599.0175088832129404
 Dipole X            :        -83.8891192           88.5491987            4.6600795
 Dipole Y            :          0.0000505            0.0000000            0.0000505
 Dipole Z            :          0.0000000            0.0000000            0.0000000
 Magnitude           :                                                    4.6600795
  Basis Set: (AUG-CC-PVTZ AUX)
    Blend: AUG-CC-PVTZ-RI + DEF2-QZVPP-RI
	 Reference Energy          =    -599.0175088832129404 [Eh]
	 Singles Energy            =      -0.0000000000000000 [Eh]
	 Same-Spin Energy          =      -0.0290620780534878 [Eh]
	 Opposite-Spin Energy      =      -0.0688821185220400 [Eh]
	 Correlation Energy        =      -0.0979441965755278 [Eh]
	 Total Energy              =    -599.1154530797884945 [Eh]
	 SCS Total Energy          =    -599.1098547847905138 [Eh]
                               Psi4 1.9 release
    Molecular point group: c1
  Multiplicity = 1
  Basis Set: AUG-CC-PVTZ
    Blend: AUG-CC-PVTZ
  Basis Set: (AUG-CC-PVTZ AUX)
    Blend: AUG-CC-PVTZ-JKFIT + DEF2-UNIVERSAL-JKFIT
  @DF-RHF Final Energy:   -76.06033557275413
    Total Energy =                        -76.0603355727541270
  Basis Set: (AUG-CC-PVTZ AUX)
	 Singles Energy            =      -0.0000000000000000 [Eh]
	 Same-Spin Energy          =      -0.0684289141882570 [Eh]
	 Opposite-Spin Energy      =      -0.2155353835092676 [Eh]
	 Correlation Energy        =      -0.2839642976975246 [Eh]
	 Total Energy              =     -76.3442998704516498 [Eh]
	 SCS Total Energy          =     -76.3417876710280012 [Eh]
                               Psi4 1.9 release
    Molecular point group: c1

    Geometry (in Bohr), charge = 1, multiplicity = 1:

       Center              X                  Y                   Z               Mass
    ------------   -----------------  -----------------  -----------------  -----------------
         O            0.000000000000     0.000000000000     0.000000000000    15.994914619570
         H           -0.710357499190     1.670803243550     0.000000000000     1.007825032230
         H           -1.450587788972    -1.091779820353     0.000000000000     1.007825032230
         K            4.660484144579     0.000000000000     0.000000000000    38.963706486400

  Charge       = 1
  Multiplicity = 1
  Basis Set: AUG-CC-PVTZ
    Blend: AUG-CC-PVTZ
  Basis Set: (AUG-CC-PVTZ AUX)
    Blend: AUG-CC-PVTZ-JKFIT + DEF2-UNIVERSAL-JKFIT

    Orbital Energies [Eh]
    ---------------------

    Doubly Occupied:

       1A   -133.703370     2A    -20.758605     3A    -14.660277
       4A    -11.690277     5A    -11.690237     6A    -11.690106
       7A     -1.919956     8A     -1.549397     9A     -1.129008
      10A     -1.127891    11A     -1.127873    12A     -0.909548
      13A     -0.793347    14A     -0.708685

  @DF-RHF Final Energy:  -675.10172858311023

   => Energetics <=

    Nuclear Repulsion Energy =             48.2156756175450241
    One-Electron Energy =               -1019.7176540917114380
    Two-Electron Energy =                 296.4002498910562053
    Total Energy =                       -675.1017285831102299
 Dipole X            :        -82.8702941           86.3882535            3.5179594
 Dipole Y            :         -0.3823523            0.5790234            0.1966711
 Dipole Z            :          0.0000000            0.0000000            0.0000000
 Magnitude           :                                                    3.5234525
  Basis Set: (AUG-CC-PVTZ AUX)
    Blend: AUG-CC-PVTZ-RI + DEF2-QZVPP-RI
	 Reference Energy          =    -675.1017285831102299 [Eh]
	 Singles Energy            =      -0.0000000000000000 [Eh]
	 Same-Spin Energy          =      -0.0985749131553938 [Eh]
	 Opposite-Spin Energy      =      -0.2842760619642071 [Eh]
	 Correlation Energy        =      -0.3828509751196009 [Eh]
	 Total Energy              =    -675.4845795582298251 [Eh]

	 ================> DF-SCS-MP2 Energies <==================
	-----------------------------------------------------------
	 SCS Same-Spin Scale       =       0.3333333333333333 [-]
	 SCS Opposite-Spin Scale   =       1.2000000000000000 [-]
	 SCS Same-Spin Energy      =      -0.0328583043851313 [Eh]
	 SCS Opposite-Spin Energy  =      -0.3411312743570485 [Eh]
	 SCS Correlation Energy    =      -0.3739895787421798 [Eh]
	 SCS Total Energy          =    -675.4757181618524555 [Eh]
	-----------------------------------------------------------

*** Psi4 exiting successfully. Buy a developer a beer!
