                               Psi4 1.9 release

  ==> Input File <==

--------------------------------------------------------------------------
MEMORY 60 GB

molecule dimer {
0 1
O      0.000000     0.000000     0.000000
H      0.116533     0.953649     0.000000
H     -0.953649    -0.116533     0.000000
--
1 1
K      2.466222     0.000000     0.000000

units ang
no_reorient
no_com
symmetry c1
}

set {
basis        aug-cc-pVTZ
scf_type     df
}

energy("mp2", bsse_type="cp")
--------------------------------------------------------------------------

                               Psi4 1.9 release
    Molecular point group: c1
  Charge       = 1
  Multiplicity = 1
  Basis Set: AUG-CC-PVTZ
    Blend: AUG-CC-PVTZ
  Basis Set: (AUG-CC-PVTZ AUX)
    Blend: AUG-CC-PVTZ-JKFIT + DEF2-UNIVERSAL-JKFIT
  @DF-RHF Final Energy:  -599.01750913074704
    Total Energy =                       -599.0175091307470439
 Dipole X            :        -83.8891027           88.5491987            4.6600961
 Dipole Y            :          0.0000545            0.0000000            0.0000545
 Dipole Z            :          0.0000000            0.0000000            0.0000000
 Magnitude           :                                                    4.6600961
  Basis Set: (AUG-CC-PVTZ AUX)
    Blend: AUG-CC-PVTZ-RI + DEF2-QZVPP-RI
	 Reference Energy          =    -599.0175091307470439 [Eh]
	 Singles Energy            =      -0.0000000000000000 [Eh]
	 Same-Spin Energy          =      -0.0293358178920151 [Eh]
	 Opposite-Spin Energy      =      -0.0696181655052957 [Eh]
	 Correlation Energy        =      -0.0989539833973108 [Eh]
	 Total Energy              =    -599.1164631141443806 [Eh]
	 SCS Total Energy          =    -599.1108295353174071 [Eh]
                               Psi4 1.9 release
    Molecular point group: c1
  Multiplicity = 1
  Basis Set: AUG-CC-PVTZ
    Blend: AUG-CC-PVTZ
  Basis Set: (AUG-CC-PVTZ AUX)
    Blend: AUG-CC-PVTZ-JKFIT + DEF2-UNIVERSAL-JKFIT
  @DF-RHF Final Energy:   -76.06033187002956
    Total Energy =                        -76.0603318700295574
  Basis Set: (AUG-CC-PVTZ AUX)
	 Singles Energy            =      -0.0000000000000000 [Eh]
	 Same-Spin Energy          =      -0.0684285721348420 [Eh]
	 Opposite-Spin Energy      =      -0.2155485858451395 [Eh]
	 Correlation Energy        =      -0.2839771579799815 [Eh]
	 Total Energy              =     -76.3443090280095333 [Eh]
	 SCS Total Energy          =     -76.3417996970886747 [Eh]
                               Psi4 1.9 release
    Molecular point group: c1

    Geometry (in Bohr), charge = 1, multiplicity = 1:

       Center              X                  Y                   Z               Mass
    ------------   -----------------  -----------------  -----------------  -----------------
         O            0.000000000000     0.000000000000     0.000000000000    15.994914619570
         H            0.220215454578     1.802135429817     0.000000000000     1.007825032230
         H           -1.802135429817    -0.220215454578     0.000000000000     1.007825032230
         K            4.660484144579     0.000000000000     0.000000000000    38.963706486400

  Charge       = 1
  Multiplicity = 1
  Basis Set: AUG-CC-PVTZ
    Blend: AUG-CC-PVTZ
  Basis Set: (AUG-CC-PVTZ AUX)
    Blend: AUG-CC-PVTZ-JKFIT + DEF2-UNIVERSAL-JKFIT

    Orbital Energies [Eh]
    ---------------------

    Doubly Occupied:

       1A   -133.714170     2A    -20.763008     3A    -14.671003
       4A    -11.701026     5A    -11.700955     6A    -11.700854
       7A     -1.930484     8A     -1.553846     9A     -1.140973
      10A     -1.137771    11A     -1.137352    12A     -0.913928
      13A     -0.792905    14A     -0.711381

  @DF-RHF Final Energy:  -675.09222635053959

   => Energetics <=

    Nuclear Repulsion Energy =             48.6802710345307261
    One-Electron Energy =               -1020.4056825727088835
    Two-Electron Energy =                 296.6331851876385031
    Total Energy =                       -675.0922263505397041
 Dipole X            :        -83.2323461           86.9672788            3.7349327
 Dipole Y            :         -1.0505622            1.5819200            0.5313578
 Dipole Z            :         -0.0000000            0.0000000           -0.0000000
 Magnitude           :                                                    3.7725407
  Basis Set: (AUG-CC-PVTZ AUX)
    Blend: AUG-CC-PVTZ-RI + DEF2-QZVPP-RI
	 Reference Energy          =    -675.0922263505395904 [Eh]
	 Singles Energy            =      -0.0000000000000000 [Eh]
	 Same-Spin Energy          =      -0.0989633709770167 [Eh]
	 Opposite-Spin Energy      =      -0.2853953338731628 [Eh]
	 Correlation Energy        =      -0.3843587048501795 [Eh]
	 Total Energy              =    -675.4765850553898190 [Eh]

	 ================> DF-SCS-MP2 Energies <==================
	-----------------------------------------------------------
	 SCS Same-Spin Scale       =       0.3333333333333333 [-]
	 SCS Opposite-Spin Scale   =       1.2000000000000000 [-]
	 SCS Same-Spin Energy      =      -0.0329877903256722 [Eh]
	 SCS Opposite-Spin Energy  =      -0.3424744006477954 [Eh]
	 SCS Correlation Energy    =      -0.3754621909734676 [Eh]
	 SCS Total Energy          =    -675.4676885415130982 [Eh]
	-----------------------------------------------------------

*** Psi4 exiting successfully. Buy a developer a beer!
