                               Psi4 1.9 release

  ==> Input File <==

--------------------------------------------------------------------------
MEMORY 60 GB

molecule dimer {
0 1
O      0.000000     0.000000     0.000000
H     -0.134261     0.951316     0.000000
H     -0.890994    -0.359385     0.000000
--
1 1
K      2.466222     0.000000     0.000000

units ang
no_reorient
no_com
symmetry c1
}

set {
basis        aug-cc-pVTZ
scf_type     df
}

energy("mp2", bsse_type="cp")
--------------------------------------------------------------------------

                               Psi4 1.9 release
    Molecular point group: c1
  Charge       = 1
  Multiplicity = 1
  Basis Set: AUG-CC-PVTZ
    Blend: AUG-CC-PVTZ
  Basis Set: (AUG-CC-PVTZ AUX)
    Blend: AUG-CC-PVTZ-JKFIT + DEF2-UNIVERSAL-JKFIT
  @DF-RHF Final Energy:  -599.01750891827442
    Total Energy =                       -599.0175089182744159
 Dipole X            :        -83.8890885           88.5491987            4.6601103
 Dipole Y            :          0.0000572            0.0000000            0.0000572
 Dipole Z            :          0.0000000            0.0000000            0.0000000
 Magnitude           :                                                    4.6601103
  Basis Set: (AUG-CC-PVTZ AUX)
    Blend: AUG-CC-PVTZ-RI + DEF2-QZVPP-RI
	 Reference Energy          =    -599.0175089182744159 [Eh]
	 Singles Energy            =      -0.0000000000000000 [Eh]
	 Same-Spin Energy          =      -0.0291229425206373 [Eh]
	 Opposite-Spin Energy      =      -0.0690648499887406 [Eh]
	 Correlation Energy        =      -0.0981877925093779 [Eh]
	 Total Energy              =    -599.1156967107838227 [Eh]
	 SCS Total Energy          =    -599.1100943857677521 [Eh]
                               Psi4 1.9 release
    Molecular point group: c1
  Multiplicity = 1
  Basis Set: AUG-CC-PVTZ
    Blend: AUG-CC-PVTZ
  Basis Set: (AUG-CC-PVTZ AUX)
    Blend: AUG-CC-PVTZ-JKFIT + DEF2-UNIVERSAL-JKFIT
  @DF-RHF Final Energy:   -76.06033464867883
    Total Energy =                        -76.0603346486788325
  Basis Set: (AUG-CC-PVTZ AUX)
	 Singles Energy            =      -0.0000000000000000 [Eh]
	 Same-Spin Energy          =      -0.0684281512634727 [Eh]
	 Opposite-Spin Energy      =      -0.2155378953494980 [Eh]
	 Correlation Energy        =      -0.2839660466129706 [Eh]
	 Total Energy              =     -76.3443006952918068 [Eh]
	 SCS Total Energy          =     -76.3417895068527201 [Eh]
                               Psi4 1.9 release
    Molecular point group: c1

    Geometry (in Bohr), charge = 1, multiplicity = 1:

       Center              X                  Y                   Z               Mass
    ------------   -----------------  -----------------  -----------------  -----------------
         O            0.000000000000     0.000000000000     0.000000000000    15.994914619570
         H           -0.253716519330     1.797726698766     0.000000000000     1.007825032230
         H           -1.683734639426    -0.679139223598     0.000000000000     1.007825032230
         K            4.660484144579     0.000000000000     0.000000000000    38.963706486400

  Charge       = 1
  Multiplicity = 1
  Basis Set: AUG-CC-PVTZ
    Blend: AUG-CC-PVTZ
  Basis Set: (AUG-CC-PVTZ AUX)
    Blend: AUG-CC-PVTZ-JKFIT + DEF2-UNIVERSAL-JKFIT

    Orbital Energies [Eh]
    ---------------------

    Doubly Occupied:

       1A   -133.707577     2A    -20.760223     3A    -14.664442
       4A    -11.694451     5A    -11.694402     6A    -11.694283
       7A     -1.923995     8A     -1.551056     9A     -1.133626
      10A     -1.131687    11A     -1.131412    12A     -0.911319
      13A     -0.793035    14A     -0.709670

  @DF-RHF Final Energy:  -675.09831040334882

   => Energetics <=

    Nuclear Repulsion Energy =             48.3859272216792533
    One-Electron Energy =               -1019.9661194776575712
    Two-Electron Energy =                 296.4818818526296127
    Total Energy =                       -675.0983104033487052
 Dipole X            :        -83.0091371           86.6117476            3.6026105
 Dipole Y            :         -0.7403112            1.1185875            0.3782762
 Dipole Z            :         -0.0000000            0.0000000           -0.0000000
 Magnitude           :                                                    3.6224157
  Basis Set: (AUG-CC-PVTZ AUX)
    Blend: AUG-CC-PVTZ-RI + DEF2-QZVPP-RI
	 Reference Energy          =    -675.0983104033488189 [Eh]
	 Singles Energy            =      -0.0000000000000000 [Eh]
	 Same-Spin Energy          =      -0.0986711385517809 [Eh]
	 Opposite-Spin Energy      =      -0.2845822017860761 [Eh]
	 Correlation Energy        =      -0.3832533403378570 [Eh]
	 Total Energy              =    -675.4815637436867064 [Eh]

	 ================> DF-SCS-MP2 Energies <==================
	-----------------------------------------------------------
	 SCS Same-Spin Scale       =       0.3333333333333333 [-]
	 SCS Opposite-Spin Scale   =       1.2000000000000000 [-]
	 SCS Same-Spin Energy      =      -0.0328903795172603 [Eh]
	 SCS Opposite-Spin Energy  =      -0.3414986421432913 [Eh]
	 SCS Correlation Energy    =      -0.3743890216605515 [Eh]
	 SCS Total Energy          =    -675.4726994250094094 [Eh]
	-----------------------------------------------------------

*** Psi4 exiting successfully. Buy a developer a beer!
