                               Psi4 1.9 release

  ==> Input File <==

--------------------------------------------------------------------------
MEMORY 60 GB

molecule dimer {
0 1
O      0.000000     0.000000     0.000000
H     -0.897287     0.334379     0.000000
H      0.561815     0.899651     0.000000
--
-1 1
F      2.426389     0.000000     0.000000

units ang
no_reorient
no_com
symmetry c1
}

set {
basis        aug-cc-pVTZ
scf_type     df
}

energy("mp2", bsse_type="cp")
--------------------------------------------------------------------------

                               Psi4 1.9 release
    Molecular point group: c1
  Charge       = -1
  Multiplicity = 1
  Basis Set: AUG-CC-PVTZ
    Blend: AUG-CC-PVTZ
  Basis Set: (AUG-CC-PVTZ AUX)
    Blend: AUG-CC-PVTZ-JKFIT
  @DF-RHF Final Energy:   -99.45087214510939
    Total Energy =                        -99.4508721451094004
 Dipole X            :        -45.8524658           41.2668962           -4.5855697
 Dipole Y            :         -0.0000599            0.0000000           -0.0000599
 Dipole Z            :          0.0000000            0.0000000            0.0000000
 Magnitude           :                                                    4.5855697
  Basis Set: (AUG-CC-PVTZ AUX)
    Blend: AUG-CC-PVTZ-RI
	 Reference Energy          =     -99.4508721451093862 [Eh]
	 Singles Energy            =      -0.0000000000000000 [Eh]
	 Same-Spin Energy          =      -0.0816648579173933 [Eh]
	 Opposite-Spin Energy      =      -0.2269782526977583 [Eh]
	 Correlation Energy        =      -0.3086431106151516 [Eh]
	 Total Energy              =     -99.7595152557245370 [Eh]
	 SCS Total Energy          =     -99.7504676676525008 [Eh]
                               Psi4 1.9 release
    Molecular point group: c1
  Multiplicity = 1
  Basis Set: AUG-CC-PVTZ
    Blend: AUG-CC-PVTZ
  Basis Set: (AUG-CC-PVTZ AUX)
    Blend: AUG-CC-PVTZ-JKFIT
  @DF-RHF Final Energy:   -76.04860167200137
    Total Energy =                        -76.0486016720013680
  Basis Set: (AUG-CC-PVTZ AUX)
	 Singles Energy            =      -0.0000000000000000 [Eh]
	 Same-Spin Energy          =      -0.0692835238357761 [Eh]
	 Opposite-Spin Energy      =      -0.2183984574875248 [Eh]
	 Correlation Energy        =      -0.2876819813233009 [Eh]
	 Total Energy              =     -76.3362836533246707 [Eh]
	 SCS Total Energy          =     -76.3337743289316535 [Eh]
                               Psi4 1.9 release
    Molecular point group: c1

    Geometry (in Bohr), charge = -1, multiplicity = 1:

       Center              X                  Y                   Z               Mass
    ------------   -----------------  -----------------  -----------------  -----------------
         O            0.000000000000     0.000000000000     0.000000000000    15.994914619570
         H           -1.695626685934     0.631884732104     0.000000000000     1.007825032230
         H            1.061676483174     1.700093998494     0.000000000000     1.007825032230
         F            4.585210683823     0.000000000000     0.000000000000    18.998403162730

  Charge       = -1
  Multiplicity = 1
  Basis Set: AUG-CC-PVTZ
    Blend: AUG-CC-PVTZ
  Basis Set: (AUG-CC-PVTZ AUX)
    Blend: AUG-CC-PVTZ-JKFIT

    Orbital Energies [Eh]
    ---------------------

    Doubly Occupied:

       1A    -25.836232     2A    -20.372548     3A     -1.130430
       4A     -1.083055     5A     -0.479304     6A     -0.374515
       7A     -0.303459     8A     -0.187457     9A     -0.186973
      10A     -0.186276

  @DF-RHF Final Energy:  -175.49368031502502

   => Energetics <=

    Nuclear Repulsion Energy =             28.1793546263249830
    One-Electron Energy =                -307.0655741856796794
    Two-Electron Energy =                 103.3925392443296971
    Total Energy =                       -175.4936803150249887
 Dipole X            :        -45.0859102           40.6329460           -4.4529643
 Dipole Y            :         -1.6318429            2.3319787            0.7001359
 Dipole Z            :          0.0000000            0.0000000            0.0000000
 Magnitude           :                                                    4.5076691
  Basis Set: (AUG-CC-PVTZ AUX)
    Blend: AUG-CC-PVTZ-RI
	 Reference Energy          =    -175.4936803150250171 [Eh]
	 Singles Energy            =      -0.0000000000000000 [Eh]
	 Same-Spin Energy          =      -0.1532553187122390 [Eh]
	 Opposite-Spin Energy      =      -0.4477857964847519 [Eh]
	 Correlation Energy        =      -0.6010411151969909 [Eh]
	 Total Energy              =    -176.0947214302219948 [Eh]

	 ================> DF-SCS-MP2 Energies <==================
	-----------------------------------------------------------
	 SCS Same-Spin Scale       =       0.3333333333333333 [-]
	 SCS Opposite-Spin Scale   =       1.2000000000000000 [-]
	 SCS Same-Spin Energy      =      -0.0510851062374130 [Eh]
	 SCS Opposite-Spin Energy  =      -0.5373429557817023 [Eh]
	 SCS Correlation Energy    =      -0.5884280620191153 [Eh]
	 SCS Total Energy          =    -176.0821083770441362 [Eh]
	-----------------------------------------------------------

*** Psi4 exiting successfully. Buy a developer a beer!
