                               Psi4 1.9 release

  ==> Input File <==

--------------------------------------------------------------------------
MEMORY 60 GB

molecule dimer {
0 1
O      0.000000     0.000000     0.000000
H     -0.159063     0.944263     0.000000
H      1.060028    -0.036721     0.000000
--
-1 1
F      2.426389     0.000000     0.000000

units ang
no_reorient
no_com
symmetry c1
}

set {
basis        aug-cc-pVTZ
scf_type     df
}

energy("mp2", bsse_type="cp")
--------------------------------------------------------------------------

                               Psi4 1.9 release
    Molecular point group: c1
  Charge       = -1
  Multiplicity = 1
  Basis Set: AUG-CC-PVTZ
    Blend: AUG-CC-PVTZ
  Basis Set: (AUG-CC-PVTZ AUX)
    Blend: AUG-CC-PVTZ-JKFIT
  @DF-RHF Final Energy:   -99.45091746270894
    Total Energy =                        -99.4509174627089294
 Dipole X            :        -45.8514539           41.2668962           -4.5845578
 Dipole Y            :          0.0005373            0.0000000            0.0005373
 Dipole Z            :         -0.0000000            0.0000000           -0.0000000
 Magnitude           :                                                    4.5845578
  Basis Set: (AUG-CC-PVTZ AUX)
    Blend: AUG-CC-PVTZ-RI
	 Reference Energy          =     -99.4509174627089436 [Eh]
	 Singles Energy            =      -0.0000000000000000 [Eh]
	 Same-Spin Energy          =      -0.0817816195799634 [Eh]
	 Opposite-Spin Energy      =      -0.2283245923011951 [Eh]
	 Correlation Energy        =      -0.3101062118811585 [Eh]
	 Total Energy              =     -99.7610236745901062 [Eh]
	 SCS Total Energy          =     -99.7521675133303631 [Eh]
                               Psi4 1.9 release
    Molecular point group: c1
  Multiplicity = 1
  Basis Set: AUG-CC-PVTZ
    Blend: AUG-CC-PVTZ
  Basis Set: (AUG-CC-PVTZ AUX)
    Blend: AUG-CC-PVTZ-JKFIT
  @DF-RHF Final Energy:   -76.04861834787840
    Total Energy =                        -76.0486183478784028
  Basis Set: (AUG-CC-PVTZ AUX)
	 Singles Energy            =      -0.0000000000000000 [Eh]
	 Same-Spin Energy          =      -0.0693217527630321 [Eh]
	 Opposite-Spin Energy      =      -0.2189010894803676 [Eh]
	 Correlation Energy        =      -0.2882228422433997 [Eh]
	 Total Energy              =     -76.3368411901218025 [Eh]
	 SCS Total Energy          =     -76.3344069061758574 [Eh]
                               Psi4 1.9 release
    Molecular point group: c1

    Geometry (in Bohr), charge = -1, multiplicity = 1:

       Center              X                  Y                   Z               Mass
    ------------   -----------------  -----------------  -----------------  -----------------
         O            0.000000000000     0.000000000000     0.000000000000    15.994914619570
         H           -0.300585506694     1.784398460403     0.000000000000     1.007825032230
         H            2.003162605317    -0.069392633053     0.000000000000     1.007825032230
         F            4.585210683823     0.000000000000     0.000000000000    18.998403162730

  Charge       = -1
  Multiplicity = 1
  Basis Set: AUG-CC-PVTZ
    Blend: AUG-CC-PVTZ
  Basis Set: (AUG-CC-PVTZ AUX)
    Blend: AUG-CC-PVTZ-JKFIT

    Orbital Energies [Eh]
    ---------------------

    Doubly Occupied:

       1A    -25.904355     2A    -20.309177     3A     -1.171085
       4A     -1.078148     5A     -0.453686     6A     -0.357571
       7A     -0.271336     8A     -0.261095     9A     -0.246281
      10A     -0.236013

  @DF-RHF Final Energy:  -175.54807610366063

   => Energetics <=

    Nuclear Repulsion Energy =             29.6677818462720424
    One-Electron Energy =                -309.8542205195637393
    Two-Electron Energy =                 104.6383625696310702
    Total Energy =                       -175.5480761036606623
 Dipole X            :        -46.0407686           42.9694733           -3.0712953
 Dipole Y            :         -1.2062906            1.7150058            0.5087153
 Dipole Z            :         -0.0000000            0.0000000           -0.0000000
 Magnitude           :                                                    3.1131409
  Basis Set: (AUG-CC-PVTZ AUX)
    Blend: AUG-CC-PVTZ-RI
	 Reference Energy          =    -175.5480761036606339 [Eh]
	 Singles Energy            =      -0.0000000000000000 [Eh]
	 Same-Spin Energy          =      -0.1538011541717121 [Eh]
	 Opposite-Spin Energy      =      -0.4458467962735538 [Eh]
	 Correlation Energy        =      -0.5996479504452659 [Eh]
	 Total Energy              =    -176.1477240541059075 [Eh]

	 ================> DF-SCS-MP2 Energies <==================
	-----------------------------------------------------------
	 SCS Same-Spin Scale       =       0.3333333333333333 [-]
	 SCS Opposite-Spin Scale   =       1.2000000000000000 [-]
	 SCS Same-Spin Energy      =      -0.0512670513905707 [Eh]
	 SCS Opposite-Spin Energy  =      -0.5350161555282645 [Eh]
	 SCS Correlation Energy    =      -0.5862832069188353 [Eh]
	 SCS Total Energy          =    -176.1343593105794696 [Eh]
	-----------------------------------------------------------

*** Psi4 exiting successfully. Buy a developer a beer!
