                               Psi4 1.9 release

  ==> Input File <==

--------------------------------------------------------------------------
MEMORY 60 GB

molecule dimer {
0 1
O      0.000000     0.000000     0.000000
H      0.090750     0.953257     0.000000
H      1.014404    -0.309825     0.000000
--
-1 1
F      2.426389     0.000000     0.000000

units ang
no_reorient
no_com
symmetry c1
}

set {
basis        aug-cc-pVTZ
scf_type     df
}

energy("mp2", bsse_type="cp")
--------------------------------------------------------------------------

                               Psi4 1.9 release
    Molecular point group: c1
  Charge       = -1
  Multiplicity = 1
  Basis Set: AUG-CC-PVTZ
    Blend: AUG-CC-PVTZ
  Basis Set: (AUG-CC-PVTZ AUX)
    Blend: AUG-CC-PVTZ-JKFIT
  @DF-RHF Final Energy:   -99.45090392734659
    Total Energy =                        -99.4509039273465874
 Dipole X            :        -45.8520175           41.2668962           -4.5851214
 Dipole Y            :          0.0005198            0.0000000            0.0005198
 Dipole Z            :          0.0000000            0.0000000            0.0000000
 Magnitude           :                                                    4.5851214
  Basis Set: (AUG-CC-PVTZ AUX)
    Blend: AUG-CC-PVTZ-RI
	 Reference Energy          =     -99.4509039273465874 [Eh]
	 Singles Energy            =      -0.0000000000000000 [Eh]
	 Same-Spin Energy          =      -0.0817460349029014 [Eh]
	 Opposite-Spin Energy      =      -0.2280415312122883 [Eh]
	 Correlation Energy        =      -0.3097875661151898 [Eh]
	 Total Energy              =     -99.7606914934617777 [Eh]
	 SCS Total Energy          =     -99.7518024431023065 [Eh]
                               Psi4 1.9 release
    Molecular point group: c1
  Multiplicity = 1
  Basis Set: AUG-CC-PVTZ
    Blend: AUG-CC-PVTZ
  Basis Set: (AUG-CC-PVTZ AUX)
    Blend: AUG-CC-PVTZ-JKFIT
  @DF-RHF Final Energy:   -76.04860567921963
    Total Energy =                        -76.0486056792196337
  Basis Set: (AUG-CC-PVTZ AUX)
	 Singles Energy            =      -0.0000000000000000 [Eh]
	 Same-Spin Energy          =      -0.0693068167553255 [Eh]
	 Opposite-Spin Energy      =      -0.2188002825049638 [Eh]
	 Correlation Energy        =      -0.2881070992602893 [Eh]
	 Total Energy              =     -76.3367127784799209 [Eh]
	 SCS Total Energy          =     -76.3342682904773682 [Eh]
                               Psi4 1.9 release
    Molecular point group: c1

    Geometry (in Bohr), charge = -1, multiplicity = 1:

       Center              X                  Y                   Z               Mass
    ------------   -----------------  -----------------  -----------------  -----------------
         O            0.000000000000     0.000000000000     0.000000000000    15.994914619570
         H            0.171492645885     1.801394657176     0.000000000000     1.007825032230
         H            1.916945740569    -0.585484396820     0.000000000000     1.007825032230
         F            4.585210683823     0.000000000000     0.000000000000    18.998403162730

  Charge       = -1
  Multiplicity = 1
  Basis Set: AUG-CC-PVTZ
    Blend: AUG-CC-PVTZ
  Basis Set: (AUG-CC-PVTZ AUX)
    Blend: AUG-CC-PVTZ-JKFIT

    Orbital Energies [Eh]
    ---------------------

    Doubly Occupied:

       1A    -25.897663     2A    -20.313449     3A     -1.161406
       4A     -1.080226     5A     -0.451457     6A     -0.361272
       7A     -0.269162     8A     -0.253725     9A     -0.244274
      10A     -0.230445

  @DF-RHF Final Energy:  -175.54260305837170

   => Energetics <=

    Nuclear Repulsion Energy =             29.6356568013264052
    One-Electron Energy =                -309.8303631263411262
    Two-Electron Energy =                 104.6521032666430386
    Total Energy =                       -175.5426030583716965
 Dipole X            :        -46.4015235           43.3553345           -3.0461889
 Dipole Y            :         -0.8497215            1.2159103            0.3661887
 Dipole Z            :          0.0000000            0.0000000            0.0000000
 Magnitude           :                                                    3.0681202
  Basis Set: (AUG-CC-PVTZ AUX)
    Blend: AUG-CC-PVTZ-RI
	 Reference Energy          =    -175.5426030583716965 [Eh]
	 Singles Energy            =      -0.0000000000000000 [Eh]
	 Same-Spin Energy          =      -0.1536214037286332 [Eh]
	 Opposite-Spin Energy      =      -0.4457665125580937 [Eh]
	 Correlation Energy        =      -0.5993879162867269 [Eh]
	 Total Energy              =    -176.1419909746584267 [Eh]

	 ================> DF-SCS-MP2 Energies <==================
	-----------------------------------------------------------
	 SCS Same-Spin Scale       =       0.3333333333333333 [-]
	 SCS Opposite-Spin Scale   =       1.2000000000000000 [-]
	 SCS Same-Spin Energy      =      -0.0512071345762111 [Eh]
	 SCS Opposite-Spin Energy  =      -0.5349198150697124 [Eh]
	 SCS Correlation Energy    =      -0.5861269496459235 [Eh]
	 SCS Total Energy          =    -176.1287300080176124 [Eh]
	-----------------------------------------------------------

*** Psi4 exiting successfully. Buy a developer a beer!
