                               Psi4 1.9 release

  ==> Input File <==

--------------------------------------------------------------------------
MEMORY 60 GB

molecule dimer {
0 1
O      0.000000     0.000000     0.000000
H      0.334379     0.897287     0.000000
H      0.899651    -0.561815     0.000000
--
-1 1
F      2.426389     0.000000     0.000000

units ang
no_reorient
no_com
symmetry c1
}

set {
basis        aug-cc-pVTZ
scf_type     df
}

energy("mp2", bsse_type="cp")
--------------------------------------------------------------------------

                               Psi4 1.9 release
    Molecular point group: c1
  Charge       = -1
  Multiplicity = 1
  Basis Set: AUG-CC-PVTZ
    Blend: AUG-CC-PVTZ
  Basis Set: (AUG-CC-PVTZ AUX)
    Blend: AUG-CC-PVTZ-JKFIT
  @DF-RHF Final Energy:   -99.45089711589513
    Total Energy =                        -99.4508971158951454
 Dipole X            :        -45.8528299           41.2668962           -4.5859337
 Dipole Y            :          0.0006432            0.0000000            0.0006432
 Dipole Z            :         -0.0000000            0.0000000           -0.0000000
 Magnitude           :                                                    4.5859338
  Basis Set: (AUG-CC-PVTZ AUX)
    Blend: AUG-CC-PVTZ-RI
	 Reference Energy          =     -99.4508971158951312 [Eh]
	 Singles Energy            =      -0.0000000000000000 [Eh]
	 Same-Spin Energy          =      -0.0817195032902899 [Eh]
	 Opposite-Spin Energy      =      -0.2276531550589665 [Eh]
	 Correlation Energy        =      -0.3093726583492564 [Eh]
	 Total Energy              =     -99.7602697742443922 [Eh]
	 SCS Total Energy          =     -99.7513207363959822 [Eh]
                               Psi4 1.9 release
    Molecular point group: c1
  Multiplicity = 1
  Basis Set: AUG-CC-PVTZ
    Blend: AUG-CC-PVTZ
  Basis Set: (AUG-CC-PVTZ AUX)
    Blend: AUG-CC-PVTZ-JKFIT
  @DF-RHF Final Energy:   -76.04859669238748
    Total Energy =                        -76.0485966923874770
  Basis Set: (AUG-CC-PVTZ AUX)
	 Singles Energy            =      -0.0000000000000000 [Eh]
	 Same-Spin Energy          =      -0.0692907361179304 [Eh]
	 Opposite-Spin Energy      =      -0.2185097390917259 [Eh]
	 Correlation Energy        =      -0.2878004752096562 [Eh]
	 Total Energy              =     -76.3363971675971271 [Eh]
	 SCS Total Energy          =     -76.3339052913368619 [Eh]
                               Psi4 1.9 release
    Molecular point group: c1

    Geometry (in Bohr), charge = -1, multiplicity = 1:

       Center              X                  Y                   Z               Mass
    ------------   -----------------  -----------------  -----------------  -----------------
         O            0.000000000000     0.000000000000     0.000000000000    15.994914619570
         H            0.631884732104     1.695626685934     0.000000000000     1.007825032230
         H            1.700093998494    -1.061676483174     0.000000000000     1.007825032230
         F            4.585210683823     0.000000000000     0.000000000000    18.998403162730

  Charge       = -1
  Multiplicity = 1
  Basis Set: AUG-CC-PVTZ
    Blend: AUG-CC-PVTZ
  Basis Set: (AUG-CC-PVTZ AUX)
    Blend: AUG-CC-PVTZ-JKFIT

    Orbital Energies [Eh]
    ---------------------

    Doubly Occupied:

       1A    -25.882685     2A    -20.325235     3A     -1.142910
       4A     -1.086770     5A     -0.453144     6A     -0.364414
       7A     -0.272410     8A     -0.237331     9A     -0.233811
      10A     -0.221839

  @DF-RHF Final Energy:  -175.53169311371835

   => Energetics <=

    Nuclear Repulsion Energy =             29.4729203930437080
    One-Electron Energy =                -309.5681314580980938
    Two-Electron Energy =                 104.5635179513360526
    Total Energy =                       -175.5316931137183474
 Dipole X            :        -46.7501841           43.5988749           -3.1513092
 Dipole Y            :         -0.4386360            0.6339502            0.1953142
 Dipole Z            :         -0.0000000            0.0000000           -0.0000000
 Magnitude           :                                                    3.1573561
  Basis Set: (AUG-CC-PVTZ AUX)
    Blend: AUG-CC-PVTZ-RI
	 Reference Energy          =    -175.5316931137183474 [Eh]
	 Singles Energy            =      -0.0000000000000000 [Eh]
	 Same-Spin Energy          =      -0.1533116986176387 [Eh]
	 Opposite-Spin Energy      =      -0.4457267006789327 [Eh]
	 Correlation Energy        =      -0.5990383992965714 [Eh]
	 Total Energy              =    -176.1307315130149220 [Eh]

	 ================> DF-SCS-MP2 Energies <==================
	-----------------------------------------------------------
	 SCS Same-Spin Scale       =       0.3333333333333333 [-]
	 SCS Opposite-Spin Scale   =       1.2000000000000000 [-]
	 SCS Same-Spin Energy      =      -0.0511038995392129 [Eh]
	 SCS Opposite-Spin Energy  =      -0.5348720408147193 [Eh]
	 SCS Correlation Energy    =      -0.5859759403539322 [Eh]
	 SCS Total Energy          =    -176.1176690540722802 [Eh]
	-----------------------------------------------------------

*** Psi4 exiting successfully. Buy a developer a beer!
