                               Psi4 1.9 release

  ==> Input File <==

--------------------------------------------------------------------------
MEMORY 60 GB

molecule dimer {
0 1
O      0.000000     0.000000     0.000000
H      0.555220     0.780169     0.000000
H      0.723587    -0.775519     0.000000
--
-1 1
F      2.426389     0.000000     0.000000

units ang
no_reorient
no_com
symmetry c1
}

set {
basis        aug-cc-pVTZ
scf_type     df
}

energy("mp2", bsse_type="cp")
--------------------------------------------------------------------------

                               Psi4 1.9 release
    Molecular point group: c1
  Charge       = -1
  Multiplicity = 1
  Basis Set: AUG-CC-PVTZ
    Blend: AUG-CC-PVTZ
  Basis Set: (AUG-CC-PVTZ AUX)
    Blend: AUG-CC-PVTZ-JKFIT
  @DF-RHF Final Energy:   -99.45089174727471
    Total Energy =                        -99.4508917472747243
 Dipole X            :        -45.8530651           41.2668962           -4.5861690
 Dipole Y            :          0.0001567            0.0000000            0.0001567
 Dipole Z            :          0.0000000            0.0000000            0.0000000
 Magnitude           :                                                    4.5861690
  Basis Set: (AUG-CC-PVTZ AUX)
    Blend: AUG-CC-PVTZ-RI
	 Reference Energy          =     -99.4508917472747100 [Eh]
	 Singles Energy            =      -0.0000000000000000 [Eh]
	 Same-Spin Energy          =      -0.0817150787675370 [Eh]
	 Opposite-Spin Energy      =      -0.2273777036784310 [Eh]
	 Correlation Energy        =      -0.3090927824459681 [Eh]
	 Total Energy              =     -99.7599845297206826 [Eh]
	 SCS Total Energy          =     -99.7509833512780091 [Eh]
                               Psi4 1.9 release
    Molecular point group: c1
  Multiplicity = 1
  Basis Set: AUG-CC-PVTZ
    Blend: AUG-CC-PVTZ
  Basis Set: (AUG-CC-PVTZ AUX)
    Blend: AUG-CC-PVTZ-JKFIT
  @DF-RHF Final Energy:   -76.04859444959862
    Total Energy =                        -76.0485944495986246
  Basis Set: (AUG-CC-PVTZ AUX)
	 Singles Energy            =      -0.0000000000000000 [Eh]
	 Same-Spin Energy          =      -0.0692873969384178 [Eh]
	 Opposite-Spin Energy      =      -0.2184325075016123 [Eh]
	 Correlation Energy        =      -0.2877199044400301 [Eh]
	 Total Energy              =     -76.3363143540386488 [Eh]
	 SCS Total Energy          =     -76.3338092575800289 [Eh]
                               Psi4 1.9 release
    Molecular point group: c1

    Geometry (in Bohr), charge = -1, multiplicity = 1:

       Center              X                  Y                   Z               Mass
    ------------   -----------------  -----------------  -----------------  -----------------
         O            0.000000000000     0.000000000000     0.000000000000    15.994914619570
         H            1.049213739377     1.474305741572     0.000000000000     1.007825032230
         H            1.367381257942    -1.465518515089     0.000000000000     1.007825032230
         F            4.585210683823     0.000000000000     0.000000000000    18.998403162730

  Charge       = -1
  Multiplicity = 1
  Basis Set: AUG-CC-PVTZ
    Blend: AUG-CC-PVTZ
  Basis Set: (AUG-CC-PVTZ AUX)
    Blend: AUG-CC-PVTZ-JKFIT

    Orbital Energies [Eh]
    ---------------------

    Doubly Occupied:

       1A    -25.871267     2A    -20.335127     3A     -1.131151
       4A     -1.091204     5A     -0.457201     6A     -0.366399
       7A     -0.278435     8A     -0.225227     9A     -0.223361
      10A     -0.215872

  @DF-RHF Final Energy:  -175.52444475725849

   => Energetics <=

    Nuclear Repulsion Energy =             29.3477459096303832
    One-Electron Energy =                -309.3538929460398776
    Two-Electron Energy =                 104.4817022791510226
    Total Energy =                       -175.5244447572584932
 Dipole X            :        -46.9416134           43.6834912           -3.2581222
 Dipole Y            :         -0.0029430            0.0087872            0.0058442
 Dipole Z            :          0.0000000            0.0000000            0.0000000
 Magnitude           :                                                    3.2581275
  Basis Set: (AUG-CC-PVTZ AUX)
    Blend: AUG-CC-PVTZ-RI
	 Reference Energy          =    -175.5244447572584932 [Eh]
	 Singles Energy            =      -0.0000000000000000 [Eh]
	 Same-Spin Energy          =      -0.1528923408739229 [Eh]
	 Opposite-Spin Energy      =      -0.4455861514126443 [Eh]
	 Correlation Energy        =      -0.5984784922865672 [Eh]
	 Total Energy              =    -176.1229232495450674 [Eh]

	 ================> DF-SCS-MP2 Energies <==================
	-----------------------------------------------------------
	 SCS Same-Spin Scale       =       0.3333333333333333 [-]
	 SCS Opposite-Spin Scale   =       1.2000000000000000 [-]
	 SCS Same-Spin Energy      =      -0.0509641136246410 [Eh]
	 SCS Opposite-Spin Energy  =      -0.5347033816951732 [Eh]
	 SCS Correlation Energy    =      -0.5856674953198141 [Eh]
	 SCS Total Energy          =    -176.1101122525783182 [Eh]
	-----------------------------------------------------------

*** Psi4 exiting successfully. Buy a developer a beer!
