                               Psi4 1.9 release

  ==> Input File <==

--------------------------------------------------------------------------
MEMORY 60 GB

molecule dimer {
0 1
O      0.000000     0.000000     0.000000
H     -0.780169     0.555220     0.000000
H      0.775519     0.723587     0.000000
--
-1 1
F      2.426389     0.000000     0.000000

units ang
no_reorient
no_com
symmetry c1
}

set {
basis        aug-cc-pVTZ
scf_type     df
}

energy("mp2", bsse_type="cp")
--------------------------------------------------------------------------

                               Psi4 1.9 release
    Molecular point group: c1
  Charge       = -1
  Multiplicity = 1
  Basis Set: AUG-CC-PVTZ
    Blend: AUG-CC-PVTZ
  Basis Set: (AUG-CC-PVTZ AUX)
    Blend: AUG-CC-PVTZ-JKFIT
  @DF-RHF Final Energy:   -99.45087853703950
    Total Energy =                        -99.4508785370395003
 Dipole X            :        -45.8525616           41.2668962           -4.5856655
 Dipole Y            :          0.0000852            0.0000000            0.0000852
 Dipole Z            :         -0.0000000            0.0000000           -0.0000000
 Magnitude           :                                                    4.5856655
  Basis Set: (AUG-CC-PVTZ AUX)
    Blend: AUG-CC-PVTZ-RI
	 Reference Energy          =     -99.4508785370395003 [Eh]
	 Singles Energy            =      -0.0000000000000000 [Eh]
	 Same-Spin Energy          =      -0.0816901063913196 [Eh]
	 Opposite-Spin Energy      =      -0.2273196346864205 [Eh]
	 Correlation Energy        =      -0.3090097410777400 [Eh]
	 Total Energy              =     -99.7598882781172449 [Eh]
	 SCS Total Energy          =     -99.7508921341269712 [Eh]
                               Psi4 1.9 release
    Molecular point group: c1
  Multiplicity = 1
  Basis Set: AUG-CC-PVTZ
    Blend: AUG-CC-PVTZ
  Basis Set: (AUG-CC-PVTZ AUX)
    Blend: AUG-CC-PVTZ-JKFIT
  @DF-RHF Final Energy:   -76.04859816304847
    Total Energy =                        -76.0485981630484673
  Basis Set: (AUG-CC-PVTZ AUX)
	 Singles Energy            =      -0.0000000000000000 [Eh]
	 Same-Spin Energy          =      -0.0692858356127330 [Eh]
	 Opposite-Spin Energy      =      -0.2184339637767304 [Eh]
	 Correlation Energy        =      -0.2877197993894633 [Eh]
	 Total Energy              =     -76.3363179624379313 [Eh]
	 SCS Total Energy          =     -76.3338141981181195 [Eh]
                               Psi4 1.9 release
    Molecular point group: c1

    Geometry (in Bohr), charge = -1, multiplicity = 1:

       Center              X                  Y                   Z               Mass
    ------------   -----------------  -----------------  -----------------  -----------------
         O            0.000000000000     0.000000000000     0.000000000000    15.994914619570
         H           -1.474305741572     1.049213739377     0.000000000000     1.007825032230
         H            1.465518515089     1.367381257942     0.000000000000     1.007825032230
         F            4.585210683823     0.000000000000     0.000000000000    18.998403162730

  Charge       = -1
  Multiplicity = 1
  Basis Set: AUG-CC-PVTZ
    Blend: AUG-CC-PVTZ
  Basis Set: (AUG-CC-PVTZ AUX)
    Blend: AUG-CC-PVTZ-JKFIT

    Orbital Energies [Eh]
    ---------------------

    Doubly Occupied:

       1A    -25.853606     2A    -20.357017     3A     -1.123253
       4A     -1.098271     5A     -0.470461     6A     -0.366770
       7A     -0.292412     8A     -0.205104     9A     -0.204866
      10A     -0.203791

  @DF-RHF Final Energy:  -175.50791499783719

   => Energetics <=

    Nuclear Repulsion Energy =             28.5588792315456388
    One-Electron Energy =                -307.7824853534722251
    Two-Electron Energy =                 103.7156911240894033
    Total Energy =                       -175.5079149978371902
 Dipole X            :        -45.3599257           41.2581089           -4.1018168
 Dipole Y            :         -1.6905984            2.4165950            0.7259966
 Dipole Z            :         -0.0000000            0.0000000           -0.0000000
 Magnitude           :                                                    4.1655698
  Basis Set: (AUG-CC-PVTZ AUX)
    Blend: AUG-CC-PVTZ-RI
	 Reference Energy          =    -175.5079149978371902 [Eh]
	 Singles Energy            =      -0.0000000000000000 [Eh]
	 Same-Spin Energy          =      -0.1536806052636345 [Eh]
	 Opposite-Spin Energy      =      -0.4477034608882821 [Eh]
	 Correlation Energy        =      -0.6013840661519165 [Eh]
	 Total Energy              =    -176.1092990639891127 [Eh]

	 ================> DF-SCS-MP2 Energies <==================
	-----------------------------------------------------------
	 SCS Same-Spin Scale       =       0.3333333333333333 [-]
	 SCS Opposite-Spin Scale   =       1.2000000000000000 [-]
	 SCS Same-Spin Energy      =      -0.0512268684212115 [Eh]
	 SCS Opposite-Spin Energy  =      -0.5372441530659385 [Eh]
	 SCS Correlation Energy    =      -0.5884710214871500 [Eh]
	 SCS Total Energy          =    -176.0963860193243420 [Eh]
	-----------------------------------------------------------

*** Psi4 exiting successfully. Buy a developer a beer!
