                               Psi4 1.9 release

  ==> Input File <==

--------------------------------------------------------------------------
MEMORY 60 GB

molecule dimer {
0 1
O      0.000000     0.000000     0.000000
H      0.738224     0.609884     0.000000
H      0.498213    -0.936372     0.000000
--
-1 1
F      2.426389     0.000000     0.000000

units ang
no_reorient
no_com
symmetry c1
}

set {
basis        aug-cc-pVTZ
scf_type     df
}

energy("mp2", bsse_type="cp")
--------------------------------------------------------------------------

                               Psi4 1.9 release
    Molecular point group: c1
  Charge       = -1
  Multiplicity = 1
  Basis Set: AUG-CC-PVTZ
    Blend: AUG-CC-PVTZ
  Basis Set: (AUG-CC-PVTZ AUX)
    Blend: AUG-CC-PVTZ-JKFIT
  @DF-RHF Final Energy:   -99.45089104614080
    Total Energy =                        -99.4508910461407822
 Dipole X            :        -45.8529833           41.2668962           -4.5860871
 Dipole Y            :         -0.0005385            0.0000000           -0.0005385
 Dipole Z            :         -0.0000000            0.0000000           -0.0000000
 Magnitude           :                                                    4.5860872
  Basis Set: (AUG-CC-PVTZ AUX)
    Blend: AUG-CC-PVTZ-RI
	 Reference Energy          =     -99.4508910461407964 [Eh]
	 Singles Energy            =      -0.0000000000000000 [Eh]
	 Same-Spin Energy          =      -0.0817131744057449 [Eh]
	 Opposite-Spin Energy      =      -0.2274433905020426 [Eh]
	 Correlation Energy        =      -0.3091565649077875 [Eh]
	 Total Energy              =     -99.7600476110485772 [Eh]
	 SCS Total Energy          =     -99.7510608395451612 [Eh]
                               Psi4 1.9 release
    Molecular point group: c1
  Multiplicity = 1
  Basis Set: AUG-CC-PVTZ
    Blend: AUG-CC-PVTZ
  Basis Set: (AUG-CC-PVTZ AUX)
    Blend: AUG-CC-PVTZ-JKFIT
  @DF-RHF Final Energy:   -76.04859776891691
    Total Energy =                        -76.0485977689168919
  Basis Set: (AUG-CC-PVTZ AUX)
	 Singles Energy            =      -0.0000000000000000 [Eh]
	 Same-Spin Energy          =      -0.0692888502662941 [Eh]
	 Opposite-Spin Energy      =      -0.2184586778715236 [Eh]
	 Correlation Energy        =      -0.2877475281378178 [Eh]
	 Total Energy              =     -76.3363452970547200 [Eh]
	 SCS Total Energy          =     -76.3338444657848356 [Eh]
                               Psi4 1.9 release
    Molecular point group: c1

    Geometry (in Bohr), charge = -1, multiplicity = 1:

       Center              X                  Y                   Z               Mass
    ------------   -----------------  -----------------  -----------------  -----------------
         O            0.000000000000     0.000000000000     0.000000000000    15.994914619570
         H            1.395041179240     1.152513728299     0.000000000000     1.007825032230
         H            0.941486122143    -1.769486631547     0.000000000000     1.007825032230
         F            4.585210683823     0.000000000000     0.000000000000    18.998403162730

  Charge       = -1
  Multiplicity = 1
  Basis Set: AUG-CC-PVTZ
    Blend: AUG-CC-PVTZ
  Basis Set: (AUG-CC-PVTZ AUX)
    Blend: AUG-CC-PVTZ-JKFIT

    Orbital Energies [Eh]
    ---------------------

    Doubly Occupied:

       1A    -25.870142     2A    -20.337704     3A     -1.131111
       4A     -1.091809     5A     -0.459480     6A     -0.366030
       7A     -0.280305     8A     -0.224363     9A     -0.222532
      10A     -0.216648

  @DF-RHF Final Energy:  -175.52436561542368

   => Energetics <=

    Nuclear Repulsion Energy =             29.3283344012689149
    One-Electron Energy =                -309.3051539797691021
    Two-Electron Energy =                 104.4524539630765219
    Total Energy =                       -175.5243656154236476
 Dipole X            :        -46.9001082           43.6034235           -3.2966848
 Dipole Y            :          0.4358982           -0.6169729           -0.1810747
 Dipole Z            :         -0.0000000            0.0000000           -0.0000000
 Magnitude           :                                                    3.3016539
  Basis Set: (AUG-CC-PVTZ AUX)
    Blend: AUG-CC-PVTZ-RI
	 Reference Energy          =    -175.5243656154236760 [Eh]
	 Singles Energy            =      -0.0000000000000000 [Eh]
	 Same-Spin Energy          =      -0.1526974949876361 [Eh]
	 Opposite-Spin Energy      =      -0.4455743865061623 [Eh]
	 Correlation Energy        =      -0.5982718814937984 [Eh]
	 Total Energy              =    -176.1226374969174628 [Eh]

	 ================> DF-SCS-MP2 Energies <==================
	-----------------------------------------------------------
	 SCS Same-Spin Scale       =       0.3333333333333333 [-]
	 SCS Opposite-Spin Scale   =       1.2000000000000000 [-]
	 SCS Same-Spin Energy      =      -0.0508991649958787 [Eh]
	 SCS Opposite-Spin Energy  =      -0.5346892638073948 [Eh]
	 SCS Correlation Energy    =      -0.5855884288032734 [Eh]
	 SCS Total Energy          =    -176.1099540442269529 [Eh]
	-----------------------------------------------------------

*** Psi4 exiting successfully. Buy a developer a beer!
