                               Psi4 1.9 release

  ==> Input File <==

--------------------------------------------------------------------------
MEMORY 60 GB

molecule dimer {
0 1
O      0.000000     0.000000     0.000000
H     -0.398036     0.870919     0.000000
H      1.033413     0.238886     0.000000
--
-1 1
F      2.426389     0.000000     0.000000

units ang
no_reorient
no_com
symmetry c1
}

set {
basis        aug-cc-pVTZ
scf_type     df
}

energy("mp2", bsse_type="cp")
--------------------------------------------------------------------------

                               Psi4 1.9 release
    Molecular point group: c1
  Charge       = -1
  Multiplicity = 1
  Basis Set: AUG-CC-PVTZ
    Blend: AUG-CC-PVTZ
  Basis Set: (AUG-CC-PVTZ AUX)
    Blend: AUG-CC-PVTZ-JKFIT
  @DF-RHF Final Energy:   -99.45090900213830
    Total Energy =                        -99.4509090021383031
 Dipole X            :        -45.8515592           41.2668962           -4.5846631
 Dipole Y            :         -0.0001005            0.0000000           -0.0001005
 Dipole Z            :         -0.0000000            0.0000000           -0.0000000
 Magnitude           :                                                    4.5846631
  Basis Set: (AUG-CC-PVTZ AUX)
    Blend: AUG-CC-PVTZ-RI
	 Reference Energy          =     -99.4509090021383031 [Eh]
	 Singles Energy            =      -0.0000000000000000 [Eh]
	 Same-Spin Energy          =      -0.0817566600059998 [Eh]
	 Opposite-Spin Energy      =      -0.2281766980591396 [Eh]
	 Correlation Energy        =      -0.3099333580651394 [Eh]
	 Total Energy              =     -99.7608423602034406 [Eh]
	 SCS Total Energy          =     -99.7519732598112654 [Eh]
                               Psi4 1.9 release
    Molecular point group: c1
  Multiplicity = 1
  Basis Set: AUG-CC-PVTZ
    Blend: AUG-CC-PVTZ
  Basis Set: (AUG-CC-PVTZ AUX)
    Blend: AUG-CC-PVTZ-JKFIT
  @DF-RHF Final Energy:   -76.04860725799958
    Total Energy =                        -76.0486072579995920
  Basis Set: (AUG-CC-PVTZ AUX)
	 Singles Energy            =      -0.0000000000000000 [Eh]
	 Same-Spin Energy          =      -0.0693156112220591 [Eh]
	 Opposite-Spin Energy      =      -0.2188439897807290 [Eh]
	 Correlation Energy        =      -0.2881596010027881 [Eh]
	 Total Energy              =     -76.3367668590023669 [Eh]
	 SCS Total Energy          =     -76.3343252494771320 [Eh]
                               Psi4 1.9 release
    Molecular point group: c1

    Geometry (in Bohr), charge = -1, multiplicity = 1:

       Center              X                  Y                   Z               Mass
    ------------   -----------------  -----------------  -----------------  -----------------
         O            0.000000000000     0.000000000000     0.000000000000    15.994914619570
         H           -0.752179028073     1.645798387458     0.000000000000     1.007825032230
         H            1.952867544488     0.451429115206     0.000000000000     1.007825032230
         F            4.585210683823     0.000000000000     0.000000000000    18.998403162730

  Charge       = -1
  Multiplicity = 1
  Basis Set: AUG-CC-PVTZ
    Blend: AUG-CC-PVTZ
  Basis Set: (AUG-CC-PVTZ AUX)
    Blend: AUG-CC-PVTZ-JKFIT

    Orbital Energies [Eh]
    ---------------------

    Doubly Occupied:

       1A    -25.895965     2A    -20.317980     3A     -1.160289
       4A     -1.084739     5A     -0.456464     6A     -0.355335
       7A     -0.270047     8A     -0.251353     9A     -0.244626
      10A     -0.234227

  @DF-RHF Final Energy:  -175.54151058155645

   => Energetics <=

    Nuclear Repulsion Energy =             29.4343138193556335
    One-Electron Energy =                -309.4095980124337188
    Two-Electron Energy =                 104.4337736115216586
    Total Energy =                       -175.5415105815564516
 Dipole X            :        -45.7691623           42.4675847           -3.3015777
 Dipole Y            :         -1.4770919            2.0972275            0.6201356
 Dipole Z            :         -0.0000000            0.0000000           -0.0000000
 Magnitude           :                                                    3.3593129
  Basis Set: (AUG-CC-PVTZ AUX)
    Blend: AUG-CC-PVTZ-RI
	 Reference Energy          =    -175.5415105815564516 [Eh]
	 Singles Energy            =      -0.0000000000000000 [Eh]
	 Same-Spin Energy          =      -0.1540076596858309 [Eh]
	 Opposite-Spin Energy      =      -0.4465588850858613 [Eh]
	 Correlation Energy        =      -0.6005665447716922 [Eh]
	 Total Energy              =    -176.1420771263281324 [Eh]

	 ================> DF-SCS-MP2 Energies <==================
	-----------------------------------------------------------
	 SCS Same-Spin Scale       =       0.3333333333333333 [-]
	 SCS Opposite-Spin Scale   =       1.2000000000000000 [-]
	 SCS Same-Spin Energy      =      -0.0513358865619436 [Eh]
	 SCS Opposite-Spin Energy  =      -0.5358706621030335 [Eh]
	 SCS Correlation Energy    =      -0.5872065486649771 [Eh]
	 SCS Total Energy          =    -176.1287171302214176 [Eh]
	-----------------------------------------------------------

*** Psi4 exiting successfully. Buy a developer a beer!
