                               Psi4 1.9 release

  ==> Input File <==

--------------------------------------------------------------------------
MEMORY 60 GB

molecule dimer {
0 1
O      0.000000     0.000000     0.000000
H     -0.609884     0.738224     0.000000
H      0.936372     0.498213     0.000000
--
-1 1
F      2.426389     0.000000     0.000000

units ang
no_reorient
no_com
symmetry c1
}

set {
basis        aug-cc-pVTZ
scf_type     df
}

energy("mp2", bsse_type="cp")
--------------------------------------------------------------------------

                               Psi4 1.9 release
    Molecular point group: c1
  Charge       = -1
  Multiplicity = 1
  Basis Set: AUG-CC-PVTZ
    Blend: AUG-CC-PVTZ
  Basis Set: (AUG-CC-PVTZ AUX)
    Blend: AUG-CC-PVTZ-JKFIT
  @DF-RHF Final Energy:   -99.45089352505529
    Total Energy =                        -99.4508935250552923
 Dipole X            :        -45.8522554           41.2668962           -4.5853593
 Dipole Y            :          0.0001130            0.0000000            0.0001130
 Dipole Z            :          0.0000000            0.0000000            0.0000000
 Magnitude           :                                                    4.5853593
  Basis Set: (AUG-CC-PVTZ AUX)
    Blend: AUG-CC-PVTZ-RI
	 Reference Energy          =     -99.4508935250552923 [Eh]
	 Singles Energy            =      -0.0000000000000000 [Eh]
	 Same-Spin Energy          =      -0.0817159424821854 [Eh]
	 Opposite-Spin Energy      =      -0.2277817696476187 [Eh]
	 Correlation Energy        =      -0.3094977121298041 [Eh]
	 Total Energy              =     -99.7603912371850896 [Eh]
	 SCS Total Energy          =     -99.7514702961264987 [Eh]
                               Psi4 1.9 release
    Molecular point group: c1
  Multiplicity = 1
  Basis Set: AUG-CC-PVTZ
    Blend: AUG-CC-PVTZ
  Basis Set: (AUG-CC-PVTZ AUX)
    Blend: AUG-CC-PVTZ-JKFIT
  @DF-RHF Final Energy:   -76.04859588374832
    Total Energy =                        -76.0485958837483054
  Basis Set: (AUG-CC-PVTZ AUX)
	 Singles Energy            =      -0.0000000000000000 [Eh]
	 Same-Spin Energy          =      -0.0692959122709365 [Eh]
	 Opposite-Spin Energy      =      -0.2185233271990243 [Eh]
	 Correlation Energy        =      -0.2878192394699608 [Eh]
	 Total Energy              =     -76.3364151232182735 [Eh]
	 SCS Total Energy          =     -76.3339225138107906 [Eh]
                               Psi4 1.9 release
    Molecular point group: c1

    Geometry (in Bohr), charge = -1, multiplicity = 1:

       Center              X                  Y                   Z               Mass
    ------------   -----------------  -----------------  -----------------  -----------------
         O            0.000000000000     0.000000000000     0.000000000000    15.994914619570
         H           -1.152513728299     1.395041179240     0.000000000000     1.007825032230
         H            1.769486631547     0.941486122143     0.000000000000     1.007825032230
         F            4.585210683823     0.000000000000     0.000000000000    18.998403162730

  Charge       = -1
  Multiplicity = 1
  Basis Set: AUG-CC-PVTZ
    Blend: AUG-CC-PVTZ
  Basis Set: (AUG-CC-PVTZ AUX)
    Blend: AUG-CC-PVTZ-JKFIT

    Orbital Energies [Eh]
    ---------------------

    Doubly Occupied:

       1A    -25.875844     2A    -20.336770     3A     -1.136216
       4A     -1.096863     5A     -0.461830     6A     -0.358627
       7A     -0.278700     8A     -0.228919     9A     -0.227750
      10A     -0.221924

  @DF-RHF Final Energy:  -175.52544234972396

   => Energetics <=

    Nuclear Repulsion Energy =             29.0086792329814500
    One-Electron Energy =                -308.6213576303509285
    Two-Electron Energy =                 104.0872360476454617
    Total Energy =                       -175.5254423497239884
 Dipole X            :        -45.5715110           41.8838691           -3.6876419
 Dipole Y            :         -1.6400679            2.3365273            0.6964594
 Dipole Z            :          0.0000000            0.0000000            0.0000000
 Magnitude           :                                                    3.7528334
  Basis Set: (AUG-CC-PVTZ AUX)
    Blend: AUG-CC-PVTZ-RI
	 Reference Energy          =    -175.5254423497239600 [Eh]
	 Singles Energy            =      -0.0000000000000000 [Eh]
	 Same-Spin Energy          =      -0.1540249216918745 [Eh]
	 Opposite-Spin Energy      =      -0.4472990252765707 [Eh]
	 Correlation Energy        =      -0.6013239469684453 [Eh]
	 Total Energy              =    -176.1267662966924092 [Eh]

	 ================> DF-SCS-MP2 Energies <==================
	-----------------------------------------------------------
	 SCS Same-Spin Scale       =       0.3333333333333333 [-]
	 SCS Opposite-Spin Scale   =       1.2000000000000000 [-]
	 SCS Same-Spin Energy      =      -0.0513416405639582 [Eh]
	 SCS Opposite-Spin Energy  =      -0.5367588303318849 [Eh]
	 SCS Correlation Energy    =      -0.5881004708958431 [Eh]
	 SCS Total Energy          =    -176.1135428206198128 [Eh]
	-----------------------------------------------------------

*** Psi4 exiting successfully. Buy a developer a beer!
