                               Psi4 1.9 release

  ==> Input File <==

--------------------------------------------------------------------------
MEMORY 60 GB

molecule dimer {
0 1
O      0.000000     0.000000     0.000000
H      0.790235     0.541683     0.000000
H      0.393609    -0.906600     0.000000
--
-1 1
Cl     3.070352     0.000000     0.000000

units ang
no_reorient
no_com
symmetry c1
}

set {
basis        aug-cc-pVTZ
scf_type     df
}

energy("mp2", bsse_type="cp")
--------------------------------------------------------------------------

                               Psi4 1.9 release
    Molecular point group: c1
  Charge       = -1
  Multiplicity = 1
  Basis Set: AUG-CC-PVTZ
    Blend: AUG-CC-PVTZ
  Basis Set: (AUG-CC-PVTZ AUX)
    Blend: AUG-CC-PVTZ-JKFIT
  @DF-RHF Final Energy:  -459.57350277933426
    Total Energy =                       -459.5735027793342624
 Dipole X            :       -104.4384012           98.6361146           -5.8022866
 Dipole Y            :          0.0000764            0.0000000            0.0000764
 Dipole Z            :          0.0000000            0.0000000            0.0000000
 Magnitude           :                                                    5.8022866
  Basis Set: (AUG-CC-PVTZ AUX)
    Blend: AUG-CC-PVTZ-RI
	 Reference Energy          =    -459.5735027793342624 [Eh]
	 Singles Energy            =      -0.0000000000000000 [Eh]
	 Same-Spin Energy          =      -0.0625550227243503 [Eh]
	 Opposite-Spin Energy      =      -0.1798591358342128 [Eh]
	 Correlation Energy        =      -0.2424141585585630 [Eh]
	 Total Energy              =    -459.8159169378928368 [Eh]
	 SCS Total Energy          =    -459.8101854165767577 [Eh]
                               Psi4 1.9 release
    Molecular point group: c1
  Multiplicity = 1
  Basis Set: AUG-CC-PVTZ
    Blend: AUG-CC-PVTZ
  Basis Set: (AUG-CC-PVTZ AUX)
    Blend: AUG-CC-PVTZ-JKFIT
  @DF-RHF Final Energy:   -76.05822562015769
    Total Energy =                        -76.0582256201576996
  Basis Set: (AUG-CC-PVTZ AUX)
	 Singles Energy            =      -0.0000000000000000 [Eh]
	 Same-Spin Energy          =      -0.0687116131702954 [Eh]
	 Opposite-Spin Energy      =      -0.2164459215970324 [Eh]
	 Correlation Energy        =      -0.2851575347673279 [Eh]
	 Total Energy              =     -76.3433831549250073 [Eh]
	 SCS Total Energy          =     -76.3408645971308886 [Eh]
                               Psi4 1.9 release
    Molecular point group: c1

    Geometry (in Bohr), charge = -1, multiplicity = 1:

       Center              X                  Y                   Z               Mass
    ------------   -----------------  -----------------  -----------------  -----------------
         O            0.000000000000     0.000000000000     0.000000000000    15.994914619570
         H            1.493327724751     1.023632516816     0.000000000000     1.007825032230
         H            0.743813210515    -1.713225705340     0.000000000000     1.007825032230
         CL           5.802124388752     0.000000000000     0.000000000000    34.968852682000

  Charge       = -1
  Multiplicity = 1
  Basis Set: AUG-CC-PVTZ
    Blend: AUG-CC-PVTZ
  Basis Set: (AUG-CC-PVTZ AUX)
    Blend: AUG-CC-PVTZ-JKFIT

    Orbital Energies [Eh]
    ---------------------

    Doubly Occupied:

       1A   -104.527060     2A    -20.381704     3A    -10.251473
       4A     -7.717543     5A     -7.717520     6A     -7.717498
       7A     -1.162448     8A     -0.760343     9A     -0.518777
      10A     -0.412050    11A     -0.326876    12A     -0.176808
      13A     -0.174998    14A     -0.174090

  @DF-RHF Final Energy:  -535.64886964559855

   => Energetics <=

    Nuclear Repulsion Energy =             39.5158534440208626
    One-Electron Energy =                -826.2910707204684968
    Two-Electron Energy =                 251.1263476308491249
    Total Energy =                       -535.6488696455985519
 Dipole X            :       -105.4995315          100.8732555           -4.6262760
 Dipole Y            :          0.4627646           -0.6895932           -0.2268286
 Dipole Z            :         -0.0000000            0.0000000           -0.0000000
 Magnitude           :                                                    4.6318334
  Basis Set: (AUG-CC-PVTZ AUX)
    Blend: AUG-CC-PVTZ-RI
	 Reference Energy          =    -535.6488696455985519 [Eh]
	 Singles Energy            =      -0.0000000000000000 [Eh]
	 Same-Spin Energy          =      -0.1335040431808400 [Eh]
	 Opposite-Spin Energy      =      -0.3977144816823793 [Eh]
	 Correlation Energy        =      -0.5312185248632193 [Eh]
	 Total Energy              =    -536.1800881704617723 [Eh]

	 ================> DF-SCS-MP2 Energies <==================
	-----------------------------------------------------------
	 SCS Same-Spin Scale       =       0.3333333333333333 [-]
	 SCS Opposite-Spin Scale   =       1.2000000000000000 [-]
	 SCS Same-Spin Energy      =      -0.0445013477269467 [Eh]
	 SCS Opposite-Spin Energy  =      -0.4772573780188551 [Eh]
	 SCS Correlation Energy    =      -0.5217587257458017 [Eh]
	 SCS Total Energy          =    -536.1706283713443781 [Eh]
	-----------------------------------------------------------

*** Psi4 exiting successfully. Buy a developer a beer!
