                               Psi4 1.9 release

  ==> Input File <==

--------------------------------------------------------------------------
MEMORY 60 GB

molecule dimer {
0 1
O      0.000000     0.000000     0.000000
H      0.623110     0.727754     0.000000
H      0.614842    -0.773835     0.000000
--
-1 1
Cl     3.070352     0.000000     0.000000

units ang
no_reorient
no_com
symmetry c1
}

set {
basis        aug-cc-pVTZ
scf_type     df
}

energy("mp2", bsse_type="cp")
--------------------------------------------------------------------------

                               Psi4 1.9 release
    Molecular point group: c1
  Charge       = -1
  Multiplicity = 1
  Basis Set: AUG-CC-PVTZ
    Blend: AUG-CC-PVTZ
  Basis Set: (AUG-CC-PVTZ AUX)
    Blend: AUG-CC-PVTZ-JKFIT
  @DF-RHF Final Energy:  -459.57349980640208
    Total Energy =                       -459.5734998064020829
 Dipole X            :       -104.4381756           98.6361146           -5.8020610
 Dipole Y            :          0.0000152            0.0000000            0.0000152
 Dipole Z            :         -0.0000000            0.0000000           -0.0000000
 Magnitude           :                                                    5.8020610
  Basis Set: (AUG-CC-PVTZ AUX)
    Blend: AUG-CC-PVTZ-RI
	 Reference Energy          =    -459.5734998064020829 [Eh]
	 Singles Energy            =      -0.0000000000000000 [Eh]
	 Same-Spin Energy          =      -0.0625269104422232 [Eh]
	 Opposite-Spin Energy      =      -0.1797319890927594 [Eh]
	 Correlation Energy        =      -0.2422588995349827 [Eh]
	 Total Energy              =    -459.8157587059370712 [Eh]
	 SCS Total Energy          =    -459.8100204967941522 [Eh]
                               Psi4 1.9 release
    Molecular point group: c1
  Multiplicity = 1
  Basis Set: AUG-CC-PVTZ
    Blend: AUG-CC-PVTZ
  Basis Set: (AUG-CC-PVTZ AUX)
    Blend: AUG-CC-PVTZ-JKFIT
  @DF-RHF Final Energy:   -76.05822229361013
    Total Energy =                        -76.0582222936101289
  Basis Set: (AUG-CC-PVTZ AUX)
	 Singles Energy            =      -0.0000000000000000 [Eh]
	 Same-Spin Energy          =      -0.0687070322817439 [Eh]
	 Opposite-Spin Energy      =      -0.2163642243907734 [Eh]
	 Correlation Energy        =      -0.2850712566725173 [Eh]
	 Total Energy              =     -76.3432935502826524 [Eh]
	 SCS Total Energy          =     -76.3407617069729696 [Eh]
                               Psi4 1.9 release
    Molecular point group: c1

    Geometry (in Bohr), charge = -1, multiplicity = 1:

       Center              X                  Y                   Z               Mass
    ------------   -----------------  -----------------  -----------------  -----------------
         O            0.000000000000     0.000000000000     0.000000000000    15.994914619570
         H            1.177507246034     1.375255746706     0.000000000000     1.007825032230
         H            1.161882990429    -1.462336216294     0.000000000000     1.007825032230
         CL           5.802124388752     0.000000000000     0.000000000000    34.968852682000

  Charge       = -1
  Multiplicity = 1
  Basis Set: AUG-CC-PVTZ
    Blend: AUG-CC-PVTZ
  Basis Set: (AUG-CC-PVTZ AUX)
    Blend: AUG-CC-PVTZ-JKFIT

    Orbital Energies [Eh]
    ---------------------

    Doubly Occupied:

       1A   -104.526437     2A    -20.382518     3A    -10.250819
       4A     -7.716878     5A     -7.716876     6A     -7.716842
       7A     -1.163087     8A     -0.759225     9A     -0.519258
      10A     -0.412849    11A     -0.327573    12A     -0.175068
      13A     -0.174836    14A     -0.173386

  @DF-RHF Final Energy:  -535.64838604139686

   => Energetics <=

    Nuclear Repulsion Energy =             39.5117693617941157
    One-Electron Energy =                -826.2890075989985235
    Two-Electron Energy =                 251.1288521958075535
    Total Energy =                       -535.6483860413968614
 Dipole X            :       -105.5937076          100.9755048           -4.6182027
 Dipole Y            :          0.0626649           -0.0870805           -0.0244156
 Dipole Z            :          0.0000000            0.0000000            0.0000000
 Magnitude           :                                                    4.6182673
  Basis Set: (AUG-CC-PVTZ AUX)
    Blend: AUG-CC-PVTZ-RI
	 Reference Energy          =    -535.6483860413968614 [Eh]
	 Singles Energy            =      -0.0000000000000000 [Eh]
	 Same-Spin Energy          =      -0.1333735621696608 [Eh]
	 Opposite-Spin Energy      =      -0.3974273449656560 [Eh]
	 Correlation Energy        =      -0.5308009071353168 [Eh]
	 Total Energy              =    -536.1791869485322195 [Eh]

	 ================> DF-SCS-MP2 Energies <==================
	-----------------------------------------------------------
	 SCS Same-Spin Scale       =       0.3333333333333333 [-]
	 SCS Opposite-Spin Scale   =       1.2000000000000000 [-]
	 SCS Same-Spin Energy      =      -0.0444578540565536 [Eh]
	 SCS Opposite-Spin Energy  =      -0.4769128139587872 [Eh]
	 SCS Correlation Energy    =      -0.5213706680153407 [Eh]
	 SCS Total Energy          =    -536.1697567094122405 [Eh]
	-----------------------------------------------------------

*** Psi4 exiting successfully. Buy a developer a beer!
