                               Psi4 1.9 release

  ==> Input File <==

--------------------------------------------------------------------------
MEMORY 60 GB

molecule dimer {
0 1
O      0.000000     0.000000     0.000000
H     -0.318698     0.903506     0.000000
H      0.977582     0.145551     0.000000
--
-1 1
Cl     3.070352     0.000000     0.000000

units ang
no_reorient
no_com
symmetry c1
}

set {
basis        aug-cc-pVTZ
scf_type     df
}

energy("mp2", bsse_type="cp")
--------------------------------------------------------------------------

                               Psi4 1.9 release
    Molecular point group: c1
  Charge       = -1
  Multiplicity = 1
  Basis Set: AUG-CC-PVTZ
    Blend: AUG-CC-PVTZ
  Basis Set: (AUG-CC-PVTZ AUX)
    Blend: AUG-CC-PVTZ-JKFIT
  @DF-RHF Final Energy:  -459.57350866002963
    Total Energy =                       -459.5735086600296313
 Dipole X            :       -104.4389537           98.6361146           -5.8028391
 Dipole Y            :         -0.0001171            0.0000000           -0.0001171
 Dipole Z            :          0.0000000            0.0000000            0.0000000
 Magnitude           :                                                    5.8028391
  Basis Set: (AUG-CC-PVTZ AUX)
    Blend: AUG-CC-PVTZ-RI
	 Reference Energy          =    -459.5735086600296313 [Eh]
	 Singles Energy            =      -0.0000000000000000 [Eh]
	 Same-Spin Energy          =      -0.0626978643356447 [Eh]
	 Opposite-Spin Energy      =      -0.1804460267526138 [Eh]
	 Correlation Energy        =      -0.2431438910882586 [Eh]
	 Total Energy              =    -459.8166525511178975 [Eh]
	 SCS Total Energy          =    -459.8109431802446352 [Eh]
                               Psi4 1.9 release
    Molecular point group: c1
  Multiplicity = 1
  Basis Set: AUG-CC-PVTZ
    Blend: AUG-CC-PVTZ
  Basis Set: (AUG-CC-PVTZ AUX)
    Blend: AUG-CC-PVTZ-JKFIT
  @DF-RHF Final Energy:   -76.05823486420056
    Total Energy =                        -76.0582348642005570
  Basis Set: (AUG-CC-PVTZ AUX)
	 Singles Energy            =      -0.0000000000000000 [Eh]
	 Same-Spin Energy          =      -0.0687325597332079 [Eh]
	 Opposite-Spin Energy      =      -0.2167233539203450 [Eh]
	 Correlation Energy        =      -0.2854559136535528 [Eh]
	 Total Energy              =     -76.3436907778541070 [Eh]
	 SCS Total Energy          =     -76.3412137421493782 [Eh]
                               Psi4 1.9 release
    Molecular point group: c1

    Geometry (in Bohr), charge = -1, multiplicity = 1:

       Center              X                  Y                   Z               Mass
    ------------   -----------------  -----------------  -----------------  -----------------
         O            0.000000000000     0.000000000000     0.000000000000    15.994914619570
         H           -0.602251936731     1.707378892708     0.000000000000     1.007825032230
         H            1.847362245177     0.275051527287     0.000000000000     1.007825032230
         CL           5.802124388752     0.000000000000     0.000000000000    34.968852682000

  Charge       = -1
  Multiplicity = 1
  Basis Set: AUG-CC-PVTZ
    Blend: AUG-CC-PVTZ
  Basis Set: (AUG-CC-PVTZ AUX)
    Blend: AUG-CC-PVTZ-JKFIT

    Orbital Energies [Eh]
    ---------------------

    Doubly Occupied:

       1A   -104.528177     2A    -20.378486     3A    -10.252641
       4A     -7.718739     5A     -7.718670     6A     -7.718669
       7A     -1.161225     8A     -0.763489     9A     -0.516621
      10A     -0.407777    11A     -0.323868    12A     -0.180524
      13A     -0.175565    14A     -0.175263

  @DF-RHF Final Energy:  -535.64877614008856

   => Energetics <=

    Nuclear Repulsion Energy =             39.3471987207559124
    One-Electron Energy =                -825.9525178474345921
    Two-Electron Energy =                 250.9565429865900228
    Total Energy =                       -535.6487761400885574
 Dipole X            :       -104.7169781           99.8812249           -4.8357532
 Dipole Y            :         -1.3895689            1.9824304            0.5928615
 Dipole Z            :          0.0000000            0.0000000            0.0000000
 Magnitude           :                                                    4.8719599
  Basis Set: (AUG-CC-PVTZ AUX)
    Blend: AUG-CC-PVTZ-RI
	 Reference Energy          =    -535.6487761400885574 [Eh]
	 Singles Energy            =      -0.0000000000000000 [Eh]
	 Same-Spin Energy          =      -0.1344098570116520 [Eh]
	 Opposite-Spin Energy      =      -0.3992900184756632 [Eh]
	 Correlation Energy        =      -0.5336998754873152 [Eh]
	 Total Energy              =    -536.1824760155758440 [Eh]

	 ================> DF-SCS-MP2 Energies <==================
	-----------------------------------------------------------
	 SCS Same-Spin Scale       =       0.3333333333333333 [-]
	 SCS Opposite-Spin Scale   =       1.2000000000000000 [-]
	 SCS Same-Spin Energy      =      -0.0448032856705507 [Eh]
	 SCS Opposite-Spin Energy  =      -0.4791480221707958 [Eh]
	 SCS Correlation Energy    =      -0.5239513078413465 [Eh]
	 SCS Total Energy          =    -536.1727274479299012 [Eh]
	-----------------------------------------------------------

*** Psi4 exiting successfully. Buy a developer a beer!
