                               Psi4 1.9 release

  ==> Input File <==

--------------------------------------------------------------------------
MEMORY 60 GB

molecule dimer {
0 1
O      0.000000     0.000000     0.000000
H     -0.727754     0.623110     0.000000
H      0.773835     0.614842     0.000000
--
-1 1
Cl     3.070352     0.000000     0.000000

units ang
no_reorient
no_com
symmetry c1
}

set {
basis        aug-cc-pVTZ
scf_type     df
}

energy("mp2", bsse_type="cp")
--------------------------------------------------------------------------

                               Psi4 1.9 release
    Molecular point group: c1
  Charge       = -1
  Multiplicity = 1
  Basis Set: AUG-CC-PVTZ
    Blend: AUG-CC-PVTZ
  Basis Set: (AUG-CC-PVTZ AUX)
    Blend: AUG-CC-PVTZ-JKFIT
  @DF-RHF Final Energy:  -459.57350227517804
    Total Energy =                       -459.5735022751780434
 Dipole X            :       -104.4383287           98.6361146           -5.8022141
 Dipole Y            :          0.0000890            0.0000000            0.0000890
 Dipole Z            :          0.0000000            0.0000000            0.0000000
 Magnitude           :                                                    5.8022141
  Basis Set: (AUG-CC-PVTZ AUX)
    Blend: AUG-CC-PVTZ-RI
	 Reference Energy          =    -459.5735022751780434 [Eh]
	 Singles Energy            =      -0.0000000000000000 [Eh]
	 Same-Spin Energy          =      -0.0625412014209147 [Eh]
	 Opposite-Spin Energy      =      -0.1797880947030478 [Eh]
	 Correlation Energy        =      -0.2423292961239625 [Eh]
	 Total Energy              =    -459.8158315713019988 [Eh]
	 SCS Total Energy          =    -459.8100950559619946 [Eh]
                               Psi4 1.9 release
    Molecular point group: c1
  Multiplicity = 1
  Basis Set: AUG-CC-PVTZ
    Blend: AUG-CC-PVTZ
  Basis Set: (AUG-CC-PVTZ AUX)
    Blend: AUG-CC-PVTZ-JKFIT
  @DF-RHF Final Energy:   -76.05822250649373
    Total Energy =                        -76.0582225064937347
  Basis Set: (AUG-CC-PVTZ AUX)
	 Singles Energy            =      -0.0000000000000000 [Eh]
	 Same-Spin Energy          =      -0.0687111257217012 [Eh]
	 Opposite-Spin Energy      =      -0.2163891499429857 [Eh]
	 Correlation Energy        =      -0.2851002756646869 [Eh]
	 Total Energy              =     -76.3433227821584239 [Eh]
	 SCS Total Energy          =     -76.3407931949992218 [Eh]
                               Psi4 1.9 release
    Molecular point group: c1

    Geometry (in Bohr), charge = -1, multiplicity = 1:

       Center              X                  Y                   Z               Mass
    ------------   -----------------  -----------------  -----------------  -----------------
         O            0.000000000000     0.000000000000     0.000000000000    15.994914619570
         H           -1.375255746706     1.177507246034     0.000000000000     1.007825032230
         H            1.462336216294     1.161882990429     0.000000000000     1.007825032230
         CL           5.802124388752     0.000000000000     0.000000000000    34.968852682000

  Charge       = -1
  Multiplicity = 1
  Basis Set: AUG-CC-PVTZ
    Blend: AUG-CC-PVTZ
  Basis Set: (AUG-CC-PVTZ AUX)
    Blend: AUG-CC-PVTZ-JKFIT

    Orbital Energies [Eh]
    ---------------------

    Doubly Occupied:

       1A   -104.514488     2A    -20.396851     3A    -10.238683
       4A     -7.704774     5A     -7.704723     6A     -7.704695
       7A     -1.175846     8A     -0.746601     9A     -0.528742
      10A     -0.417745    11A     -0.337907    12A     -0.164572
      13A     -0.160905    14A     -0.160278

  @DF-RHF Final Energy:  -535.63658273648912

   => Energetics <=

    Nuclear Repulsion Energy =             38.6153701943405707
    One-Electron Energy =                -824.5902847315771851
    Two-Electron Energy =                 250.3383318007475111
    Total Energy =                       -535.6365827364891175
 Dipole X            :       -104.1687357           98.7231951           -5.4455406
 Dipole Y            :         -1.6668079            2.3393902            0.6725823
 Dipole Z            :          0.0000000            0.0000000            0.0000000
 Magnitude           :                                                    5.4869190
  Basis Set: (AUG-CC-PVTZ AUX)
    Blend: AUG-CC-PVTZ-RI
	 Reference Energy          =    -535.6365827364891175 [Eh]
	 Singles Energy            =      -0.0000000000000000 [Eh]
	 Same-Spin Energy          =      -0.1336962565420769 [Eh]
	 Opposite-Spin Energy      =      -0.3985195361768160 [Eh]
	 Correlation Energy        =      -0.5322157927188929 [Eh]
	 Total Energy              =    -536.1687985292080612 [Eh]

	 ================> DF-SCS-MP2 Energies <==================
	-----------------------------------------------------------
	 SCS Same-Spin Scale       =       0.3333333333333333 [-]
	 SCS Opposite-Spin Scale   =       1.2000000000000000 [-]
	 SCS Same-Spin Energy      =      -0.0445654188473590 [Eh]
	 SCS Opposite-Spin Energy  =      -0.4782234434121791 [Eh]
	 SCS Correlation Energy    =      -0.5227888622595381 [Eh]
	 SCS Total Energy          =    -536.1593715987486348 [Eh]
	-----------------------------------------------------------

*** Psi4 exiting successfully. Buy a developer a beer!
