                               Psi4 1.9 release

  ==> Input File <==

--------------------------------------------------------------------------
MEMORY 60 GB

molecule dimer {
0 1
O      0.000000     0.000000     0.000000
H      0.413522     0.864229     0.000000
H      0.794175    -0.588334     0.000000
--
-1 1
Cl     3.070352     0.000000     0.000000

units ang
no_reorient
no_com
symmetry c1
}

set {
basis        aug-cc-pVTZ
scf_type     df
}

energy("mp2", bsse_type="cp")
--------------------------------------------------------------------------

                               Psi4 1.9 release
    Molecular point group: c1
  Charge       = -1
  Multiplicity = 1
  Basis Set: AUG-CC-PVTZ
    Blend: AUG-CC-PVTZ
  Basis Set: (AUG-CC-PVTZ AUX)
    Blend: AUG-CC-PVTZ-JKFIT
  @DF-RHF Final Energy:  -459.57350231688838
    Total Energy =                       -459.5735023168883799
 Dipole X            :       -104.4383595           98.6361146           -5.8022449
 Dipole Y            :         -0.0000733            0.0000000           -0.0000733
 Dipole Z            :         -0.0000000            0.0000000           -0.0000000
 Magnitude           :                                                    5.8022449
  Basis Set: (AUG-CC-PVTZ AUX)
    Blend: AUG-CC-PVTZ-RI
	 Reference Energy          =    -459.5735023168883799 [Eh]
	 Singles Energy            =      -0.0000000000000000 [Eh]
	 Same-Spin Energy          =      -0.0625511428031858 [Eh]
	 Opposite-Spin Energy      =      -0.1798455384941955 [Eh]
	 Correlation Energy        =      -0.2423966812973813 [Eh]
	 Total Energy              =    -459.8158989981857871 [Eh]
	 SCS Total Energy          =    -459.8101673440158379 [Eh]
                               Psi4 1.9 release
    Molecular point group: c1
  Multiplicity = 1
  Basis Set: AUG-CC-PVTZ
    Blend: AUG-CC-PVTZ
  Basis Set: (AUG-CC-PVTZ AUX)
    Blend: AUG-CC-PVTZ-JKFIT
  @DF-RHF Final Energy:   -76.05822405752149
    Total Energy =                        -76.0582240575214854
  Basis Set: (AUG-CC-PVTZ AUX)
	 Singles Energy            =      -0.0000000000000000 [Eh]
	 Same-Spin Energy          =      -0.0687102691795737 [Eh]
	 Opposite-Spin Energy      =      -0.2164225122407241 [Eh]
	 Correlation Energy        =      -0.2851327814202978 [Eh]
	 Total Energy              =     -76.3433568389417871 [Eh]
	 SCS Total Energy          =     -76.3408344952702151 [Eh]
                               Psi4 1.9 release
    Molecular point group: c1

    Geometry (in Bohr), charge = -1, multiplicity = 1:

       Center              X                  Y                   Z               Mass
    ------------   -----------------  -----------------  -----------------  -----------------
         O            0.000000000000     0.000000000000     0.000000000000    15.994914619570
         H            0.781443326852     1.633156119678     0.000000000000     1.007825032230
         H            1.500773245685    -1.111790130295     0.000000000000     1.007825032230
         CL           5.802124388752     0.000000000000     0.000000000000    34.968852682000

  Charge       = -1
  Multiplicity = 1
  Basis Set: AUG-CC-PVTZ
    Blend: AUG-CC-PVTZ
  Basis Set: (AUG-CC-PVTZ AUX)
    Blend: AUG-CC-PVTZ-JKFIT

    Orbital Energies [Eh]
    ---------------------

    Doubly Occupied:

       1A   -104.527670     2A    -20.380441     3A    -10.252084
       4A     -7.718156     5A     -7.718127     6A     -7.718105
       7A     -1.161725     8A     -0.760943     9A     -0.517884
      10A     -0.411494    11A     -0.325910    12A     -0.177162
      13A     -0.175576    14A     -0.174660

  @DF-RHF Final Energy:  -535.64919914313111

   => Energetics <=

    Nuclear Repulsion Energy =             39.5405062977015120
    One-Electron Energy =                -826.3395379139516308
    Two-Electron Energy =                 251.1498324731190337
    Total Energy =                       -535.6491991431309998
 Dipole X            :       -105.5200609          100.9183312           -4.6017297
 Dipole Y            :         -0.3396686            0.5213660            0.1816973
 Dipole Z            :         -0.0000000            0.0000000           -0.0000000
 Magnitude           :                                                    4.6053155
  Basis Set: (AUG-CC-PVTZ AUX)
    Blend: AUG-CC-PVTZ-RI
	 Reference Energy          =    -535.6491991431311135 [Eh]
	 Singles Energy            =      -0.0000000000000000 [Eh]
	 Same-Spin Energy          =      -0.1335645715875774 [Eh]
	 Opposite-Spin Energy      =      -0.3976901172614586 [Eh]
	 Correlation Energy        =      -0.5312546888490359 [Eh]
	 Total Energy              =    -536.1804538319801168 [Eh]

	 ================> DF-SCS-MP2 Energies <==================
	-----------------------------------------------------------
	 SCS Same-Spin Scale       =       0.3333333333333333 [-]
	 SCS Opposite-Spin Scale   =       1.2000000000000000 [-]
	 SCS Same-Spin Energy      =      -0.0445215238625258 [Eh]
	 SCS Opposite-Spin Energy  =      -0.4772281407137503 [Eh]
	 SCS Correlation Energy    =      -0.5217496645762761 [Eh]
	 SCS Total Energy          =    -536.1709488077074184 [Eh]
	-----------------------------------------------------------

*** Psi4 exiting successfully. Buy a developer a beer!
