                               Psi4 1.9 release

  ==> Input File <==

--------------------------------------------------------------------------
MEMORY 60 GB

molecule dimer {
0 1
O      0.000000     0.000000     0.000000
H      0.175753     0.941808     0.000000
H      0.919386    -0.362740     0.000000
--
-1 1
Cl     3.070352     0.000000     0.000000

units ang
no_reorient
no_com
symmetry c1
}

set {
basis        aug-cc-pVTZ
scf_type     df
}

energy("mp2", bsse_type="cp")
--------------------------------------------------------------------------

                               Psi4 1.9 release
    Molecular point group: c1
  Charge       = -1
  Multiplicity = 1
  Basis Set: AUG-CC-PVTZ
    Blend: AUG-CC-PVTZ
  Basis Set: (AUG-CC-PVTZ AUX)
    Blend: AUG-CC-PVTZ-JKFIT
  @DF-RHF Final Energy:  -459.57350615221634
    Total Energy =                       -459.5735061522163960
 Dipole X            :       -104.4387345           98.6361146           -5.8026199
 Dipole Y            :         -0.0000972            0.0000000           -0.0000972
 Dipole Z            :          0.0000000            0.0000000            0.0000000
 Magnitude           :                                                    5.8026199
  Basis Set: (AUG-CC-PVTZ AUX)
    Blend: AUG-CC-PVTZ-RI
	 Reference Energy          =    -459.5735061522163392 [Eh]
	 Singles Energy            =      -0.0000000000000000 [Eh]
	 Same-Spin Energy          =      -0.0626137320726440 [Eh]
	 Opposite-Spin Energy      =      -0.1801197190412198 [Eh]
	 Correlation Energy        =      -0.2427334511138638 [Eh]
	 Total Energy              =    -459.8162396033301889 [Eh]
	 SCS Total Energy          =    -459.8105210590900356 [Eh]
                               Psi4 1.9 release
    Molecular point group: c1
  Multiplicity = 1
  Basis Set: AUG-CC-PVTZ
    Blend: AUG-CC-PVTZ
  Basis Set: (AUG-CC-PVTZ AUX)
    Blend: AUG-CC-PVTZ-JKFIT
  @DF-RHF Final Energy:   -76.05822964296860
    Total Energy =                        -76.0582296429685982
  Basis Set: (AUG-CC-PVTZ AUX)
	 Singles Energy            =      -0.0000000000000000 [Eh]
	 Same-Spin Energy          =      -0.0687209917473466 [Eh]
	 Opposite-Spin Energy      =      -0.2166001304704769 [Eh]
	 Correlation Energy        =      -0.2853211222178235 [Eh]
	 Total Energy              =     -76.3435507651864214 [Eh]
	 SCS Total Energy          =     -76.3410567967822828 [Eh]
                               Psi4 1.9 release
    Molecular point group: c1

    Geometry (in Bohr), charge = -1, multiplicity = 1:

       Center              X                  Y                   Z               Mass
    ------------   -----------------  -----------------  -----------------  -----------------
         O            0.000000000000     0.000000000000     0.000000000000    15.994914619570
         H            0.332125035728     1.779759182765     0.000000000000     1.007825032230
         H            1.737387743580    -0.685479254749     0.000000000000     1.007825032230
         CL           5.802124388752     0.000000000000     0.000000000000    34.968852682000

  Charge       = -1
  Multiplicity = 1
  Basis Set: AUG-CC-PVTZ
    Blend: AUG-CC-PVTZ
  Basis Set: (AUG-CC-PVTZ AUX)
    Blend: AUG-CC-PVTZ-JKFIT

    Orbital Energies [Eh]
    ---------------------

    Doubly Occupied:

       1A   -104.529831     2A    -20.376820     3A    -10.254317
       4A     -7.720400     5A     -7.720354     6A     -7.720337
       7A     -1.159309     8A     -0.764331     9A     -0.515564
      10A     -0.408771    11A     -0.322945    12A     -0.180667
      13A     -0.177607    14A     -0.176957

  @DF-RHF Final Energy:  -535.65066620778748

   => Energetics <=

    Nuclear Repulsion Energy =             39.5735345551284681
    One-Electron Energy =                -826.3919849218963236
    Two-Electron Energy =                 251.1677841589803677
    Total Energy =                       -535.6506662077874807
 Dipole X            :       -105.3035205          100.7056274           -4.5978931
 Dipole Y            :         -0.7321713            1.0942799            0.3621086
 Dipole Z            :          0.0000000            0.0000000            0.0000000
 Magnitude           :                                                    4.6121301
  Basis Set: (AUG-CC-PVTZ AUX)
    Blend: AUG-CC-PVTZ-RI
	 Reference Energy          =    -535.6506662077874807 [Eh]
	 Singles Energy            =      -0.0000000000000000 [Eh]
	 Same-Spin Energy          =      -0.1339687933332081 [Eh]
	 Opposite-Spin Energy      =      -0.3983555271691268 [Eh]
	 Correlation Energy        =      -0.5323243205023348 [Eh]
	 Total Energy              =    -536.1829905282897926 [Eh]

	 ================> DF-SCS-MP2 Energies <==================
	-----------------------------------------------------------
	 SCS Same-Spin Scale       =       0.3333333333333333 [-]
	 SCS Opposite-Spin Scale   =       1.2000000000000000 [-]
	 SCS Same-Spin Energy      =      -0.0446562644444027 [Eh]
	 SCS Opposite-Spin Energy  =      -0.4780266326029521 [Eh]
	 SCS Correlation Energy    =      -0.5226828970473548 [Eh]
	 SCS Total Energy          =    -536.1733491048348696 [Eh]
	-----------------------------------------------------------

*** Psi4 exiting successfully. Buy a developer a beer!
