                               Psi4 1.9 release

  ==> Input File <==

--------------------------------------------------------------------------
MEMORY 60 GB

molecule dimer {
0 1
O      0.000000     0.000000     0.000000
H     -0.541683     0.790235     0.000000
H      0.906600     0.393609     0.000000
--
-1 1
Cl     3.070352     0.000000     0.000000

units ang
no_reorient
no_com
symmetry c1
}

set {
basis        aug-cc-pVTZ
scf_type     df
}

energy("mp2", bsse_type="cp")
--------------------------------------------------------------------------

                               Psi4 1.9 release
    Molecular point group: c1
  Charge       = -1
  Multiplicity = 1
  Basis Set: AUG-CC-PVTZ
    Blend: AUG-CC-PVTZ
  Basis Set: (AUG-CC-PVTZ AUX)
    Blend: AUG-CC-PVTZ-JKFIT
  @DF-RHF Final Energy:  -459.57350659035558
    Total Energy =                       -459.5735065903555778
 Dipole X            :       -104.4387362           98.6361146           -5.8026216
 Dipole Y            :          0.0000512            0.0000000            0.0000512
 Dipole Z            :          0.0000000            0.0000000            0.0000000
 Magnitude           :                                                    5.8026216
  Basis Set: (AUG-CC-PVTZ AUX)
    Blend: AUG-CC-PVTZ-RI
	 Reference Energy          =    -459.5735065903555778 [Eh]
	 Singles Energy            =      -0.0000000000000000 [Eh]
	 Same-Spin Energy          =      -0.0626407595743293 [Eh]
	 Opposite-Spin Energy      =      -0.1802222626122734 [Eh]
	 Correlation Energy        =      -0.2428630221866027 [Eh]
	 Total Energy              =    -459.8163696125421893 [Eh]
	 SCS Total Energy          =    -459.8106535586817358 [Eh]
                               Psi4 1.9 release
    Molecular point group: c1
  Multiplicity = 1
  Basis Set: AUG-CC-PVTZ
    Blend: AUG-CC-PVTZ
  Basis Set: (AUG-CC-PVTZ AUX)
    Blend: AUG-CC-PVTZ-JKFIT
  @DF-RHF Final Energy:   -76.05822719697917
    Total Energy =                        -76.0582271969791748
  Basis Set: (AUG-CC-PVTZ AUX)
	 Singles Energy            =      -0.0000000000000000 [Eh]
	 Same-Spin Energy          =      -0.0687212906883105 [Eh]
	 Opposite-Spin Energy      =      -0.2165115963993471 [Eh]
	 Correlation Energy        =      -0.2852328870876576 [Eh]
	 Total Energy              =     -76.3434600840668338 [Eh]
	 SCS Total Energy          =     -76.3409482095544973 [Eh]
                               Psi4 1.9 release
    Molecular point group: c1

    Geometry (in Bohr), charge = -1, multiplicity = 1:

       Center              X                  Y                   Z               Mass
    ------------   -----------------  -----------------  -----------------  -----------------
         O            0.000000000000     0.000000000000     0.000000000000    15.994914619570
         H           -1.023632516816     1.493327724751     0.000000000000     1.007825032230
         H            1.713225705340     0.743813210515     0.000000000000     1.007825032230
         CL           5.802124388752     0.000000000000     0.000000000000    34.968852682000

  Charge       = -1
  Multiplicity = 1
  Basis Set: AUG-CC-PVTZ
    Blend: AUG-CC-PVTZ
  Basis Set: (AUG-CC-PVTZ AUX)
    Blend: AUG-CC-PVTZ-JKFIT

    Orbital Energies [Eh]
    ---------------------

    Doubly Occupied:

       1A   -104.522278     2A    -20.386685     3A    -10.246616
       4A     -7.712713     5A     -7.712652     6A     -7.712640
       7A     -1.167757     8A     -0.756136     9A     -0.521861
      10A     -0.411962    11A     -0.330111    12A     -0.173855
      13A     -0.169051    14A     -0.168879

  @DF-RHF Final Energy:  -535.64358400277661

   => Energetics <=

    Nuclear Repulsion Energy =             39.0175787416480375
    One-Electron Energy =                -825.3359342037863371
    Two-Electron Energy =                 250.6747714593616365
    Total Energy =                       -535.6435840027766062
 Dipole X            :       -104.4410863           99.3257078           -5.1153785
 Dipole Y            :         -1.5872218            2.2371409            0.6499191
 Dipole Z            :         -0.0000000            0.0000000           -0.0000000
 Magnitude           :                                                    5.1565000
  Basis Set: (AUG-CC-PVTZ AUX)
    Blend: AUG-CC-PVTZ-RI
	 Reference Energy          =    -535.6435840027766062 [Eh]
	 Singles Energy            =      -0.0000000000000000 [Eh]
	 Same-Spin Energy          =      -0.1341453495289140 [Eh]
	 Opposite-Spin Energy      =      -0.3990111797137386 [Eh]
	 Correlation Energy        =      -0.5331565292426526 [Eh]
	 Total Energy              =    -536.1767405320192665 [Eh]

	 ================> DF-SCS-MP2 Energies <==================
	-----------------------------------------------------------
	 SCS Same-Spin Scale       =       0.3333333333333333 [-]
	 SCS Opposite-Spin Scale   =       1.2000000000000000 [-]
	 SCS Same-Spin Energy      =      -0.0447151165096380 [Eh]
	 SCS Opposite-Spin Energy  =      -0.4788134156564863 [Eh]
	 SCS Correlation Energy    =      -0.5235285321661243 [Eh]
	 SCS Total Energy          =    -536.1671125349427030 [Eh]
	-----------------------------------------------------------

*** Psi4 exiting successfully. Buy a developer a beer!
