                               Psi4 1.9 release

  ==> Input File <==

--------------------------------------------------------------------------
MEMORY 60 GB

molecule dimer {
0 1
O      0.000000     0.000000     0.000000
H     -0.864229     0.413522     0.000000
H      0.588334     0.794175     0.000000
--
-1 1
Cl     3.070352     0.000000     0.000000

units ang
no_reorient
no_com
symmetry c1
}

set {
basis        aug-cc-pVTZ
scf_type     df
}

energy("mp2", bsse_type="cp")
--------------------------------------------------------------------------

                               Psi4 1.9 release
    Molecular point group: c1
  Charge       = -1
  Multiplicity = 1
  Basis Set: AUG-CC-PVTZ
    Blend: AUG-CC-PVTZ
  Basis Set: (AUG-CC-PVTZ AUX)
    Blend: AUG-CC-PVTZ-JKFIT
  @DF-RHF Final Energy:  -459.57349679641544
    Total Energy =                       -459.5734967964153839
 Dipole X            :       -104.4380431           98.6361146           -5.8019285
 Dipole Y            :          0.0000603            0.0000000            0.0000603
 Dipole Z            :         -0.0000000            0.0000000           -0.0000000
 Magnitude           :                                                    5.8019285
  Basis Set: (AUG-CC-PVTZ AUX)
    Blend: AUG-CC-PVTZ-RI
	 Reference Energy          =    -459.5734967964154407 [Eh]
	 Singles Energy            =      -0.0000000000000000 [Eh]
	 Same-Spin Energy          =      -0.0624654921498745 [Eh]
	 Opposite-Spin Energy      =      -0.1794354743516477 [Eh]
	 Correlation Energy        =      -0.2419009665015222 [Eh]
	 Total Energy              =    -459.8153977629169731 [Eh]
	 SCS Total Energy          =    -459.8096411963540504 [Eh]
                               Psi4 1.9 release
    Molecular point group: c1
  Multiplicity = 1
  Basis Set: AUG-CC-PVTZ
    Blend: AUG-CC-PVTZ
  Basis Set: (AUG-CC-PVTZ AUX)
    Blend: AUG-CC-PVTZ-JKFIT
  @DF-RHF Final Energy:   -76.05822360928656
    Total Energy =                        -76.0582236092865571
  Basis Set: (AUG-CC-PVTZ AUX)
	 Singles Energy            =      -0.0000000000000000 [Eh]
	 Same-Spin Energy          =      -0.0687078886060165 [Eh]
	 Opposite-Spin Energy      =      -0.2163575171742350 [Eh]
	 Correlation Energy        =      -0.2850654057802514 [Eh]
	 Total Energy              =     -76.3432890150668015 [Eh]
	 SCS Total Energy          =     -76.3407552594309777 [Eh]
                               Psi4 1.9 release
    Molecular point group: c1

    Geometry (in Bohr), charge = -1, multiplicity = 1:

       Center              X                  Y                   Z               Mass
    ------------   -----------------  -----------------  -----------------  -----------------
         O            0.000000000000     0.000000000000     0.000000000000    15.994914619570
         H           -1.633156119678     0.781443326852     0.000000000000     1.007825032230
         H            1.111790130295     1.500773245685     0.000000000000     1.007825032230
         CL           5.802124388752     0.000000000000     0.000000000000    34.968852682000

  Charge       = -1
  Multiplicity = 1
  Basis Set: AUG-CC-PVTZ
    Blend: AUG-CC-PVTZ
  Basis Set: (AUG-CC-PVTZ AUX)
    Blend: AUG-CC-PVTZ-JKFIT

    Orbital Energies [Eh]
    ---------------------

    Doubly Occupied:

       1A   -104.506702     2A    -20.405964     3A    -10.230790
       4A     -7.696871     5A     -7.696831     6A     -7.696789
       7A     -1.183257     8A     -0.737479     9A     -0.535528
      10A     -0.423031    11A     -0.344914    12A     -0.155286
      13A     -0.152849    14A     -0.151815

  @DF-RHF Final Energy:  -535.62930922756573

   => Energetics <=

    Nuclear Repulsion Energy =             38.2200286283388166
    One-Electron Energy =                -823.8624664246493694
    Two-Electron Energy =                 250.0131285687448326
    Total Energy =                       -535.6293092275657273
 Dipole X            :       -103.8816259           98.1147486           -5.7668773
 Dipole Y            :         -1.6257329            2.2822166            0.6564836
 Dipole Z            :         -0.0000000            0.0000000           -0.0000000
 Magnitude           :                                                    5.8041230
  Basis Set: (AUG-CC-PVTZ AUX)
    Blend: AUG-CC-PVTZ-RI
	 Reference Energy          =    -535.6293092275657273 [Eh]
	 Singles Energy            =      -0.0000000000000000 [Eh]
	 Same-Spin Energy          =      -0.1332961916059332 [Eh]
	 Opposite-Spin Energy      =      -0.3981571387514014 [Eh]
	 Correlation Energy        =      -0.5314533303573346 [Eh]
	 Total Energy              =    -536.1607625579230216 [Eh]

	 ================> DF-SCS-MP2 Energies <==================
	-----------------------------------------------------------
	 SCS Same-Spin Scale       =       0.3333333333333333 [-]
	 SCS Opposite-Spin Scale   =       1.2000000000000000 [-]
	 SCS Same-Spin Energy      =      -0.0444320638686444 [Eh]
	 SCS Opposite-Spin Energy  =      -0.4777885665016816 [Eh]
	 SCS Correlation Energy    =      -0.5222206303703260 [Eh]
	 SCS Total Energy          =    -536.1515298579359978 [Eh]
	-----------------------------------------------------------

*** Psi4 exiting successfully. Buy a developer a beer!
