                               Psi4 1.9 release

  ==> Input File <==

--------------------------------------------------------------------------
MEMORY 60 GB

molecule dimer {
0 1
O      0.000000     0.000000     0.000000
H      0.788345     0.544891     0.000000
H      0.394244    -0.902246     0.000000
--
-1 1
Br     3.212066     0.000000     0.000000

units ang
no_reorient
no_com
symmetry c1
}

set {
basis        aug-cc-pVTZ
scf_type     df
}

energy("mp2", bsse_type="cp")
--------------------------------------------------------------------------

                               Psi4 1.9 release
    Molecular point group: c1
  Charge       = -1
  Multiplicity = 1
  Basis Set: AUG-CC-PVTZ
    Blend: AUG-CC-PVTZ
  Basis Set: (AUG-CC-PVTZ AUX)
    Blend: AUG-CC-PVTZ-JKFIT
  @DF-RHF Final Energy: -2572.53368083420537
    Total Energy =                      -2572.5336808342053700
 Dipole X            :       -218.5174468          212.4473763           -6.0700705
 Dipole Y            :          0.0000544            0.0000000            0.0000544
 Dipole Z            :          0.0000000            0.0000000            0.0000000
 Magnitude           :                                                    6.0700705
  Basis Set: (AUG-CC-PVTZ AUX)
    Blend: AUG-CC-PVTZ-RI
	 Reference Energy          =   -2572.5336808342053700 [Eh]
	 Singles Energy            =      -0.0000000000000000 [Eh]
	 Same-Spin Energy          =      -0.0876675908806169 [Eh]
	 Opposite-Spin Energy      =      -0.2035094708791000 [Eh]
	 Correlation Energy        =      -0.2911770617597169 [Eh]
	 Total Energy              =   -2572.8248578959651240 [Eh]
	 SCS Total Energy          =   -2572.8071147295536321 [Eh]
                               Psi4 1.9 release
    Molecular point group: c1
  Multiplicity = 1
  Basis Set: AUG-CC-PVTZ
    Blend: AUG-CC-PVTZ
  Basis Set: (AUG-CC-PVTZ AUX)
    Blend: AUG-CC-PVTZ-JKFIT
  @DF-RHF Final Energy:   -76.05854244052564
    Total Energy =                        -76.0585424405256560
  Basis Set: (AUG-CC-PVTZ AUX)
	 Singles Energy            =      -0.0000000000000000 [Eh]
	 Same-Spin Energy          =      -0.0686790796996925 [Eh]
	 Opposite-Spin Energy      =      -0.2163301854405266 [Eh]
	 Correlation Energy        =      -0.2850092651402191 [Eh]
	 Total Energy              =     -76.3435517056658597 [Eh]
	 SCS Total Energy          =     -76.3410316896208343 [Eh]
                               Psi4 1.9 release
    Molecular point group: c1

    Geometry (in Bohr), charge = -1, multiplicity = 1:

       Center              X                  Y                   Z               Mass
    ------------   -----------------  -----------------  -----------------  -----------------
         O            0.000000000000     0.000000000000     0.000000000000    15.994914619570
         H            1.489756142374     1.029694758227     0.000000000000     1.007825032230
         H            0.745013186605    -1.704997837790     0.000000000000     1.007825032230
         BR           6.069925036895     0.000000000000     0.000000000000    78.918337600000

  Charge       = -1
  Multiplicity = 1
  Basis Set: AUG-CC-PVTZ
    Blend: AUG-CC-PVTZ
  Basis Set: (AUG-CC-PVTZ AUX)
    Blend: AUG-CC-PVTZ-JKFIT

    Orbital Energies [Eh]
    ---------------------

    Doubly Occupied:

       1A   -489.739271     2A    -64.879546     3A    -58.234037
       4A    -58.234013     5A    -58.233992     6A    -20.390004
       7A     -9.552039     8A     -7.159521     9A     -7.159417
      10A     -7.159368    11A     -2.901184    12A     -2.901131
      13A     -2.901119    14A     -2.900948    15A     -2.900947
      16A     -1.171802    17A     -0.709541    18A     -0.528035
      19A     -0.420057    20A     -0.335166    21A     -0.162859
      22A     -0.160766    23A     -0.159725

  @DF-RHF Final Energy: -2648.60655291030889

   => Energetics <=

    Nuclear Repulsion Energy =             68.9143089147585215
    One-Electron Energy =               -3837.2527474405010253
    Two-Electron Energy =                1119.7318856154333844
    Total Energy =                      -2648.6065529103088920
 Dipole X            :       -219.5895063          214.6821456           -4.9073607
 Dipole Y            :          0.4518348           -0.6753031           -0.2234682
 Dipole Z            :         -0.0000000            0.0000000           -0.0000000
 Magnitude           :                                                    4.9124461
  Basis Set: (AUG-CC-PVTZ AUX)
    Blend: AUG-CC-PVTZ-RI
	 Reference Energy          =   -2648.6065529103088920 [Eh]
	 Singles Energy            =      -0.0000000000000000 [Eh]
	 Same-Spin Energy          =      -0.1587700480010431 [Eh]
	 Opposite-Spin Energy      =      -0.4215469911179994 [Eh]
	 Correlation Energy        =      -0.5803170391190425 [Eh]
	 Total Energy              =   -2649.1868699494280008 [Eh]

	 ================> DF-SCS-MP2 Energies <==================
	-----------------------------------------------------------
	 SCS Same-Spin Scale       =       0.3333333333333333 [-]
	 SCS Opposite-Spin Scale   =       1.2000000000000000 [-]
	 SCS Same-Spin Energy      =      -0.0529233493336810 [Eh]
	 SCS Opposite-Spin Energy  =      -0.5058563893415993 [Eh]
	 SCS Correlation Energy    =      -0.5587797386752803 [Eh]
	 SCS Total Energy          =   -2649.1653326489840765 [Eh]
	-----------------------------------------------------------

*** Psi4 exiting successfully. Buy a developer a beer!
