                               Psi4 1.9 release

  ==> Input File <==

--------------------------------------------------------------------------
MEMORY 60 GB

molecule dimer {
0 1
O      0.000000     0.000000     0.000000
H      0.410281     0.866062     0.000000
H      0.792548    -0.584246     0.000000
--
-1 1
Br     3.212066     0.000000     0.000000

units ang
no_reorient
no_com
symmetry c1
}

set {
basis        aug-cc-pVTZ
scf_type     df
}

energy("mp2", bsse_type="cp")
--------------------------------------------------------------------------

                               Psi4 1.9 release
    Molecular point group: c1
  Charge       = -1
  Multiplicity = 1
  Basis Set: AUG-CC-PVTZ
    Blend: AUG-CC-PVTZ
  Basis Set: (AUG-CC-PVTZ AUX)
    Blend: AUG-CC-PVTZ-JKFIT
  @DF-RHF Final Energy: -2572.53368078192307
    Total Energy =                      -2572.5336807819230671
 Dipole X            :       -218.5174492          212.4473763           -6.0700729
 Dipole Y            :         -0.0000493            0.0000000           -0.0000493
 Dipole Z            :          0.0000000            0.0000000            0.0000000
 Magnitude           :                                                    6.0700729
  Basis Set: (AUG-CC-PVTZ AUX)
    Blend: AUG-CC-PVTZ-RI
	 Reference Energy          =   -2572.5336807819230671 [Eh]
	 Singles Energy            =      -0.0000000000000000 [Eh]
	 Same-Spin Energy          =      -0.0876557335780237 [Eh]
	 Opposite-Spin Energy      =      -0.2034820622176451 [Eh]
	 Correlation Energy        =      -0.2911377957956688 [Eh]
	 Total Energy              =   -2572.8248185777188155 [Eh]
	 SCS Total Energy          =   -2572.8070778344435894 [Eh]
                               Psi4 1.9 release
    Molecular point group: c1
  Multiplicity = 1
  Basis Set: AUG-CC-PVTZ
    Blend: AUG-CC-PVTZ
  Basis Set: (AUG-CC-PVTZ AUX)
    Blend: AUG-CC-PVTZ-JKFIT
  @DF-RHF Final Energy:   -76.05854111752801
    Total Energy =                        -76.0585411175280228
  Basis Set: (AUG-CC-PVTZ AUX)
	 Singles Energy            =      -0.0000000000000000 [Eh]
	 Same-Spin Energy          =      -0.0686781167971596 [Eh]
	 Opposite-Spin Energy      =      -0.2163132177501071 [Eh]
	 Correlation Energy        =      -0.2849913345472667 [Eh]
	 Total Energy              =     -76.3435324520752800 [Eh]
	 SCS Total Energy          =     -76.3410096844271919 [Eh]
                               Psi4 1.9 release
    Molecular point group: c1

    Geometry (in Bohr), charge = -1, multiplicity = 1:

       Center              X                  Y                   Z               Mass
    ------------   -----------------  -----------------  -----------------  -----------------
         O            0.000000000000     0.000000000000     0.000000000000    15.994914619570
         H            0.775318724479     1.636619987666     0.000000000000     1.007825032230
         H            1.497698661279    -1.104064929894     0.000000000000     1.007825032230
         BR           6.069925036895     0.000000000000     0.000000000000    78.918337600000

  Charge       = -1
  Multiplicity = 1
  Basis Set: AUG-CC-PVTZ
    Blend: AUG-CC-PVTZ
  Basis Set: (AUG-CC-PVTZ AUX)
    Blend: AUG-CC-PVTZ-JKFIT

    Orbital Energies [Eh]
    ---------------------

    Doubly Occupied:

       1A   -489.739750     2A    -64.880026     3A    -58.234518
       4A    -58.234492     5A    -58.234471     6A    -20.388939
       7A     -9.552522     8A     -7.160013     9A     -7.159892
      10A     -7.159845    11A     -2.901676    12A     -2.901618
      13A     -2.901606    14A     -2.901416    15A     -2.901416
      16A     -1.171177    17A     -0.710023    18A     -0.527277
      19A     -0.419562    20A     -0.334347    21A     -0.163171
      22A     -0.161232    23A     -0.160173

  @DF-RHF Final Energy: -2648.60683079931823

   => Energetics <=

    Nuclear Repulsion Energy =             68.9556429965939230
    One-Electron Energy =               -3837.3266208106215345
    Two-Electron Energy =                1119.7641470147093514
    Total Energy =                      -2648.6068307993182316
 Dipole X            :       -219.6061024          214.7203937           -4.8857088
 Dipole Y            :         -0.3460254            0.5325551            0.1865296
 Dipole Z            :          0.0000000            0.0000000            0.0000000
 Magnitude           :                                                    4.8892682
  Basis Set: (AUG-CC-PVTZ AUX)
    Blend: AUG-CC-PVTZ-RI
	 Reference Energy          =   -2648.6068307993182316 [Eh]
	 Singles Energy            =      -0.0000000000000000 [Eh]
	 Same-Spin Energy          =      -0.1588144553990707 [Eh]
	 Opposite-Spin Energy      =      -0.4215168416597947 [Eh]
	 Correlation Energy        =      -0.5803312970588654 [Eh]
	 Total Energy              =   -2649.1871620963770511 [Eh]

	 ================> DF-SCS-MP2 Energies <==================
	-----------------------------------------------------------
	 SCS Same-Spin Scale       =       0.3333333333333333 [-]
	 SCS Opposite-Spin Scale   =       1.2000000000000000 [-]
	 SCS Same-Spin Energy      =      -0.0529381517996902 [Eh]
	 SCS Opposite-Spin Energy  =      -0.5058202099917537 [Eh]
	 SCS Correlation Energy    =      -0.5587583617914439 [Eh]
	 SCS Total Energy          =   -2649.1655891611098923 [Eh]
	-----------------------------------------------------------

*** Psi4 exiting successfully. Buy a developer a beer!
