                               Psi4 1.9 release

  ==> Input File <==

--------------------------------------------------------------------------
MEMORY 60 GB

molecule dimer {
0 1
O      0.000000     0.000000     0.000000
H     -0.544891     0.788345     0.000000
H      0.902246     0.394244     0.000000
--
-1 1
Br     3.212066     0.000000     0.000000

units ang
no_reorient
no_com
symmetry c1
}

set {
basis        aug-cc-pVTZ
scf_type     df
}

energy("mp2", bsse_type="cp")
--------------------------------------------------------------------------

                               Psi4 1.9 release
    Molecular point group: c1
  Charge       = -1
  Multiplicity = 1
  Basis Set: AUG-CC-PVTZ
    Blend: AUG-CC-PVTZ
  Basis Set: (AUG-CC-PVTZ AUX)
    Blend: AUG-CC-PVTZ-JKFIT
  @DF-RHF Final Energy: -2572.53368316181422
    Total Energy =                      -2572.5336831618142241
 Dipole X            :       -218.5174683          212.4473763           -6.0700920
 Dipole Y            :          0.0000159            0.0000000            0.0000159
 Dipole Z            :          0.0000000            0.0000000            0.0000000
 Magnitude           :                                                    6.0700920
  Basis Set: (AUG-CC-PVTZ AUX)
    Blend: AUG-CC-PVTZ-RI
	 Reference Energy          =   -2572.5336831618142241 [Eh]
	 Singles Energy            =      -0.0000000000000000 [Eh]
	 Same-Spin Energy          =      -0.0880211813836789 [Eh]
	 Opposite-Spin Energy      =      -0.2043839958607710 [Eh]
	 Correlation Energy        =      -0.2924051772444499 [Eh]
	 Total Energy              =   -2572.8260883390585150 [Eh]
	 SCS Total Energy          =   -2572.8082843506417703 [Eh]
                               Psi4 1.9 release
    Molecular point group: c1
  Multiplicity = 1
  Basis Set: AUG-CC-PVTZ
    Blend: AUG-CC-PVTZ
  Basis Set: (AUG-CC-PVTZ AUX)
    Blend: AUG-CC-PVTZ-JKFIT
  @DF-RHF Final Energy:   -76.05854382425871
    Total Energy =                        -76.0585438242587202
  Basis Set: (AUG-CC-PVTZ AUX)
	 Singles Energy            =      -0.0000000000000000 [Eh]
	 Same-Spin Energy          =      -0.0686882818218315 [Eh]
	 Opposite-Spin Energy      =      -0.2163929495708296 [Eh]
	 Correlation Energy        =      -0.2850812313926611 [Eh]
	 Total Energy              =     -76.3436250556513727 [Eh]
	 SCS Total Energy          =     -76.3411114576843062 [Eh]
                               Psi4 1.9 release
    Molecular point group: c1

    Geometry (in Bohr), charge = -1, multiplicity = 1:

       Center              X                  Y                   Z               Mass
    ------------   -----------------  -----------------  -----------------  -----------------
         O            0.000000000000     0.000000000000     0.000000000000    15.994914619570
         H           -1.029694758227     1.489756142374     0.000000000000     1.007825032230
         H            1.704997837790     0.745013186605     0.000000000000     1.007825032230
         BR           6.069925036895     0.000000000000     0.000000000000    78.918337600000

  Charge       = -1
  Multiplicity = 1
  Basis Set: AUG-CC-PVTZ
    Blend: AUG-CC-PVTZ
  Basis Set: (AUG-CC-PVTZ AUX)
    Blend: AUG-CC-PVTZ-JKFIT

    Orbital Energies [Eh]
    ---------------------

    Doubly Occupied:

       1A   -489.734115     2A    -64.874337     3A    -58.228845
       4A    -58.228814     5A    -58.228782     6A    -20.395235
       7A     -9.546761     8A     -7.154361     9A     -7.154099
      10A     -7.154023    11A     -2.896050    12A     -2.895974
      13A     -2.895863    14A     -2.895547    15A     -2.895537
      16A     -1.177097    17A     -0.704993    18A     -0.531386
      19A     -0.420291    20A     -0.338678    21A     -0.159509
      22A     -0.154312    23A     -0.154060

  @DF-RHF Final Energy: -2648.60100458082297

   => Energetics <=

    Nuclear Repulsion Energy =             67.9278593092881948
    One-Electron Energy =               -3835.4203842933975466
    Two-Electron Energy =                1118.8915204032862221
    Total Energy =                      -2648.6010045808234281
 Dipole X            :       -218.5427127          213.1226794           -5.4200333
 Dipole Y            :         -1.6019889            2.2347693            0.6327805
 Dipole Z            :          0.0000000            0.0000000            0.0000000
 Magnitude           :                                                    5.4568464
  Basis Set: (AUG-CC-PVTZ AUX)
    Blend: AUG-CC-PVTZ-RI
	 Reference Energy          =   -2648.6010045808229734 [Eh]
	 Singles Energy            =      -0.0000000000000000 [Eh]
	 Same-Spin Energy          =      -0.1596001422435908 [Eh]
	 Opposite-Spin Energy      =      -0.4232813393729692 [Eh]
	 Correlation Energy        =      -0.5828814816165599 [Eh]
	 Total Energy              =   -2649.1838860624393419 [Eh]

	 ================> DF-SCS-MP2 Energies <==================
	-----------------------------------------------------------
	 SCS Same-Spin Scale       =       0.3333333333333333 [-]
	 SCS Opposite-Spin Scale   =       1.2000000000000000 [-]
	 SCS Same-Spin Energy      =      -0.0532000474145303 [Eh]
	 SCS Opposite-Spin Energy  =      -0.5079376072475630 [Eh]
	 SCS Correlation Energy    =      -0.5611376546620932 [Eh]
	 SCS Total Energy          =   -2649.1621422354851347 [Eh]
	-----------------------------------------------------------

*** Psi4 exiting successfully. Buy a developer a beer!
