                               Psi4 1.9 release

  ==> Input File <==

--------------------------------------------------------------------------
MEMORY 60 GB

molecule dimer {
0 1
O      0.000000     0.000000     0.000000
H      0.172148     0.942740     0.000000
H      0.916757    -0.359212     0.000000
--
-1 1
Br     3.212066     0.000000     0.000000

units ang
no_reorient
no_com
symmetry c1
}

set {
basis        aug-cc-pVTZ
scf_type     df
}

energy("mp2", bsse_type="cp")
--------------------------------------------------------------------------

                               Psi4 1.9 release
    Molecular point group: c1
  Charge       = -1
  Multiplicity = 1
  Basis Set: AUG-CC-PVTZ
    Blend: AUG-CC-PVTZ
  Basis Set: (AUG-CC-PVTZ AUX)
    Blend: AUG-CC-PVTZ-JKFIT
  @DF-RHF Final Energy: -2572.53368237815903
    Total Energy =                      -2572.5336823781590283
 Dipole X            :       -218.5174817          212.4473763           -6.0701054
 Dipole Y            :         -0.0001558            0.0000000           -0.0001558
 Dipole Z            :          0.0000000            0.0000000            0.0000000
 Magnitude           :                                                    6.0701054
  Basis Set: (AUG-CC-PVTZ AUX)
    Blend: AUG-CC-PVTZ-RI
	 Reference Energy          =   -2572.5336823781590283 [Eh]
	 Singles Energy            =      -0.0000000000000000 [Eh]
	 Same-Spin Energy          =      -0.0878819190051319 [Eh]
	 Opposite-Spin Energy      =      -0.2040862030309286 [Eh]
	 Correlation Energy        =      -0.2919681220360605 [Eh]
	 Total Energy              =   -2572.8256505001950245 [Eh]
	 SCS Total Energy          =   -2572.8078797947978273 [Eh]
                               Psi4 1.9 release
    Molecular point group: c1
  Multiplicity = 1
  Basis Set: AUG-CC-PVTZ
    Blend: AUG-CC-PVTZ
  Basis Set: (AUG-CC-PVTZ AUX)
    Blend: AUG-CC-PVTZ-JKFIT
  @DF-RHF Final Energy:   -76.05854645271947
    Total Energy =                        -76.0585464527194688
  Basis Set: (AUG-CC-PVTZ AUX)
	 Singles Energy            =      -0.0000000000000000 [Eh]
	 Same-Spin Energy          =      -0.0686879173016348 [Eh]
	 Opposite-Spin Energy      =      -0.2164866243598143 [Eh]
	 Correlation Energy        =      -0.2851745416614491 [Eh]
	 Total Energy              =     -76.3437209943809165 [Eh]
	 SCS Total Energy          =     -76.3412263743851298 [Eh]
                               Psi4 1.9 release
    Molecular point group: c1

    Geometry (in Bohr), charge = -1, multiplicity = 1:

       Center              X                  Y                   Z               Mass
    ------------   -----------------  -----------------  -----------------  -----------------
         O            0.000000000000     0.000000000000     0.000000000000    15.994914619570
         H            0.325312573045     1.781520407514     0.000000000000     1.007825032230
         H            1.732419653596    -0.678812300978     0.000000000000     1.007825032230
         BR           6.069925036895     0.000000000000     0.000000000000    78.918337600000

  Charge       = -1
  Multiplicity = 1
  Basis Set: AUG-CC-PVTZ
    Blend: AUG-CC-PVTZ
  Basis Set: (AUG-CC-PVTZ AUX)
    Blend: AUG-CC-PVTZ-JKFIT

    Orbital Energies [Eh]
    ---------------------

    Doubly Occupied:

       1A   -489.741214     2A    -64.881499     3A    -58.235985
       4A    -58.235965     5A    -58.235954     6A    -20.385835
       7A     -9.553987     8A     -7.161511     9A     -7.161359
      10A     -7.161301    11A     -2.903155    12A     -2.903115
      13A     -2.903054    14A     -2.902883    15A     -2.902880
      16A     -1.169042    17A     -0.712548    18A     -0.525176
      19A     -0.417041    20A     -0.331749    21A     -0.165955
      22A     -0.162358    23A     -0.161619

  @DF-RHF Final Energy: -2648.60757359838362

   => Energetics <=

    Nuclear Repulsion Energy =             68.9903137314500015
    One-Electron Energy =               -3837.3654033113102741
    Two-Electron Energy =                1119.7675159814768904
    Total Energy =                      -2648.6075735983831692
 Dipole X            :       -219.3954033          214.5051085           -4.8902948
 Dipole Y            :         -0.7380348            1.1027081            0.3646733
 Dipole Z            :          0.0000000            0.0000000            0.0000000
 Magnitude           :                                                    4.9038729
  Basis Set: (AUG-CC-PVTZ AUX)
    Blend: AUG-CC-PVTZ-RI
	 Reference Energy          =   -2648.6075735983836239 [Eh]
	 Singles Energy            =      -0.0000000000000000 [Eh]
	 Same-Spin Energy          =      -0.1593693136774763 [Eh]
	 Opposite-Spin Energy      =      -0.4225376162540765 [Eh]
	 Correlation Energy        =      -0.5819069299315528 [Eh]
	 Total Energy              =   -2649.1894805283150163 [Eh]

	 ================> DF-SCS-MP2 Energies <==================
	-----------------------------------------------------------
	 SCS Same-Spin Scale       =       0.3333333333333333 [-]
	 SCS Opposite-Spin Scale   =       1.2000000000000000 [-]
	 SCS Same-Spin Energy      =      -0.0531231045591588 [Eh]
	 SCS Opposite-Spin Energy  =      -0.5070451395048918 [Eh]
	 SCS Correlation Energy    =      -0.5601682440640505 [Eh]
	 SCS Total Energy          =   -2649.1677418424478674 [Eh]
	-----------------------------------------------------------

*** Psi4 exiting successfully. Buy a developer a beer!
