                               Psi4 1.9 release

  ==> Input File <==

--------------------------------------------------------------------------
MEMORY 60 GB

molecule dimer {
0 1
O      0.000000     0.000000     0.000000
H     -0.322286     0.902511     0.000000
H      0.973541     0.147292     0.000000
--
-1 1
Br     3.212066     0.000000     0.000000

units ang
no_reorient
no_com
symmetry c1
}

set {
basis        aug-cc-pVTZ
scf_type     df
}

energy("mp2", bsse_type="cp")
--------------------------------------------------------------------------

                               Psi4 1.9 release
    Molecular point group: c1
  Charge       = -1
  Multiplicity = 1
  Basis Set: AUG-CC-PVTZ
    Blend: AUG-CC-PVTZ
  Basis Set: (AUG-CC-PVTZ AUX)
    Blend: AUG-CC-PVTZ-JKFIT
  @DF-RHF Final Energy: -2572.53368425010422
    Total Energy =                      -2572.5336842501037609
 Dipole X            :       -218.5173821          212.4473763           -6.0700059
 Dipole Y            :         -0.0001303            0.0000000           -0.0001303
 Dipole Z            :          0.0000000            0.0000000            0.0000000
 Magnitude           :                                                    6.0700059
  Basis Set: (AUG-CC-PVTZ AUX)
    Blend: AUG-CC-PVTZ-RI
	 Reference Energy          =   -2572.5336842501042156 [Eh]
	 Singles Energy            =      -0.0000000000000000 [Eh]
	 Same-Spin Energy          =      -0.0881474558496446 [Eh]
	 Opposite-Spin Energy      =      -0.2047756119115561 [Eh]
	 Correlation Energy        =      -0.2929230677612008 [Eh]
	 Total Energy              =   -2572.8266073178656370 [Eh]
	 SCS Total Energy          =   -2572.8087974696813944 [Eh]
                               Psi4 1.9 release
    Molecular point group: c1
  Multiplicity = 1
  Basis Set: AUG-CC-PVTZ
    Blend: AUG-CC-PVTZ
  Basis Set: (AUG-CC-PVTZ AUX)
    Blend: AUG-CC-PVTZ-JKFIT
  @DF-RHF Final Energy:   -76.05855054954077
    Total Energy =                        -76.0585505495407688
  Basis Set: (AUG-CC-PVTZ AUX)
	 Singles Energy            =      -0.0000000000000000 [Eh]
	 Same-Spin Energy          =      -0.0686982800902551 [Eh]
	 Opposite-Spin Energy      =      -0.2166118231422786 [Eh]
	 Correlation Energy        =      -0.2853101032325338 [Eh]
	 Total Energy              =     -76.3438606527733015 [Eh]
	 SCS Total Energy          =     -76.3413841640082609 [Eh]
                               Psi4 1.9 release
    Molecular point group: c1

    Geometry (in Bohr), charge = -1, multiplicity = 1:

       Center              X                  Y                   Z               Mass
    ------------   -----------------  -----------------  -----------------  -----------------
         O            0.000000000000     0.000000000000     0.000000000000    15.994914619570
         H           -0.609032274069     1.705498615213     0.000000000000     1.007825032230
         H            1.839725861904     0.278341540471     0.000000000000     1.007825032230
         BR           6.069925036895     0.000000000000     0.000000000000    78.918337600000

  Charge       = -1
  Multiplicity = 1
  Basis Set: AUG-CC-PVTZ
    Blend: AUG-CC-PVTZ
  Basis Set: (AUG-CC-PVTZ AUX)
    Blend: AUG-CC-PVTZ-JKFIT

    Orbital Energies [Eh]
    ---------------------

    Doubly Occupied:

       1A   -489.739140     2A    -64.879411     3A    -58.233905
       4A    -58.233883     5A    -58.233870     6A    -20.387714
       7A     -9.551876     8A     -7.159466     9A     -7.159199
      10A     -7.159195    11A     -2.901119    12A     -2.901011
      13A     -2.901008    14A     -2.900713    15A     -2.900713
      16A     -1.171017    17A     -0.711249    18A     -0.526348
      19A     -0.416295    20A     -0.332867    21A     -0.165297
      22A     -0.159742    23A     -0.159477

  @DF-RHF Final Energy: -2648.60526911200259

   => Energetics <=

    Nuclear Repulsion Energy =             68.5323400090122163
    One-Electron Energy =               -3836.5061910650902064
    Two-Electron Energy =                1119.3685819440750038
    Total Energy =                      -2648.6052691120030431
 Dipole X            :       -218.8187723          213.6780699           -5.1407024
 Dipole Y            :         -1.4007831            1.9838402            0.5830571
 Dipole Z            :          0.0000000            0.0000000            0.0000000
 Magnitude           :                                                    5.1736618
  Basis Set: (AUG-CC-PVTZ AUX)
    Blend: AUG-CC-PVTZ-RI
	 Reference Energy          =   -2648.6052691120025884 [Eh]
	 Singles Energy            =      -0.0000000000000000 [Eh]
	 Same-Spin Energy          =      -0.1599555330525926 [Eh]
	 Opposite-Spin Energy      =      -0.4238165616032325 [Eh]
	 Correlation Energy        =      -0.5837720946558251 [Eh]
	 Total Energy              =   -2649.1890412066582030 [Eh]

	 ================> DF-SCS-MP2 Energies <==================
	-----------------------------------------------------------
	 SCS Same-Spin Scale       =       0.3333333333333333 [-]
	 SCS Opposite-Spin Scale   =       1.2000000000000000 [-]
	 SCS Same-Spin Energy      =      -0.0533185110175309 [Eh]
	 SCS Opposite-Spin Energy  =      -0.5085798739238789 [Eh]
	 SCS Correlation Energy    =      -0.5618983849414099 [Eh]
	 SCS Total Energy          =   -2649.1671674969438754 [Eh]
	-----------------------------------------------------------

*** Psi4 exiting successfully. Buy a developer a beer!
