                               Psi4 1.9 release

  ==> Input File <==

--------------------------------------------------------------------------
MEMORY 60 GB

molecule dimer {
0 1
O      0.000000     0.000000     0.000000
H     -0.866062     0.410281     0.000000
H      0.584246     0.792548     0.000000
--
-1 1
Br     3.212066     0.000000     0.000000

units ang
no_reorient
no_com
symmetry c1
}

set {
basis        aug-cc-pVTZ
scf_type     df
}

energy("mp2", bsse_type="cp")
--------------------------------------------------------------------------

                               Psi4 1.9 release
    Molecular point group: c1
  Charge       = -1
  Multiplicity = 1
  Basis Set: AUG-CC-PVTZ
    Blend: AUG-CC-PVTZ
  Basis Set: (AUG-CC-PVTZ AUX)
    Blend: AUG-CC-PVTZ-JKFIT
  @DF-RHF Final Energy: -2572.53367726974921
    Total Energy =                      -2572.5336772697492052
 Dipole X            :       -218.5172136          212.4473763           -6.0698373
 Dipole Y            :          0.0001255            0.0000000            0.0001255
 Dipole Z            :         -0.0000000            0.0000000           -0.0000000
 Magnitude           :                                                    6.0698373
  Basis Set: (AUG-CC-PVTZ AUX)
    Blend: AUG-CC-PVTZ-RI
	 Reference Energy          =   -2572.5336772697492052 [Eh]
	 Singles Energy            =      -0.0000000000000000 [Eh]
	 Same-Spin Energy          =      -0.0873453987217539 [Eh]
	 Opposite-Spin Energy      =      -0.2026363322167886 [Eh]
	 Correlation Energy        =      -0.2899817309385425 [Eh]
	 Total Energy              =   -2572.8236590006877123 [Eh]
	 SCS Total Energy          =   -2572.8059560013166447 [Eh]
                               Psi4 1.9 release
    Molecular point group: c1
  Multiplicity = 1
  Basis Set: AUG-CC-PVTZ
    Blend: AUG-CC-PVTZ
  Basis Set: (AUG-CC-PVTZ AUX)
    Blend: AUG-CC-PVTZ-JKFIT
  @DF-RHF Final Energy:   -76.05853926048182
    Total Energy =                        -76.0585392604818225
  Basis Set: (AUG-CC-PVTZ AUX)
	 Singles Energy            =      -0.0000000000000000 [Eh]
	 Same-Spin Energy          =      -0.0686755839591310 [Eh]
	 Opposite-Spin Energy      =      -0.2162536809827152 [Eh]
	 Correlation Energy        =      -0.2849292649418462 [Eh]
	 Total Energy              =     -76.3434685254236740 [Eh]
	 SCS Total Energy          =     -76.3409355389807871 [Eh]
                               Psi4 1.9 release
    Molecular point group: c1

    Geometry (in Bohr), charge = -1, multiplicity = 1:

       Center              X                  Y                   Z               Mass
    ------------   -----------------  -----------------  -----------------  -----------------
         O            0.000000000000     0.000000000000     0.000000000000    15.994914619570
         H           -1.636619987666     0.775318724479     0.000000000000     1.007825032230
         H            1.104064929894     1.497698661279     0.000000000000     1.007825032230
         BR           6.069925036895     0.000000000000     0.000000000000    78.918337600000

  Charge       = -1
  Multiplicity = 1
  Basis Set: AUG-CC-PVTZ
    Blend: AUG-CC-PVTZ
  Basis Set: (AUG-CC-PVTZ AUX)
    Blend: AUG-CC-PVTZ-JKFIT

    Orbital Energies [Eh]
    ---------------------

    Doubly Occupied:

       1A   -489.720623     2A    -64.860803     3A    -58.215309
       4A    -58.215282     5A    -58.215227     6A    -20.413130
       7A     -9.533234     8A     -7.140790     9A     -7.140617
      10A     -7.140405    11A     -2.882545    12A     -2.882519
      13A     -2.882223    14A     -2.882011    15A     -2.881954
      16A     -1.191687    17A     -0.688947    18A     -0.544493
      19A     -0.430912    20A     -0.352629    21A     -0.143368
      22A     -0.140765    23A     -0.139474

  @DF-RHF Final Energy: -2648.58906818355126

   => Energetics <=

    Nuclear Repulsion Energy =             66.4656253917957116
    One-Electron Energy =               -3832.8314910044382486
    Two-Electron Energy =                1117.7767974290911752
    Total Energy =                      -2648.5890681835517171
 Dipole X            :       -217.9889730          211.9148212           -6.0741518
 Dipole Y            :         -1.6409300            2.2730174            0.6320874
 Dipole Z            :          0.0000000            0.0000000            0.0000000
 Magnitude           :                                                    6.1069513
  Basis Set: (AUG-CC-PVTZ AUX)
    Blend: AUG-CC-PVTZ-RI
	 Reference Energy          =   -2648.5890681835512623 [Eh]
	 Singles Energy            =      -0.0000000000000000 [Eh]
	 Same-Spin Energy          =      -0.1582195636986162 [Eh]
	 Opposite-Spin Energy      =      -0.4213237161222858 [Eh]
	 Correlation Energy        =      -0.5795432798209019 [Eh]
	 Total Energy              =   -2649.1686114633721445 [Eh]

	 ================> DF-SCS-MP2 Energies <==================
	-----------------------------------------------------------
	 SCS Same-Spin Scale       =       0.3333333333333333 [-]
	 SCS Opposite-Spin Scale   =       1.2000000000000000 [-]
	 SCS Same-Spin Energy      =      -0.0527398545662054 [Eh]
	 SCS Opposite-Spin Energy  =      -0.5055884593467429 [Eh]
	 SCS Correlation Energy    =      -0.5583283139129482 [Eh]
	 SCS Total Energy          =   -2649.1473964974643422 [Eh]
	-----------------------------------------------------------

*** Psi4 exiting successfully. Buy a developer a beer!
