                               Psi4 1.9 release

  ==> Input File <==

--------------------------------------------------------------------------
MEMORY 60 GB

molecule dimer {
0 1
O      0.000000     0.000000     0.000000
H     -0.737575     0.586632     0.197633
H     -0.355437    -0.889835     0.095239
--
1 1
Li     1.828878     0.000000     0.000000

units ang
no_reorient
no_com
symmetry c1
}

set {
basis        aug-cc-pVTZ
scf_type     df
}

energy("mp2", bsse_type="cp")
--------------------------------------------------------------------------

                               Psi4 1.9 release
    Molecular point group: c1
  Charge       = 1
  Multiplicity = 1
  Basis Set: AUG-CC-PVTZ
    Blend: AUG-CC-PVTZ
  Basis Set: (AUG-CC-PVTZ AUX)
    Blend: AUG-CC-PVTZ-JKFIT + DEF2-UNIVERSAL-JKFIT
  @DF-RHF Final Energy:    -7.23638358947984
    Total Energy =                         -7.2363835894798436
 Dipole X            :         -6.9121727           10.3682356            3.4560629
 Dipole Y            :          0.0000070            0.0000000            0.0000070
 Dipole Z            :          0.0000086            0.0000000            0.0000086
 Magnitude           :                                                    3.4560629
  Basis Set: (AUG-CC-PVTZ AUX)
    Blend: AUG-CC-PVTZ-RI + DEF2-QZVPP-RI
	 Reference Energy          =      -7.2363835894798427 [Eh]
	 Singles Energy            =      -0.0000000000000000 [Eh]
	 Same-Spin Energy          =       0.0000000000000000 [Eh]
	 Opposite-Spin Energy      =      -0.0133632217591813 [Eh]
	 Correlation Energy        =      -0.0133632217591813 [Eh]
	 Total Energy              =      -7.2497468112390244 [Eh]
	 SCS Total Energy          =      -7.2524194555908608 [Eh]
                               Psi4 1.9 release
    Molecular point group: c1
  Multiplicity = 1
  Basis Set: AUG-CC-PVTZ
    Blend: AUG-CC-PVTZ
  Basis Set: (AUG-CC-PVTZ AUX)
    Blend: AUG-CC-PVTZ-JKFIT + DEF2-UNIVERSAL-JKFIT
  @DF-RHF Final Energy:   -76.06026063394302
    Total Energy =                        -76.0602606339430167
  Basis Set: (AUG-CC-PVTZ AUX)
	 Singles Energy            =      -0.0000000000000000 [Eh]
	 Same-Spin Energy          =      -0.0684737550878848 [Eh]
	 Opposite-Spin Energy      =      -0.2158463787380552 [Eh]
	 Correlation Energy        =      -0.2843201338259399 [Eh]
	 Total Energy              =     -76.3445807677689601 [Eh]
	 SCS Total Energy          =     -76.3421008734579800 [Eh]
                               Psi4 1.9 release
    Molecular point group: c1

    Geometry (in Bohr), charge = 1, multiplicity = 1:

       Center              X                  Y                   Z               Mass
    ------------   -----------------  -----------------  -----------------  -----------------
         O            0.000000000000     0.000000000000     0.000000000000    15.994914619570
         H           -1.393814746985     1.108573816430     0.373472243353     1.007825032230
         H           -0.671678584854    -1.681544446847     0.179975626462     1.007825032230
         LI           3.456078536875     0.000000000000     0.000000000000     7.016003436600

  Charge       = 1
  Multiplicity = 1
  Basis Set: AUG-CC-PVTZ
    Blend: AUG-CC-PVTZ
  Basis Set: (AUG-CC-PVTZ AUX)
    Blend: AUG-CC-PVTZ-JKFIT + DEF2-UNIVERSAL-JKFIT

    Orbital Energies [Eh]
    ---------------------

    Doubly Occupied:

       1A    -20.814403     2A     -2.704176     3A     -1.603633
       4A     -0.965845     5A     -0.865678     6A     -0.765833

  @DF-RHF Final Energy:   -83.35089899274857

   => Energetics <=

    Nuclear Repulsion Energy =             17.3572257395126321
    One-Electron Energy =                -145.9771131454573947
    Two-Electron Energy =                  45.2689884131961833
    Total Energy =                        -83.3508989927485686
 Dipole X            :         -6.0361607            8.3027423            2.2665816
 Dipole Y            :          0.3620548           -0.5729706           -0.2109158
 Dipole Z            :         -0.3392581            0.5534479            0.2141898
 Magnitude           :                                                    2.2864284
  Basis Set: (AUG-CC-PVTZ AUX)
    Blend: AUG-CC-PVTZ-RI + DEF2-QZVPP-RI
	 Reference Energy          =     -83.3508989927485686 [Eh]
	 Singles Energy            =      -0.0000000000000000 [Eh]
	 Same-Spin Energy          =      -0.0678492372185149 [Eh]
	 Opposite-Spin Energy      =      -0.2266368398166466 [Eh]
	 Correlation Energy        =      -0.2944860770351615 [Eh]
	 Total Energy              =     -83.6453850697837282 [Eh]

	 ================> DF-SCS-MP2 Energies <==================
	-----------------------------------------------------------
	 SCS Same-Spin Scale       =       0.3333333333333333 [-]
	 SCS Opposite-Spin Scale   =       1.2000000000000000 [-]
	 SCS Same-Spin Energy      =      -0.0226164124061716 [Eh]
	 SCS Opposite-Spin Energy  =      -0.2719642077799759 [Eh]
	 SCS Correlation Energy    =      -0.2945806201861476 [Eh]
	 SCS Total Energy          =     -83.6454796129347216 [Eh]
	-----------------------------------------------------------

*** Psi4 exiting successfully. Buy a developer a beer!
