                               Psi4 1.9 release

  ==> Input File <==

--------------------------------------------------------------------------
MEMORY 60 GB

molecule dimer {
0 1
O      0.000000     0.000000     0.000000
H      0.121940     0.954608    -0.032674
H     -0.922080    -0.126242     0.247071
--
1 1
Li     1.828878     0.000000     0.000000

units ang
no_reorient
no_com
symmetry c1
}

set {
basis        aug-cc-pVTZ
scf_type     df
}

energy("mp2", bsse_type="cp")
--------------------------------------------------------------------------

                               Psi4 1.9 release
    Molecular point group: c1
  Charge       = 1
  Multiplicity = 1
  Basis Set: AUG-CC-PVTZ
    Blend: AUG-CC-PVTZ
  Basis Set: (AUG-CC-PVTZ AUX)
    Blend: AUG-CC-PVTZ-JKFIT + DEF2-UNIVERSAL-JKFIT
  @DF-RHF Final Energy:    -7.23638361840806
    Total Energy =                         -7.2363836184080554
 Dipole X            :         -6.9121808           10.3682356            3.4560548
 Dipole Y            :          0.0000060            0.0000000            0.0000060
 Dipole Z            :          0.0000128            0.0000000            0.0000128
 Magnitude           :                                                    3.4560548
  Basis Set: (AUG-CC-PVTZ AUX)
    Blend: AUG-CC-PVTZ-RI + DEF2-QZVPP-RI
	 Reference Energy          =      -7.2363836184080554 [Eh]
	 Singles Energy            =      -0.0000000000000000 [Eh]
	 Same-Spin Energy          =       0.0000000000000000 [Eh]
	 Opposite-Spin Energy      =      -0.0135026330986503 [Eh]
	 Correlation Energy        =      -0.0135026330986503 [Eh]
	 Total Energy              =      -7.2498862515067062 [Eh]
	 SCS Total Energy          =      -7.2525867781264362 [Eh]
                               Psi4 1.9 release
    Molecular point group: c1
  Multiplicity = 1
  Basis Set: AUG-CC-PVTZ
    Blend: AUG-CC-PVTZ
  Basis Set: (AUG-CC-PVTZ AUX)
    Blend: AUG-CC-PVTZ-JKFIT + DEF2-UNIVERSAL-JKFIT
  @DF-RHF Final Energy:   -76.06025803999509
    Total Energy =                        -76.0602580399950909
  Basis Set: (AUG-CC-PVTZ AUX)
	 Singles Energy            =      -0.0000000000000000 [Eh]
	 Same-Spin Energy          =      -0.0684731029504796 [Eh]
	 Opposite-Spin Energy      =      -0.2158436080211478 [Eh]
	 Correlation Energy        =      -0.2843167109716275 [Eh]
	 Total Energy              =     -76.3445747509667143 [Eh]
	 SCS Total Energy          =     -76.3420947372706280 [Eh]
                               Psi4 1.9 release
    Molecular point group: c1

    Geometry (in Bohr), charge = 1, multiplicity = 1:

       Center              X                  Y                   Z               Mass
    ------------   -----------------  -----------------  -----------------  -----------------
         O            0.000000000000     0.000000000000     0.000000000000    15.994914619570
         H            0.230433203738     1.803947677171    -0.061744911423     1.007825032230
         H           -1.742478665762    -0.238562805530     0.466896523543     1.007825032230
         LI           3.456078536875     0.000000000000     0.000000000000     7.016003436600

  Charge       = 1
  Multiplicity = 1
  Basis Set: AUG-CC-PVTZ
    Blend: AUG-CC-PVTZ
  Basis Set: (AUG-CC-PVTZ AUX)
    Blend: AUG-CC-PVTZ-JKFIT + DEF2-UNIVERSAL-JKFIT

    Orbital Energies [Eh]
    ---------------------

    Doubly Occupied:

       1A    -20.820402     2A     -2.721214     3A     -1.610738
       4A     -0.978745     5A     -0.859229     6A     -0.770276

  @DF-RHF Final Energy:   -83.33543573183476

   => Energetics <=

    Nuclear Repulsion Energy =             17.4691528932585562
    One-Electron Energy =                -146.0879682273313165
    Two-Electron Energy =                  45.2833796022380000
    Total Energy =                        -83.3354357318347638
 Dipole X            :         -6.4072998            8.8561901            2.4488903
 Dipole Y            :         -0.9939916            1.5653849            0.5713933
 Dipole Z            :         -0.2439924            0.4051516            0.1611593
 Magnitude           :                                                    2.5198267
  Basis Set: (AUG-CC-PVTZ AUX)
    Blend: AUG-CC-PVTZ-RI + DEF2-QZVPP-RI
	 Reference Energy          =     -83.3354357318347638 [Eh]
	 Singles Energy            =      -0.0000000000000000 [Eh]
	 Same-Spin Energy          =      -0.0680746253054022 [Eh]
	 Opposite-Spin Energy      =      -0.2273179277160160 [Eh]
	 Correlation Energy        =      -0.2953925530214182 [Eh]
	 Total Energy              =     -83.6308282848561788 [Eh]

	 ================> DF-SCS-MP2 Energies <==================
	-----------------------------------------------------------
	 SCS Same-Spin Scale       =       0.3333333333333333 [-]
	 SCS Opposite-Spin Scale   =       1.2000000000000000 [-]
	 SCS Same-Spin Energy      =      -0.0226915417684674 [Eh]
	 SCS Opposite-Spin Energy  =      -0.2727815132592192 [Eh]
	 SCS Correlation Energy    =      -0.2954730550276866 [Eh]
	 SCS Total Energy          =     -83.6309087868624488 [Eh]
	-----------------------------------------------------------

*** Psi4 exiting successfully. Buy a developer a beer!
