                               Psi4 1.9 release

  ==> Input File <==

--------------------------------------------------------------------------
MEMORY 60 GB

molecule dimer {
0 1
O      0.000000     0.000000     0.000000
H     -0.859101     0.369011     0.230195
H     -0.120867    -0.954754     0.032386
--
1 1
Li     1.828878     0.000000     0.000000

units ang
no_reorient
no_com
symmetry c1
}

set {
basis        aug-cc-pVTZ
scf_type     df
}

energy("mp2", bsse_type="cp")
--------------------------------------------------------------------------

                               Psi4 1.9 release
    Molecular point group: c1
  Charge       = 1
  Multiplicity = 1
  Basis Set: AUG-CC-PVTZ
    Blend: AUG-CC-PVTZ
  Basis Set: (AUG-CC-PVTZ AUX)
    Blend: AUG-CC-PVTZ-JKFIT + DEF2-UNIVERSAL-JKFIT
  @DF-RHF Final Energy:    -7.23638363467641
    Total Energy =                         -7.2363836346764101
 Dipole X            :         -6.9121783           10.3682356            3.4560573
 Dipole Y            :          0.0000004            0.0000000            0.0000004
 Dipole Z            :          0.0000130            0.0000000            0.0000130
 Magnitude           :                                                    3.4560573
  Basis Set: (AUG-CC-PVTZ AUX)
    Blend: AUG-CC-PVTZ-RI + DEF2-QZVPP-RI
	 Reference Energy          =      -7.2363836346764110 [Eh]
	 Singles Energy            =      -0.0000000000000000 [Eh]
	 Same-Spin Energy          =       0.0000000000000000 [Eh]
	 Opposite-Spin Energy      =      -0.0133872045366658 [Eh]
	 Correlation Energy        =      -0.0133872045366658 [Eh]
	 Total Energy              =      -7.2497708392130766 [Eh]
	 SCS Total Energy          =      -7.2524482801204098 [Eh]
                               Psi4 1.9 release
    Molecular point group: c1
  Multiplicity = 1
  Basis Set: AUG-CC-PVTZ
    Blend: AUG-CC-PVTZ
  Basis Set: (AUG-CC-PVTZ AUX)
    Blend: AUG-CC-PVTZ-JKFIT + DEF2-UNIVERSAL-JKFIT
  @DF-RHF Final Energy:   -76.06025896676550
    Total Energy =                        -76.0602589667655025
  Basis Set: (AUG-CC-PVTZ AUX)
	 Singles Energy            =      -0.0000000000000000 [Eh]
	 Same-Spin Energy          =      -0.0684736135611792 [Eh]
	 Opposite-Spin Energy      =      -0.2158435811595838 [Eh]
	 Correlation Energy        =      -0.2843171947207631 [Eh]
	 Total Energy              =     -76.3445761614862590 [Eh]
	 SCS Total Energy          =     -76.3420958020107321 [Eh]
                               Psi4 1.9 release
    Molecular point group: c1

    Geometry (in Bohr), charge = 1, multiplicity = 1:

       Center              X                  Y                   Z               Mass
    ------------   -----------------  -----------------  -----------------  -----------------
         O            0.000000000000     0.000000000000     0.000000000000    15.994914619570
         H           -1.623465604107     0.697329727281     0.435005505450     1.007825032230
         H           -0.228405527606    -1.804223577185     0.061200670299     1.007825032230
         LI           3.456078536875     0.000000000000     0.000000000000     7.016003436600

  Charge       = 1
  Multiplicity = 1
  Basis Set: AUG-CC-PVTZ
    Blend: AUG-CC-PVTZ
  Basis Set: (AUG-CC-PVTZ AUX)
    Blend: AUG-CC-PVTZ-JKFIT + DEF2-UNIVERSAL-JKFIT

    Orbital Energies [Eh]
    ---------------------

    Doubly Occupied:

       1A    -20.816427     2A     -2.710687     3A     -1.606201
       4A     -0.970933     5A     -0.862634     6A     -0.767366

  @DF-RHF Final Energy:   -83.34516424728511

   => Energetics <=

    Nuclear Repulsion Energy =             17.3975640707071832
    One-Electron Energy =                -146.0169608210420620
    Two-Electron Energy =                  45.2742325030497739
    Total Energy =                        -83.3451642472851120
 Dipole X            :         -6.1784466            8.5163645            2.3379179
 Dipole Y            :          0.7004092           -1.1068938           -0.4064847
 Dipole Z            :         -0.3026548            0.4962062            0.1935514
 Magnitude           :                                                    2.3808721
  Basis Set: (AUG-CC-PVTZ AUX)
    Blend: AUG-CC-PVTZ-RI + DEF2-QZVPP-RI
	 Reference Energy          =     -83.3451642472851120 [Eh]
	 Singles Energy            =      -0.0000000000000000 [Eh]
	 Same-Spin Energy          =      -0.0679468730254990 [Eh]
	 Opposite-Spin Energy      =      -0.2268634709497821 [Eh]
	 Correlation Energy        =      -0.2948103439752811 [Eh]
	 Total Energy              =     -83.6399745912603976 [Eh]

	 ================> DF-SCS-MP2 Energies <==================
	-----------------------------------------------------------
	 SCS Same-Spin Scale       =       0.3333333333333333 [-]
	 SCS Opposite-Spin Scale   =       1.2000000000000000 [-]
	 SCS Same-Spin Energy      =      -0.0226489576751663 [Eh]
	 SCS Opposite-Spin Energy  =      -0.2722361651397385 [Eh]
	 SCS Correlation Energy    =      -0.2948851228149049 [Eh]
	 SCS Total Energy          =     -83.6400493701000158 [Eh]
	-----------------------------------------------------------

*** Psi4 exiting successfully. Buy a developer a beer!
