                               Psi4 1.9 release

  ==> Input File <==

--------------------------------------------------------------------------
MEMORY 60 GB

molecule dimer {
0 1
O      0.000000     0.000000     0.000000
H     -0.859254     0.364626     0.230236
H     -0.124611    -0.952699     0.033390
--
1 1
Na     2.158940     0.000000     0.000000

units ang
no_reorient
no_com
symmetry c1
}

set {
basis        aug-cc-pVTZ
scf_type     df
}

energy("mp2", bsse_type="cp")
--------------------------------------------------------------------------

                               Psi4 1.9 release
    Molecular point group: c1
  Charge       = 1
  Multiplicity = 1
  Basis Set: AUG-CC-PVTZ
    Blend: AUG-CC-PVTZ
  Basis Set: (AUG-CC-PVTZ AUX)
    Blend: AUG-CC-PVTZ-JKFIT + DEF2-UNIVERSAL-JKFIT
  @DF-RHF Final Energy:  -161.67604472709547
    Total Energy =                       -161.6760447270954444
 Dipole X            :        -40.7986554           44.8778585            4.0792032
 Dipole Y            :         -0.0000341            0.0000000           -0.0000341
 Dipole Z            :          0.0000211            0.0000000            0.0000211
 Magnitude           :                                                    4.0792032
  Basis Set: (AUG-CC-PVTZ AUX)
    Blend: AUG-CC-PVTZ-RI + DEF2-QZVPP-RI
	 Reference Energy          =    -161.6760447270954728 [Eh]
	 Singles Energy            =      -0.0000000000000000 [Eh]
	 Same-Spin Energy          =      -0.0029892973167072 [Eh]
	 Opposite-Spin Energy      =      -0.0108003362684914 [Eh]
	 Correlation Energy        =      -0.0137896335851985 [Eh]
	 Total Energy              =    -161.6898343606806634 [Eh]
	 SCS Total Energy          =    -161.6900015630565690 [Eh]
                               Psi4 1.9 release
    Molecular point group: c1
  Multiplicity = 1
  Basis Set: AUG-CC-PVTZ
    Blend: AUG-CC-PVTZ
  Basis Set: (AUG-CC-PVTZ AUX)
    Blend: AUG-CC-PVTZ-JKFIT + DEF2-UNIVERSAL-JKFIT
  @DF-RHF Final Energy:   -76.06036504112120
    Total Energy =                        -76.0603650411212016
  Basis Set: (AUG-CC-PVTZ AUX)
	 Singles Energy            =      -0.0000000000000000 [Eh]
	 Same-Spin Energy          =      -0.0684490065059508 [Eh]
	 Opposite-Spin Energy      =      -0.2157651739645059 [Eh]
	 Correlation Energy        =      -0.2842141804704567 [Eh]
	 Total Energy              =     -76.3445792215916583 [Eh]
	 SCS Total Energy          =     -76.3420995853805948 [Eh]
                               Psi4 1.9 release
    Molecular point group: c1

    Geometry (in Bohr), charge = 1, multiplicity = 1:

       Center              X                  Y                   Z               Mass
    ------------   -----------------  -----------------  -----------------  -----------------
         O            0.000000000000     0.000000000000     0.000000000000    15.994914619570
         H           -1.623754732204     0.689043278221     0.435082984221     1.007825032230
         H           -0.235480662219    -1.800340189998     0.063097955329     1.007825032230
         NA           4.079805321296     0.000000000000     0.000000000000    22.989769282000

  Charge       = 1
  Multiplicity = 1
  Basis Set: AUG-CC-PVTZ
    Blend: AUG-CC-PVTZ
  Basis Set: (AUG-CC-PVTZ AUX)
    Blend: AUG-CC-PVTZ-JKFIT + DEF2-UNIVERSAL-JKFIT

    Orbital Energies [Eh]
    ---------------------

    Doubly Occupied:

       1A    -40.702356     2A    -20.781787     3A     -3.019992
       4A     -1.744764     5A     -1.743342     6A     -1.743220
       7A     -1.570313     8A     -0.935165     9A     -0.820450
      10A     -0.732045

  @DF-RHF Final Energy:  -237.76811942661115

   => Energetics <=

    Nuclear Repulsion Energy =             34.9859427548571276
    One-Electron Energy =                -397.9212528373600435
    Two-Electron Energy =                 125.1671906558917442
    Total Energy =                       -237.7681194266111504
 Dipole X            :        -39.9439647           43.0186231            3.0746584
 Dipole Y            :          0.7112870           -1.1112969           -0.4000099
 Dipole Z            :         -0.3098735            0.4981809            0.1883075
 Magnitude           :                                                    3.1062827
  Basis Set: (AUG-CC-PVTZ AUX)
    Blend: AUG-CC-PVTZ-RI + DEF2-QZVPP-RI
	 Reference Energy          =    -237.7681194266111504 [Eh]
	 Singles Energy            =      -0.0000000000000000 [Eh]
	 Same-Spin Energy          =      -0.0710161053042430 [Eh]
	 Opposite-Spin Energy      =      -0.2246626369247396 [Eh]
	 Correlation Energy        =      -0.2956787422289827 [Eh]
	 Total Energy              =    -238.0637981688401226 [Eh]

	 ================> DF-SCS-MP2 Energies <==================
	-----------------------------------------------------------
	 SCS Same-Spin Scale       =       0.3333333333333333 [-]
	 SCS Opposite-Spin Scale   =       1.2000000000000000 [-]
	 SCS Same-Spin Energy      =      -0.0236720351014143 [Eh]
	 SCS Opposite-Spin Energy  =      -0.2695951643096876 [Eh]
	 SCS Correlation Energy    =      -0.2932671994111019 [Eh]
	 SCS Total Energy          =    -238.0613866260222551 [Eh]
	-----------------------------------------------------------

*** Psi4 exiting successfully. Buy a developer a beer!
