                               Psi4 1.9 release

  ==> Input File <==

--------------------------------------------------------------------------
MEMORY 60 GB

molecule dimer {
0 1
O      0.000000     0.000000     0.000000
H     -0.568035     0.760558     0.152204
H     -0.568035    -0.760558     0.152204
--
1 1
Na     2.158940     0.000000     0.000000

units ang
no_reorient
no_com
symmetry c1
}

set {
basis        aug-cc-pVTZ
scf_type     df
}

energy("mp2", bsse_type="cp")
--------------------------------------------------------------------------

                               Psi4 1.9 release
    Molecular point group: c1
  Charge       = 1
  Multiplicity = 1
  Basis Set: AUG-CC-PVTZ
    Blend: AUG-CC-PVTZ
  Basis Set: (AUG-CC-PVTZ AUX)
    Blend: AUG-CC-PVTZ-JKFIT + DEF2-UNIVERSAL-JKFIT
  @DF-RHF Final Energy:  -161.67604377036568
    Total Energy =                       -161.6760437703656805
 Dipole X            :        -40.7985985           44.8778585            4.0792601
 Dipole Y            :          0.0000000            0.0000000            0.0000000
 Dipole Z            :          0.0000392            0.0000000            0.0000392
 Magnitude           :                                                    4.0792601
  Basis Set: (AUG-CC-PVTZ AUX)
    Blend: AUG-CC-PVTZ-RI + DEF2-QZVPP-RI
	 Reference Energy          =    -161.6760437703656805 [Eh]
	 Singles Energy            =      -0.0000000000000000 [Eh]
	 Same-Spin Energy          =      -0.0029590361427874 [Eh]
	 Opposite-Spin Energy      =      -0.0107025686659935 [Eh]
	 Correlation Energy        =      -0.0136616048087809 [Eh]
	 Total Energy              =    -161.6897053751744693 [Eh]
	 SCS Total Energy          =    -161.6898731981457900 [Eh]
                               Psi4 1.9 release
    Molecular point group: c1
  Multiplicity = 1
  Basis Set: AUG-CC-PVTZ
    Blend: AUG-CC-PVTZ
  Basis Set: (AUG-CC-PVTZ AUX)
    Blend: AUG-CC-PVTZ-JKFIT + DEF2-UNIVERSAL-JKFIT
  @DF-RHF Final Energy:   -76.06037349312615
    Total Energy =                        -76.0603734931261357
  Basis Set: (AUG-CC-PVTZ AUX)
	 Singles Energy            =      -0.0000000000000000 [Eh]
	 Same-Spin Energy          =      -0.0684481936880387 [Eh]
	 Opposite-Spin Energy      =      -0.2157642784585947 [Eh]
	 Correlation Energy        =      -0.2842124721466334 [Eh]
	 Total Energy              =     -76.3445859652727847 [Eh]
	 SCS Total Energy          =     -76.3421066918391489 [Eh]
                               Psi4 1.9 release
    Molecular point group: c1

    Geometry (in Bohr), charge = 1, multiplicity = 1:

       Center              X                  Y                   Z               Mass
    ------------   -----------------  -----------------  -----------------  -----------------
         O            0.000000000000     0.000000000000     0.000000000000    15.994914619570
         H           -1.073430579674     1.437246322526     0.287623875199     1.007825032230
         H           -1.073430579674    -1.437246322526     0.287623875199     1.007825032230
         NA           4.079805321296     0.000000000000     0.000000000000    22.989769282000

  Charge       = 1
  Multiplicity = 1
  Basis Set: AUG-CC-PVTZ
    Blend: AUG-CC-PVTZ
  Basis Set: (AUG-CC-PVTZ AUX)
    Blend: AUG-CC-PVTZ-JKFIT + DEF2-UNIVERSAL-JKFIT

    Orbital Energies [Eh]
    ---------------------

    Doubly Occupied:

       1A    -40.695294     2A    -20.779476     3A     -3.013301
       4A     -1.737491     5A     -1.737017     6A     -1.736614
       7A     -1.567725     8A     -0.930573     9A     -0.822522
      10A     -0.730385

  @DF-RHF Final Energy:  -237.77392509328641

   => Energetics <=

    Nuclear Repulsion Energy =             34.8306667038053206
    One-Electron Energy =                -397.7083819167866068
    Two-Electron Energy =                 125.1037901196948781
    Total Energy =                       -237.7739250932864081
 Dipole X            :        -39.7553108           42.7309974            2.9756866
 Dipole Y            :         -0.0000000            0.0000000           -0.0000000
 Dipole Z            :         -0.3593588            0.5752478            0.2158889
 Magnitude           :                                                    2.9835078
  Basis Set: (AUG-CC-PVTZ AUX)
    Blend: AUG-CC-PVTZ-RI + DEF2-QZVPP-RI
	 Reference Energy          =    -237.7739250932864081 [Eh]
	 Singles Energy            =      -0.0000000000000000 [Eh]
	 Same-Spin Energy          =      -0.0709162919143529 [Eh]
	 Opposite-Spin Energy      =      -0.2243682488481203 [Eh]
	 Correlation Energy        =      -0.2952845407624732 [Eh]
	 Total Energy              =    -238.0692096340488888 [Eh]

	 ================> DF-SCS-MP2 Energies <==================
	-----------------------------------------------------------
	 SCS Same-Spin Scale       =       0.3333333333333333 [-]
	 SCS Opposite-Spin Scale   =       1.2000000000000000 [-]
	 SCS Same-Spin Energy      =      -0.0236387639714510 [Eh]
	 SCS Opposite-Spin Energy  =      -0.2692418986177443 [Eh]
	 SCS Correlation Energy    =      -0.2928806625891953 [Eh]
	 SCS Total Energy          =    -238.0668057558756061 [Eh]
	-----------------------------------------------------------

*** Psi4 exiting successfully. Buy a developer a beer!
