                               Psi4 1.9 release

  ==> Input File <==

--------------------------------------------------------------------------
MEMORY 60 GB

molecule dimer {
0 1
O      0.000000     0.000000     0.000000
H     -0.920237    -0.129007     0.246577
H      0.352202    -0.889565    -0.094372
--
1 1
Na     2.158940     0.000000     0.000000

units ang
no_reorient
no_com
symmetry c1
}

set {
basis        aug-cc-pVTZ
scf_type     df
}

energy("mp2", bsse_type="cp")
--------------------------------------------------------------------------

                               Psi4 1.9 release
    Molecular point group: c1
  Charge       = 1
  Multiplicity = 1
  Basis Set: AUG-CC-PVTZ
    Blend: AUG-CC-PVTZ
  Basis Set: (AUG-CC-PVTZ AUX)
    Blend: AUG-CC-PVTZ-JKFIT + DEF2-UNIVERSAL-JKFIT
  @DF-RHF Final Energy:  -161.67604709745291
    Total Energy =                       -161.6760470974529085
 Dipole X            :        -40.7986562           44.8778585            4.0792023
 Dipole Y            :         -0.0001003            0.0000000           -0.0001003
 Dipole Z            :         -0.0000057            0.0000000           -0.0000057
 Magnitude           :                                                    4.0792023
  Basis Set: (AUG-CC-PVTZ AUX)
    Blend: AUG-CC-PVTZ-RI + DEF2-QZVPP-RI
	 Reference Energy          =    -161.6760470974529085 [Eh]
	 Singles Energy            =      -0.0000000000000000 [Eh]
	 Same-Spin Energy          =      -0.0033651852774917 [Eh]
	 Opposite-Spin Energy      =      -0.0118238210015819 [Eh]
	 Correlation Energy        =      -0.0151890062790737 [Eh]
	 Total Energy              =    -161.6912361037319954 [Eh]
	 SCS Total Energy          =    -161.6913574110806451 [Eh]
                               Psi4 1.9 release
    Molecular point group: c1
  Multiplicity = 1
  Basis Set: AUG-CC-PVTZ
    Blend: AUG-CC-PVTZ
  Basis Set: (AUG-CC-PVTZ AUX)
    Blend: AUG-CC-PVTZ-JKFIT + DEF2-UNIVERSAL-JKFIT
  @DF-RHF Final Energy:   -76.06036092066874
    Total Energy =                        -76.0603609206687423
  Basis Set: (AUG-CC-PVTZ AUX)
	 Singles Energy            =      -0.0000000000000000 [Eh]
	 Same-Spin Energy          =      -0.0684485401717541 [Eh]
	 Opposite-Spin Energy      =      -0.2157643983723529 [Eh]
	 Correlation Energy        =      -0.2842129385441070 [Eh]
	 Total Energy              =     -76.3445738592128436 [Eh]
	 SCS Total Energy          =     -76.3420943787728135 [Eh]
                               Psi4 1.9 release
    Molecular point group: c1

    Geometry (in Bohr), charge = 1, multiplicity = 1:

       Center              X                  Y                   Z               Mass
    ------------   -----------------  -----------------  -----------------  -----------------
         O            0.000000000000     0.000000000000     0.000000000000    15.994914619570
         H           -1.738995900513    -0.243787898267     0.465962998837     1.007825032230
         H            0.665565320838    -1.681034220793    -0.178337233912     1.007825032230
         NA           4.079805321296     0.000000000000     0.000000000000    22.989769282000

  Charge       = 1
  Multiplicity = 1
  Basis Set: AUG-CC-PVTZ
    Blend: AUG-CC-PVTZ
  Basis Set: (AUG-CC-PVTZ AUX)
    Blend: AUG-CC-PVTZ-JKFIT + DEF2-UNIVERSAL-JKFIT

    Orbital Energies [Eh]
    ---------------------

    Doubly Occupied:

       1A    -40.721566     2A    -20.789827     3A     -3.038872
       4A     -1.765213     5A     -1.761697     6A     -1.761622
       7A     -1.578130     8A     -0.947121     9A     -0.817967
      10A     -0.737647

  @DF-RHF Final Energy:  -237.74930528960806

   => Energetics <=

    Nuclear Repulsion Energy =             35.4944018002350745
    One-Electron Energy =                -398.6480925662389723
    Two-Electron Energy =                 125.4043854763958024
    Total Energy =                       -237.7493052896080599
 Dipole X            :        -40.4674902           43.8044280            3.3369378
 Dipole Y            :          1.2428016           -1.9248221           -0.6820206
 Dipole Z            :         -0.1718708            0.2876258            0.1157549
 Magnitude           :                                                    3.4078886
  Basis Set: (AUG-CC-PVTZ AUX)
    Blend: AUG-CC-PVTZ-RI + DEF2-QZVPP-RI
	 Reference Energy          =    -237.7493052896080599 [Eh]
	 Singles Energy            =      -0.0000000000000000 [Eh]
	 Same-Spin Energy          =      -0.0715201035898676 [Eh]
	 Opposite-Spin Energy      =      -0.2262917060524079 [Eh]
	 Correlation Energy        =      -0.2978118096422755 [Eh]
	 Total Energy              =    -238.0471170992503289 [Eh]

	 ================> DF-SCS-MP2 Energies <==================
	-----------------------------------------------------------
	 SCS Same-Spin Scale       =       0.3333333333333333 [-]
	 SCS Opposite-Spin Scale   =       1.2000000000000000 [-]
	 SCS Same-Spin Energy      =      -0.0238400345299559 [Eh]
	 SCS Opposite-Spin Energy  =      -0.2715500472628895 [Eh]
	 SCS Correlation Energy    =      -0.2953900817928454 [Eh]
	 SCS Total Energy          =    -238.0446953714009055 [Eh]
	-----------------------------------------------------------

*** Psi4 exiting successfully. Buy a developer a beer!
