                               Psi4 1.9 release

  ==> Input File <==

--------------------------------------------------------------------------
MEMORY 60 GB

molecule dimer {
0 1
O      0.000000     0.000000     0.000000
H     -0.921132     0.121965     0.246817
H      0.117809    -0.953626    -0.031567
--
1 1
Na     2.158940     0.000000     0.000000

units ang
no_reorient
no_com
symmetry c1
}

set {
basis        aug-cc-pVTZ
scf_type     df
}

energy("mp2", bsse_type="cp")
--------------------------------------------------------------------------

                               Psi4 1.9 release
    Molecular point group: c1
  Charge       = 1
  Multiplicity = 1
  Basis Set: AUG-CC-PVTZ
    Blend: AUG-CC-PVTZ
  Basis Set: (AUG-CC-PVTZ AUX)
    Blend: AUG-CC-PVTZ-JKFIT + DEF2-UNIVERSAL-JKFIT
  @DF-RHF Final Energy:  -161.67604516373282
    Total Energy =                       -161.6760451637327947
 Dipole X            :        -40.7986660           44.8778585            4.0791925
 Dipole Y            :         -0.0000467            0.0000000           -0.0000467
 Dipole Z            :          0.0000094            0.0000000            0.0000094
 Magnitude           :                                                    4.0791925
  Basis Set: (AUG-CC-PVTZ AUX)
    Blend: AUG-CC-PVTZ-RI + DEF2-QZVPP-RI
	 Reference Energy          =    -161.6760451637328231 [Eh]
	 Singles Energy            =      -0.0000000000000000 [Eh]
	 Same-Spin Energy          =      -0.0029979764714342 [Eh]
	 Opposite-Spin Energy      =      -0.0108007585381287 [Eh]
	 Correlation Energy        =      -0.0137987350095629 [Eh]
	 Total Energy              =    -161.6898438987423958 [Eh]
	 SCS Total Energy          =    -161.6900053994690438 [Eh]
                               Psi4 1.9 release
    Molecular point group: c1
  Multiplicity = 1
  Basis Set: AUG-CC-PVTZ
    Blend: AUG-CC-PVTZ
  Basis Set: (AUG-CC-PVTZ AUX)
    Blend: AUG-CC-PVTZ-JKFIT + DEF2-UNIVERSAL-JKFIT
  @DF-RHF Final Energy:   -76.06035943385648
    Total Energy =                        -76.0603594338564903
  Basis Set: (AUG-CC-PVTZ AUX)
	 Singles Energy            =      -0.0000000000000000 [Eh]
	 Same-Spin Energy          =      -0.0684493568423206 [Eh]
	 Opposite-Spin Energy      =      -0.2157617996835178 [Eh]
	 Correlation Energy        =      -0.2842111565258384 [Eh]
	 Total Energy              =     -76.3445705903823182 [Eh]
	 SCS Total Energy          =     -76.3420900457574731 [Eh]
                               Psi4 1.9 release
    Molecular point group: c1

    Geometry (in Bohr), charge = 1, multiplicity = 1:

       Center              X                  Y                   Z               Mass
    ------------   -----------------  -----------------  -----------------  -----------------
         O            0.000000000000     0.000000000000     0.000000000000    15.994914619570
         H           -1.740687205395     0.230480446891     0.466416533107     1.007825032230
         H            0.222626745114    -1.802091966116    -0.059652984602     1.007825032230
         NA           4.079805321296     0.000000000000     0.000000000000    22.989769282000

  Charge       = 1
  Multiplicity = 1
  Basis Set: AUG-CC-PVTZ
    Blend: AUG-CC-PVTZ
  Basis Set: (AUG-CC-PVTZ AUX)
    Blend: AUG-CC-PVTZ-JKFIT + DEF2-UNIVERSAL-JKFIT

    Orbital Energies [Eh]
    ---------------------

    Doubly Occupied:

       1A    -40.710732     2A    -20.785011     3A     -3.028065
       4A     -1.753409     5A     -1.751195     6A     -1.751132
       7A     -1.573611     8A     -0.940473     9A     -0.818849
      10A     -0.734316

  @DF-RHF Final Energy:  -237.76063235280918

   => Energetics <=

    Nuclear Repulsion Energy =             35.1902371138770746
    One-Electron Energy =                -398.2081520006954065
    Two-Electron Energy =                 125.2572825340091640
    Total Energy =                       -237.7606323528091821
 Dipole X            :        -40.1698297           43.3597981            3.1899684
 Dipole Y            :          1.0097686           -1.5716115           -0.5618429
 Dipole Z            :         -0.2505320            0.4067635            0.1562315
 Magnitude           :                                                    3.2428343
  Basis Set: (AUG-CC-PVTZ AUX)
    Blend: AUG-CC-PVTZ-RI + DEF2-QZVPP-RI
	 Reference Energy          =    -237.7606323528091821 [Eh]
	 Singles Energy            =      -0.0000000000000000 [Eh]
	 Same-Spin Energy          =      -0.0710872919678557 [Eh]
	 Opposite-Spin Energy      =      -0.2249059581265795 [Eh]
	 Correlation Energy        =      -0.2959932500944352 [Eh]
	 Total Energy              =    -238.0566256029036083 [Eh]

	 ================> DF-SCS-MP2 Energies <==================
	-----------------------------------------------------------
	 SCS Same-Spin Scale       =       0.3333333333333333 [-]
	 SCS Opposite-Spin Scale   =       1.2000000000000000 [-]
	 SCS Same-Spin Energy      =      -0.0236957639892852 [Eh]
	 SCS Opposite-Spin Energy  =      -0.2698871497518953 [Eh]
	 SCS Correlation Energy    =      -0.2935829137411806 [Eh]
	 SCS Total Energy          =    -238.0542152665503579 [Eh]
	-----------------------------------------------------------

*** Psi4 exiting successfully. Buy a developer a beer!
