                               Psi4 1.9 release

  ==> Input File <==

--------------------------------------------------------------------------
MEMORY 60 GB

molecule dimer {
0 1
O      0.000000     0.000000     0.000000
H     -0.358540     0.886847     0.096071
H     -0.738819    -0.582438     0.197966
--
1 1
Na     2.158940     0.000000     0.000000

units ang
no_reorient
no_com
symmetry c1
}

set {
basis        aug-cc-pVTZ
scf_type     df
}

energy("mp2", bsse_type="cp")
--------------------------------------------------------------------------

                               Psi4 1.9 release
    Molecular point group: c1
  Charge       = 1
  Multiplicity = 1
  Basis Set: AUG-CC-PVTZ
    Blend: AUG-CC-PVTZ
  Basis Set: (AUG-CC-PVTZ AUX)
    Blend: AUG-CC-PVTZ-JKFIT + DEF2-UNIVERSAL-JKFIT
  @DF-RHF Final Energy:  -161.67604439940598
    Total Energy =                       -161.6760443994059813
 Dipole X            :        -40.7986117           44.8778585            4.0792469
 Dipole Y            :          0.0000104            0.0000000            0.0000104
 Dipole Z            :          0.0000337            0.0000000            0.0000337
 Magnitude           :                                                    4.0792469
  Basis Set: (AUG-CC-PVTZ AUX)
    Blend: AUG-CC-PVTZ-RI + DEF2-QZVPP-RI
	 Reference Energy          =    -161.6760443994059813 [Eh]
	 Singles Energy            =      -0.0000000000000000 [Eh]
	 Same-Spin Energy          =      -0.0029796603570613 [Eh]
	 Opposite-Spin Energy      =      -0.0107736026888487 [Eh]
	 Correlation Energy        =      -0.0137532630459100 [Eh]
	 Total Energy              =    -161.6897976624518947 [Eh]
	 SCS Total Energy          =    -161.6899659427516269 [Eh]
                               Psi4 1.9 release
    Molecular point group: c1
  Multiplicity = 1
  Basis Set: AUG-CC-PVTZ
    Blend: AUG-CC-PVTZ
  Basis Set: (AUG-CC-PVTZ AUX)
    Blend: AUG-CC-PVTZ-JKFIT + DEF2-UNIVERSAL-JKFIT
  @DF-RHF Final Energy:   -76.06037114876348
    Total Energy =                        -76.0603711487634797
  Basis Set: (AUG-CC-PVTZ AUX)
	 Singles Energy            =      -0.0000000000000000 [Eh]
	 Same-Spin Energy          =      -0.0684483597883202 [Eh]
	 Opposite-Spin Energy      =      -0.2157650400366758 [Eh]
	 Correlation Energy        =      -0.2842133998249960 [Eh]
	 Total Energy              =     -76.3445845485884718 [Eh]
	 SCS Total Energy          =     -76.3421053167369337 [Eh]
                               Psi4 1.9 release
    Molecular point group: c1

    Geometry (in Bohr), charge = 1, multiplicity = 1:

       Center              X                  Y                   Z               Mass
    ------------   -----------------  -----------------  -----------------  -----------------
         O            0.000000000000     0.000000000000     0.000000000000    15.994914619570
         H           -0.677542405022     1.675897945184     0.181547878599     1.007825032230
         H           -1.396165566285    -1.100648305059     0.374101522152     1.007825032230
         NA           4.079805321296     0.000000000000     0.000000000000    22.989769282000

  Charge       = 1
  Multiplicity = 1
  Basis Set: AUG-CC-PVTZ
    Blend: AUG-CC-PVTZ
  Basis Set: (AUG-CC-PVTZ AUX)
    Blend: AUG-CC-PVTZ-JKFIT + DEF2-UNIVERSAL-JKFIT

    Orbital Energies [Eh]
    ---------------------

    Doubly Occupied:

       1A    -40.697088     2A    -20.780026     3A     -3.014992
       4A     -1.739378     5A     -1.738560     6A     -1.738287
       7A     -1.568364     8A     -0.931752     9A     -0.821928
      10A     -0.730784

  @DF-RHF Final Energy:  -237.77248260796819

   => Energetics <=

    Nuclear Repulsion Energy =             34.8688021064452016
    One-Electron Energy =                -397.7602482112635585
    Two-Electron Energy =                 125.1189634968501565
    Total Energy =                       -237.7724826079681861
 Dipole X            :        -39.8031530           42.8041506            3.0009975
 Dipole Y            :         -0.3673933            0.5752496            0.2078564
 Dipole Z            :         -0.3468152            0.5556494            0.2088342
 Magnitude           :                                                    3.0154274
  Basis Set: (AUG-CC-PVTZ AUX)
    Blend: AUG-CC-PVTZ-RI + DEF2-QZVPP-RI
	 Reference Energy          =    -237.7724826079681861 [Eh]
	 Singles Energy            =      -0.0000000000000000 [Eh]
	 Same-Spin Energy          =      -0.0709566544263337 [Eh]
	 Opposite-Spin Energy      =      -0.2244891950284500 [Eh]
	 Correlation Energy        =      -0.2954458494547837 [Eh]
	 Total Energy              =    -238.0679284574229655 [Eh]

	 ================> DF-SCS-MP2 Energies <==================
	-----------------------------------------------------------
	 SCS Same-Spin Scale       =       0.3333333333333333 [-]
	 SCS Opposite-Spin Scale   =       1.2000000000000000 [-]
	 SCS Same-Spin Energy      =      -0.0236522181421112 [Eh]
	 SCS Opposite-Spin Energy  =      -0.2693870340341400 [Eh]
	 SCS Correlation Energy    =      -0.2930392521762512 [Eh]
	 SCS Total Energy          =    -238.0655218601444290 [Eh]
	-----------------------------------------------------------

*** Psi4 exiting successfully. Buy a developer a beer!
