                               Psi4 1.9 release

  ==> Input File <==

--------------------------------------------------------------------------
MEMORY 60 GB

molecule dimer {
0 1
O      0.000000     0.000000     0.000000
H     -0.363096     0.884151     0.097291
H     -0.741462    -0.577745     0.198674
--
1 1
K      2.466222     0.000000     0.000000

units ang
no_reorient
no_com
symmetry c1
}

set {
basis        aug-cc-pVTZ
scf_type     df
}

energy("mp2", bsse_type="cp")
--------------------------------------------------------------------------

                               Psi4 1.9 release
    Molecular point group: c1
  Charge       = 1
  Multiplicity = 1
  Basis Set: AUG-CC-PVTZ
    Blend: AUG-CC-PVTZ
  Basis Set: (AUG-CC-PVTZ AUX)
    Blend: AUG-CC-PVTZ-JKFIT + DEF2-UNIVERSAL-JKFIT
  @DF-RHF Final Energy:  -599.01750887345042
    Total Energy =                       -599.0175088734504243
 Dipole X            :        -83.8891243           88.5491987            4.6600744
 Dipole Y            :          0.0000435            0.0000000            0.0000435
 Dipole Z            :          0.0000336            0.0000000            0.0000336
 Magnitude           :                                                    4.6600744
  Basis Set: (AUG-CC-PVTZ AUX)
    Blend: AUG-CC-PVTZ-RI + DEF2-QZVPP-RI
	 Reference Energy          =    -599.0175088734504243 [Eh]
	 Singles Energy            =      -0.0000000000000000 [Eh]
	 Same-Spin Energy          =      -0.0290444783363128 [Eh]
	 Opposite-Spin Energy      =      -0.0688048587389871 [Eh]
	 Correlation Energy        =      -0.0978493370752999 [Eh]
	 Total Energy              =    -599.1153582105257556 [Eh]
	 SCS Total Energy          =    -599.1097561967160345 [Eh]
                               Psi4 1.9 release
    Molecular point group: c1
  Multiplicity = 1
  Basis Set: AUG-CC-PVTZ
    Blend: AUG-CC-PVTZ
  Basis Set: (AUG-CC-PVTZ AUX)
    Blend: AUG-CC-PVTZ-JKFIT + DEF2-UNIVERSAL-JKFIT
  @DF-RHF Final Energy:   -76.06033689942024
    Total Energy =                        -76.0603368994202356
  Basis Set: (AUG-CC-PVTZ AUX)
	 Singles Energy            =      -0.0000000000000000 [Eh]
	 Same-Spin Energy          =      -0.0684291931429943 [Eh]
	 Opposite-Spin Energy      =      -0.2155354777060268 [Eh]
	 Correlation Energy        =      -0.2839646708490211 [Eh]
	 Total Energy              =     -76.3443015702692520 [Eh]
	 SCS Total Energy          =     -76.3417892037151375 [Eh]
                               Psi4 1.9 release
    Molecular point group: c1

    Geometry (in Bohr), charge = 1, multiplicity = 1:

       Center              X                  Y                   Z               Mass
    ------------   -----------------  -----------------  -----------------  -----------------
         O            0.000000000000     0.000000000000     0.000000000000    15.994914619570
         H           -0.686151997249     1.670803243550     0.183853344472     1.007825032230
         H           -1.401160112434    -1.091779820353     0.375439448249     1.007825032230
         K            4.660484144579     0.000000000000     0.000000000000    38.963706486400

  Charge       = 1
  Multiplicity = 1
  Basis Set: AUG-CC-PVTZ
    Blend: AUG-CC-PVTZ
  Basis Set: (AUG-CC-PVTZ AUX)
    Blend: AUG-CC-PVTZ-JKFIT + DEF2-UNIVERSAL-JKFIT

    Orbital Energies [Eh]
    ---------------------

    Doubly Occupied:

       1A   -133.703511     2A    -20.758870     3A    -14.660443
       4A    -11.690439     5A    -11.690400     6A    -11.690268
       7A     -1.920190     8A     -1.549752     9A     -1.129221
      10A     -1.128135    11A     -1.128092    12A     -0.909805
      13A     -0.793168    14A     -0.709106

  @DF-RHF Final Energy:  -675.10126818598042

   => Energetics <=

    Nuclear Repulsion Energy =             48.2462470593658495
    One-Electron Energy =               -1019.7722288141900435
    Two-Electron Energy =                 296.4247135688437993
    Total Energy =                       -675.1012681859804161
 Dipole X            :        -82.9159966           86.4618866            3.5458900
 Dipole Y            :         -0.3822966            0.5790234            0.1967268
 Dipole Z            :         -0.3522555            0.5592928            0.2070373
 Magnitude           :                                                    3.5573729
  Basis Set: (AUG-CC-PVTZ AUX)
    Blend: AUG-CC-PVTZ-RI + DEF2-QZVPP-RI
	 Reference Energy          =    -675.1012681859804161 [Eh]
	 Singles Energy            =      -0.0000000000000000 [Eh]
	 Same-Spin Energy          =      -0.0985697866865646 [Eh]
	 Opposite-Spin Energy      =      -0.2842209273954689 [Eh]
	 Correlation Energy        =      -0.3827907140820335 [Eh]
	 Total Energy              =    -675.4840589000624504 [Eh]

	 ================> DF-SCS-MP2 Energies <==================
	-----------------------------------------------------------
	 SCS Same-Spin Scale       =       0.3333333333333333 [-]
	 SCS Opposite-Spin Scale   =       1.2000000000000000 [-]
	 SCS Same-Spin Energy      =      -0.0328565955621882 [Eh]
	 SCS Opposite-Spin Energy  =      -0.3410651128745626 [Eh]
	 SCS Correlation Energy    =      -0.3739217084367509 [Eh]
	 SCS Total Energy          =    -675.4751898944172126 [Eh]
	-----------------------------------------------------------

*** Psi4 exiting successfully. Buy a developer a beer!
