                               Psi4 1.9 release

  ==> Input File <==

--------------------------------------------------------------------------
MEMORY 60 GB

molecule dimer {
0 1
O      0.000000     0.000000     0.000000
H      0.347139     0.890994    -0.093016
H     -0.918900     0.134261     0.246219
--
1 1
K      2.466222     0.000000     0.000000

units ang
no_reorient
no_com
symmetry c1
}

set {
basis        aug-cc-pVTZ
scf_type     df
}

energy("mp2", bsse_type="cp")
--------------------------------------------------------------------------

                               Psi4 1.9 release
    Molecular point group: c1
  Charge       = 1
  Multiplicity = 1
  Basis Set: AUG-CC-PVTZ
    Blend: AUG-CC-PVTZ
  Basis Set: (AUG-CC-PVTZ AUX)
    Blend: AUG-CC-PVTZ-JKFIT + DEF2-UNIVERSAL-JKFIT
  @DF-RHF Final Energy:  -599.01750933894937
    Total Energy =                       -599.0175093389493668
 Dipole X            :        -83.8891610           88.5491987            4.6600378
 Dipole Y            :          0.0000907            0.0000000            0.0000907
 Dipole Z            :         -0.0000211            0.0000000           -0.0000211
 Magnitude           :                                                    4.6600378
  Basis Set: (AUG-CC-PVTZ AUX)
    Blend: AUG-CC-PVTZ-RI + DEF2-QZVPP-RI
	 Reference Energy          =    -599.0175093389493668 [Eh]
	 Singles Energy            =      -0.0000000000000000 [Eh]
	 Same-Spin Energy          =      -0.0297287050969338 [Eh]
	 Opposite-Spin Energy      =      -0.0706858894299842 [Eh]
	 Correlation Energy        =      -0.1004145945269181 [Eh]
	 Total Energy              =    -599.1179239334762769 [Eh]
	 SCS Total Energy          =    -599.1122419746310470 [Eh]
                               Psi4 1.9 release
    Molecular point group: c1
  Multiplicity = 1
  Basis Set: AUG-CC-PVTZ
    Blend: AUG-CC-PVTZ
  Basis Set: (AUG-CC-PVTZ AUX)
    Blend: AUG-CC-PVTZ-JKFIT + DEF2-UNIVERSAL-JKFIT
  @DF-RHF Final Energy:   -76.06033174434690
    Total Energy =                        -76.0603317443469109
  Basis Set: (AUG-CC-PVTZ AUX)
	 Singles Energy            =      -0.0000000000000000 [Eh]
	 Same-Spin Energy          =      -0.0684305041010310 [Eh]
	 Opposite-Spin Energy      =      -0.2155571212727594 [Eh]
	 Correlation Energy        =      -0.2839876253737905 [Eh]
	 Total Energy              =     -76.3443193697206937 [Eh]
	 SCS Total Energy          =     -76.3418104579078829 [Eh]
                               Psi4 1.9 release
    Molecular point group: c1

    Geometry (in Bohr), charge = 1, multiplicity = 1:

       Center              X                  Y                   Z               Mass
    ------------   -----------------  -----------------  -----------------  -----------------
         O            0.000000000000     0.000000000000     0.000000000000    15.994914619570
         H            0.655997637465     1.683734639426    -0.175774765286     1.007825032230
         H           -1.736469336683     0.253716519330     0.465286476884     1.007825032230
         K            4.660484144579     0.000000000000     0.000000000000    38.963706486400

  Charge       = 1
  Multiplicity = 1
  Basis Set: AUG-CC-PVTZ
    Blend: AUG-CC-PVTZ
  Basis Set: (AUG-CC-PVTZ AUX)
    Blend: AUG-CC-PVTZ-JKFIT + DEF2-UNIVERSAL-JKFIT

    Orbital Energies [Eh]
    ---------------------

    Doubly Occupied:

       1A   -133.722064     2A    -20.766675     3A    -14.678942
       4A    -11.708984     5A    -11.708869     6A    -11.708784
       7A     -1.938655     8A     -1.557648     9A     -1.150621
      10A     -1.145376    11A     -1.144841    12A     -0.916637
      13A     -0.793016    14A     -0.713906

  @DF-RHF Final Energy:  -675.08290391239336

   => Energetics <=

    Nuclear Repulsion Energy =             49.1073147633405398
    One-Electron Energy =               -1021.0703980215063211
    Two-Electron Energy =                 296.8801793457723193
    Total Energy =                       -675.0829039123934763
 Dipole X            :        -83.5489157           87.4687270            3.9198114
 Dipole Y            :         -1.2899450            1.9374512            0.6475062
 Dipole Z            :         -0.1688514            0.2895117            0.1206603
 Magnitude           :                                                    3.9747634
  Basis Set: (AUG-CC-PVTZ AUX)
    Blend: AUG-CC-PVTZ-RI + DEF2-QZVPP-RI
	 Reference Energy          =    -675.0829039123933626 [Eh]
	 Singles Energy            =      -0.0000000000000000 [Eh]
	 Same-Spin Energy          =      -0.0995218007544758 [Eh]
	 Opposite-Spin Energy      =      -0.2868836163745002 [Eh]
	 Correlation Energy        =      -0.3864054171289760 [Eh]
	 Total Energy              =    -675.4693093295223889 [Eh]

	 ================> DF-SCS-MP2 Energies <==================
	-----------------------------------------------------------
	 SCS Same-Spin Scale       =       0.3333333333333333 [-]
	 SCS Opposite-Spin Scale   =       1.2000000000000000 [-]
	 SCS Same-Spin Energy      =      -0.0331739335848253 [Eh]
	 SCS Opposite-Spin Energy  =      -0.3442603396494002 [Eh]
	 SCS Correlation Energy    =      -0.3774342732342255 [Eh]
	 SCS Total Energy          =    -675.4603381856276201 [Eh]
	-----------------------------------------------------------

*** Psi4 exiting successfully. Buy a developer a beer!
