                               Psi4 1.9 release

  ==> Input File <==

--------------------------------------------------------------------------
MEMORY 60 GB

molecule dimer {
0 1
O      0.000000     0.000000     0.000000
H     -0.860634     0.359385     0.230606
H     -0.129686    -0.951316     0.034749
--
1 1
K      2.466222     0.000000     0.000000

units ang
no_reorient
no_com
symmetry c1
}

set {
basis        aug-cc-pVTZ
scf_type     df
}

energy("mp2", bsse_type="cp")
--------------------------------------------------------------------------

                               Psi4 1.9 release
    Molecular point group: c1
  Charge       = 1
  Multiplicity = 1
  Basis Set: AUG-CC-PVTZ
    Blend: AUG-CC-PVTZ
  Basis Set: (AUG-CC-PVTZ AUX)
    Blend: AUG-CC-PVTZ-JKFIT + DEF2-UNIVERSAL-JKFIT
  @DF-RHF Final Energy:  -599.01750890748565
    Total Energy =                       -599.0175089074856487
 Dipole X            :        -83.8890962           88.5491987            4.6601026
 Dipole Y            :         -0.0000504            0.0000000           -0.0000504
 Dipole Z            :          0.0000157            0.0000000            0.0000157
 Magnitude           :                                                    4.6601026
  Basis Set: (AUG-CC-PVTZ AUX)
    Blend: AUG-CC-PVTZ-RI + DEF2-QZVPP-RI
	 Reference Energy          =    -599.0175089074856487 [Eh]
	 Singles Energy            =      -0.0000000000000000 [Eh]
	 Same-Spin Energy          =      -0.0291104512316832 [Eh]
	 Opposite-Spin Energy      =      -0.0689870969182946 [Eh]
	 Correlation Energy        =      -0.0980975481499778 [Eh]
	 Total Energy              =    -599.1156064556356569 [Eh]
	 SCS Total Energy          =    -599.1099969075314675 [Eh]
                               Psi4 1.9 release
    Molecular point group: c1
  Multiplicity = 1
  Basis Set: AUG-CC-PVTZ
    Blend: AUG-CC-PVTZ
  Basis Set: (AUG-CC-PVTZ AUX)
    Blend: AUG-CC-PVTZ-JKFIT + DEF2-UNIVERSAL-JKFIT
  @DF-RHF Final Energy:   -76.06033574744518
    Total Energy =                        -76.0603357474451798
  Basis Set: (AUG-CC-PVTZ AUX)
	 Singles Energy            =      -0.0000000000000000 [Eh]
	 Same-Spin Energy          =      -0.0684285737452364 [Eh]
	 Opposite-Spin Energy      =      -0.2155388015350633 [Eh]
	 Correlation Energy        =      -0.2839673752802997 [Eh]
	 Total Energy              =     -76.3443031227254778 [Eh]
	 SCS Total Energy          =     -76.3417918338689958 [Eh]
                               Psi4 1.9 release
    Molecular point group: c1

    Geometry (in Bohr), charge = 1, multiplicity = 1:

       Center              X                  Y                   Z               Mass
    ------------   -----------------  -----------------  -----------------  -----------------
         O            0.000000000000     0.000000000000     0.000000000000    15.994914619570
         H           -1.626362554257     0.679139223598     0.435782182887     1.007825032230
         H           -0.245071022306    -1.797726698766     0.065666093134     1.007825032230
         K            4.660484144579     0.000000000000     0.000000000000    38.963706486400

  Charge       = 1
  Multiplicity = 1
  Basis Set: AUG-CC-PVTZ
    Blend: AUG-CC-PVTZ
  Basis Set: (AUG-CC-PVTZ AUX)
    Blend: AUG-CC-PVTZ-JKFIT + DEF2-UNIVERSAL-JKFIT

    Orbital Energies [Eh]
    ---------------------

    Doubly Occupied:

       1A   -133.707554     2A    -20.760433     3A    -14.664441
       4A    -11.694445     5A    -11.694397     6A    -11.694277
       7A     -1.924062     8A     -1.551356     9A     -1.133659
      10A     -1.131786    11A     -1.131464    12A     -0.911499
      13A     -0.792888    14A     -0.710061

  @DF-RHF Final Energy:  -675.09795942205176

   => Energetics <=

    Nuclear Repulsion Energy =             48.4110360782399809
    One-Electron Energy =               -1020.0133432371408162
    Two-Electron Energy =                 296.5043477368490699
    Total Energy =                       -675.0979594220518720
 Dipole X            :        -83.0501706           86.6777652            3.6275946
 Dipole Y            :          0.7400655           -1.1185875           -0.3785220
 Dipole Z            :         -0.3134951            0.5014483            0.1879532
 Magnitude           :                                                    3.6521292
  Basis Set: (AUG-CC-PVTZ AUX)
    Blend: AUG-CC-PVTZ-RI + DEF2-QZVPP-RI
	 Reference Energy          =    -675.0979594220517583 [Eh]
	 Singles Energy            =      -0.0000000000000000 [Eh]
	 Same-Spin Energy          =      -0.0986710379261881 [Eh]
	 Opposite-Spin Energy      =      -0.2845267966490875 [Eh]
	 Correlation Energy        =      -0.3831978345752756 [Eh]
	 Total Energy              =    -675.4811572566270570 [Eh]

	 ================> DF-SCS-MP2 Energies <==================
	-----------------------------------------------------------
	 SCS Same-Spin Scale       =       0.3333333333333333 [-]
	 SCS Opposite-Spin Scale   =       1.2000000000000000 [-]
	 SCS Same-Spin Energy      =      -0.0328903459753960 [Eh]
	 SCS Opposite-Spin Energy  =      -0.3414321559789050 [Eh]
	 SCS Correlation Energy    =      -0.3743225019543011 [Eh]
	 SCS Total Energy          =    -675.4722819240060971 [Eh]
	-----------------------------------------------------------

*** Psi4 exiting successfully. Buy a developer a beer!
