                               Psi4 1.9 release

  ==> Input File <==

--------------------------------------------------------------------------
MEMORY 60 GB

molecule dimer {
0 1
O      0.000000     0.000000     0.000000
H      0.112562     0.953649    -0.030161
H     -0.921155    -0.116533     0.246823
--
1 1
K      2.466222     0.000000     0.000000

units ang
no_reorient
no_com
symmetry c1
}

set {
basis        aug-cc-pVTZ
scf_type     df
}

energy("mp2", bsse_type="cp")
--------------------------------------------------------------------------

                               Psi4 1.9 release
    Molecular point group: c1
  Charge       = 1
  Multiplicity = 1
  Basis Set: AUG-CC-PVTZ
    Blend: AUG-CC-PVTZ
  Basis Set: (AUG-CC-PVTZ AUX)
    Blend: AUG-CC-PVTZ-JKFIT + DEF2-UNIVERSAL-JKFIT
  @DF-RHF Final Energy:  -599.01750909661860
    Total Energy =                       -599.0175090966185962
 Dipole X            :        -83.8891062           88.5491987            4.6600925
 Dipole Y            :          0.0000539            0.0000000            0.0000539
 Dipole Z            :         -0.0000051            0.0000000           -0.0000051
 Magnitude           :                                                    4.6600925
  Basis Set: (AUG-CC-PVTZ AUX)
    Blend: AUG-CC-PVTZ-RI + DEF2-QZVPP-RI
	 Reference Energy          =    -599.0175090966185962 [Eh]
	 Singles Energy            =      -0.0000000000000000 [Eh]
	 Same-Spin Energy          =      -0.0293155269144860 [Eh]
	 Opposite-Spin Energy      =      -0.0695273784282278 [Eh]
	 Correlation Energy        =      -0.0988429053427138 [Eh]
	 Total Energy              =    -599.1163520019613316 [Eh]
	 SCS Total Energy          =    -599.1107137930373483 [Eh]
                               Psi4 1.9 release
    Molecular point group: c1
  Multiplicity = 1
  Basis Set: AUG-CC-PVTZ
    Blend: AUG-CC-PVTZ
  Basis Set: (AUG-CC-PVTZ AUX)
    Blend: AUG-CC-PVTZ-JKFIT + DEF2-UNIVERSAL-JKFIT
  @DF-RHF Final Energy:   -76.06033344868979
    Total Energy =                        -76.0603334486897893
  Basis Set: (AUG-CC-PVTZ AUX)
	 Singles Energy            =      -0.0000000000000000 [Eh]
	 Same-Spin Energy          =      -0.0684292417127908 [Eh]
	 Opposite-Spin Energy      =      -0.2155503474361993 [Eh]
	 Correlation Energy        =      -0.2839795891489900 [Eh]
	 Total Energy              =     -76.3443130378387735 [Eh]
	 SCS Total Energy          =     -76.3418036128508248 [Eh]
                               Psi4 1.9 release
    Molecular point group: c1

    Geometry (in Bohr), charge = 1, multiplicity = 1:

       Center              X                  Y                   Z               Mass
    ------------   -----------------  -----------------  -----------------  -----------------
         O            0.000000000000     0.000000000000     0.000000000000    15.994914619570
         H            0.212711352134     1.802135429817    -0.056996029670     1.007825032230
         H           -1.740730669096    -0.220215454578     0.466427871464     1.007825032230
         K            4.660484144579     0.000000000000     0.000000000000    38.963706486400

  Charge       = 1
  Multiplicity = 1
  Basis Set: AUG-CC-PVTZ
    Blend: AUG-CC-PVTZ
  Basis Set: (AUG-CC-PVTZ AUX)
    Blend: AUG-CC-PVTZ-JKFIT + DEF2-UNIVERSAL-JKFIT

    Orbital Energies [Eh]
    ---------------------

    Doubly Occupied:

       1A   -133.713881     2A    -20.763100     3A    -14.670732
       4A    -11.700751     5A    -11.700681     6A    -11.700578
       7A     -1.930276     8A     -1.554040     9A     -1.140705
      10A     -1.137621    11A     -1.137132    12A     -0.913997
      13A     -0.792773    14A     -0.711708

  @DF-RHF Final Energy:  -675.09209879916409

   => Energetics <=

    Nuclear Repulsion Energy =             48.6945606212631077
    One-Electron Energy =               -1020.4373667799093255
    Two-Electron Energy =                 296.6507073594820554
    Total Energy =                       -675.0920987991642050
 Dipole X            :        -83.2657273           87.0211794            3.7554522
 Dipole Y            :         -1.0498640            1.5819200            0.5320559
 Dipole Z            :         -0.2512177            0.4094318            0.1582141
 Magnitude           :                                                    3.7962529
  Basis Set: (AUG-CC-PVTZ AUX)
    Blend: AUG-CC-PVTZ-RI + DEF2-QZVPP-RI
	 Reference Energy          =    -675.0920987991640914 [Eh]
	 Singles Energy            =      -0.0000000000000000 [Eh]
	 Same-Spin Energy          =      -0.0989521654247171 [Eh]
	 Opposite-Spin Energy      =      -0.2853174672424535 [Eh]
	 Correlation Energy        =      -0.3842696326671706 [Eh]
	 Total Energy              =    -675.4763684318312471 [Eh]

	 ================> DF-SCS-MP2 Energies <==================
	-----------------------------------------------------------
	 SCS Same-Spin Scale       =       0.3333333333333333 [-]
	 SCS Opposite-Spin Scale   =       1.2000000000000000 [-]
	 SCS Same-Spin Energy      =      -0.0329840551415724 [Eh]
	 SCS Opposite-Spin Energy  =      -0.3423809606909442 [Eh]
	 SCS Correlation Energy    =      -0.3753650158325166 [Eh]
	 SCS Total Energy          =    -675.4674638149965631 [Eh]
	-----------------------------------------------------------

*** Psi4 exiting successfully. Buy a developer a beer!
