                               Psi4 1.9 release

  ==> Input File <==

--------------------------------------------------------------------------
MEMORY 60 GB

molecule dimer {
0 1
O      0.000000     0.000000     0.000000
H     -0.571761     0.756733     0.153203
H     -0.571761    -0.756733     0.153203
--
1 1
K      2.466222     0.000000     0.000000

units ang
no_reorient
no_com
symmetry c1
}

set {
basis        aug-cc-pVTZ
scf_type     df
}

energy("mp2", bsse_type="cp")
--------------------------------------------------------------------------

                               Psi4 1.9 release
    Molecular point group: c1
  Charge       = 1
  Multiplicity = 1
  Basis Set: AUG-CC-PVTZ
    Blend: AUG-CC-PVTZ
  Basis Set: (AUG-CC-PVTZ AUX)
    Blend: AUG-CC-PVTZ-JKFIT + DEF2-UNIVERSAL-JKFIT
  @DF-RHF Final Energy:  -599.01750888743140
    Total Energy =                       -599.0175088874314042
 Dipole X            :        -83.8891423           88.5491987            4.6600565
 Dipole Y            :         -0.0000000            0.0000000           -0.0000000
 Dipole Z            :          0.0000406            0.0000000            0.0000406
 Magnitude           :                                                    4.6600565
  Basis Set: (AUG-CC-PVTZ AUX)
    Blend: AUG-CC-PVTZ-RI + DEF2-QZVPP-RI
	 Reference Energy          =    -599.0175088874314042 [Eh]
	 Singles Energy            =      -0.0000000000000000 [Eh]
	 Same-Spin Energy          =      -0.0290392590058803 [Eh]
	 Opposite-Spin Energy      =      -0.0687759437523637 [Eh]
	 Correlation Energy        =      -0.0978152027582441 [Eh]
	 Total Energy              =    -599.1153240901896879 [Eh]
	 SCS Total Energy          =    -599.1097197729361596 [Eh]
                               Psi4 1.9 release
    Molecular point group: c1
  Multiplicity = 1
  Basis Set: AUG-CC-PVTZ
    Blend: AUG-CC-PVTZ
  Basis Set: (AUG-CC-PVTZ AUX)
    Blend: AUG-CC-PVTZ-JKFIT + DEF2-UNIVERSAL-JKFIT
  @DF-RHF Final Energy:   -76.06033712648167
    Total Energy =                        -76.0603371264816701
  Basis Set: (AUG-CC-PVTZ AUX)
	 Singles Energy            =      -0.0000000000000000 [Eh]
	 Same-Spin Energy          =      -0.0684296687534330 [Eh]
	 Opposite-Spin Energy      =      -0.2155361865732091 [Eh]
	 Correlation Energy        =      -0.2839658553266420 [Eh]
	 Total Energy              =     -76.3443029818083119 [Eh]
	 SCS Total Energy          =     -76.3417904399539964 [Eh]
                               Psi4 1.9 release
    Molecular point group: c1

    Geometry (in Bohr), charge = 1, multiplicity = 1:

       Center              X                  Y                   Z               Mass
    ------------   -----------------  -----------------  -----------------  -----------------
         O            0.000000000000     0.000000000000     0.000000000000    15.994914619570
         H           -1.080471699218     1.430018120096     0.289511711599     1.007825032230
         H           -1.080471699218    -1.430018120096     0.289511711599     1.007825032230
         K            4.660484144579     0.000000000000     0.000000000000    38.963706486400

  Charge       = 1
  Multiplicity = 1
  Basis Set: AUG-CC-PVTZ
    Blend: AUG-CC-PVTZ
  Basis Set: (AUG-CC-PVTZ AUX)
    Blend: AUG-CC-PVTZ-JKFIT + DEF2-UNIVERSAL-JKFIT

    Orbital Energies [Eh]
    ---------------------

    Doubly Occupied:

       1A   -133.702111     2A    -20.758364     3A    -14.659062
       4A    -11.689054     5A    -11.689018     6A    -11.688881
       7A     -1.918868     8A     -1.549223     9A     -1.127532
      10A     -1.127149    11A     -1.126869    12A     -0.909213
      13A     -0.793306    14A     -0.708799

  @DF-RHF Final Energy:  -675.10234492855670

   => Energetics <=

    Nuclear Repulsion Energy =             48.1922576967500902
    One-Electron Energy =               -1019.6943066238649180
    Two-Electron Energy =                 296.3997039985581523
    Total Energy =                       -675.1023449285567040
 Dipole X            :        -82.8704920           86.3882553            3.5177634
 Dipole Y            :         -0.0000000            0.0000000           -0.0000000
 Dipole Z            :         -0.3654137            0.5790234            0.2136097
 Magnitude           :                                                    3.5242429
  Basis Set: (AUG-CC-PVTZ AUX)
    Blend: AUG-CC-PVTZ-RI + DEF2-QZVPP-RI
	 Reference Energy          =    -675.1023449285567040 [Eh]
	 Singles Energy            =      -0.0000000000000000 [Eh]
	 Same-Spin Energy          =      -0.0985543833370100 [Eh]
	 Opposite-Spin Energy      =      -0.2841579277959704 [Eh]
	 Correlation Energy        =      -0.3827123111329804 [Eh]
	 Total Energy              =    -675.4850572396896951 [Eh]

	 ================> DF-SCS-MP2 Energies <==================
	-----------------------------------------------------------
	 SCS Same-Spin Scale       =       0.3333333333333333 [-]
	 SCS Opposite-Spin Scale   =       1.2000000000000000 [-]
	 SCS Same-Spin Energy      =      -0.0328514611123367 [Eh]
	 SCS Opposite-Spin Energy  =      -0.3409895133551644 [Eh]
	 SCS Correlation Energy    =      -0.3738409744675011 [Eh]
	 SCS Total Energy          =    -675.4761859030242022 [Eh]
	-----------------------------------------------------------

*** Psi4 exiting successfully. Buy a developer a beer!
