                               Psi4 1.9 release

  ==> Input File <==

--------------------------------------------------------------------------
MEMORY 60 GB

molecule dimer {
0 1
O      0.000000     0.000000     0.000000
H      0.322985     0.897287    -0.086544
H      0.868996    -0.561815    -0.232847
--
-1 1
F      2.426389     0.000000     0.000000

units ang
no_reorient
no_com
symmetry c1
}

set {
basis        aug-cc-pVTZ
scf_type     df
}

energy("mp2", bsse_type="cp")
--------------------------------------------------------------------------

                               Psi4 1.9 release
    Molecular point group: c1
  Charge       = -1
  Multiplicity = 1
  Basis Set: AUG-CC-PVTZ
    Blend: AUG-CC-PVTZ
  Basis Set: (AUG-CC-PVTZ AUX)
    Blend: AUG-CC-PVTZ-JKFIT
  @DF-RHF Final Energy:   -99.45089268304054
    Total Energy =                        -99.4508926830405358
 Dipole X            :        -45.8529607           41.2668962           -4.5860645
 Dipole Y            :          0.0004969            0.0000000            0.0004969
 Dipole Z            :          0.0001999            0.0000000            0.0001999
 Magnitude           :                                                    4.5860646
  Basis Set: (AUG-CC-PVTZ AUX)
    Blend: AUG-CC-PVTZ-RI
	 Reference Energy          =     -99.4508926830405358 [Eh]
	 Singles Energy            =      -0.0000000000000000 [Eh]
	 Same-Spin Energy          =      -0.0817144759401992 [Eh]
	 Opposite-Spin Energy      =      -0.2275525690534836 [Eh]
	 Correlation Energy        =      -0.3092670449936827 [Eh]
	 Total Energy              =     -99.7601597280342247 [Eh]
	 SCS Total Energy          =     -99.7511939245514441 [Eh]
                               Psi4 1.9 release
    Molecular point group: c1
  Multiplicity = 1
  Basis Set: AUG-CC-PVTZ
    Blend: AUG-CC-PVTZ
  Basis Set: (AUG-CC-PVTZ AUX)
    Blend: AUG-CC-PVTZ-JKFIT
  @DF-RHF Final Energy:   -76.04859749980946
    Total Energy =                        -76.0485974998094605
  Basis Set: (AUG-CC-PVTZ AUX)
	 Singles Energy            =      -0.0000000000000000 [Eh]
	 Same-Spin Energy          =      -0.0692909393626088 [Eh]
	 Opposite-Spin Energy      =      -0.2184774163231890 [Eh]
	 Correlation Energy        =      -0.2877683556857977 [Eh]
	 Total Energy              =     -76.3363658554952593 [Eh]
	 SCS Total Energy          =     -76.3338673791848237 [Eh]
                               Psi4 1.9 release
    Molecular point group: c1

    Geometry (in Bohr), charge = -1, multiplicity = 1:

       Center              X                  Y                   Z               Mass
    ------------   -----------------  -----------------  -----------------  -----------------
         O            0.000000000000     0.000000000000     0.000000000000    15.994914619570
         H            0.610353192631     1.695626685934    -0.163544457802     1.007825032230
         H            1.642164444118    -1.061676483174    -0.440017059134     1.007825032230
         F            4.585210683823     0.000000000000     0.000000000000    18.998403162730

  Charge       = -1
  Multiplicity = 1
  Basis Set: AUG-CC-PVTZ
    Blend: AUG-CC-PVTZ
  Basis Set: (AUG-CC-PVTZ AUX)
    Blend: AUG-CC-PVTZ-JKFIT

    Orbital Energies [Eh]
    ---------------------

    Doubly Occupied:

       1A    -25.877956     2A    -20.329000     3A     -1.137673
       4A     -1.089112     5A     -0.455051     6A     -0.364423
       7A     -0.275792     8A     -0.232264     9A     -0.229575
      10A     -0.217692

  @DF-RHF Final Energy:  -175.52787246689547

   => Energetics <=

    Nuclear Repulsion Energy =             29.3828827787789173
    One-Electron Energy =                -309.4044345702367309
    Two-Electron Energy =                 104.4936793245623505
    Total Energy =                       -175.5278724668954453
 Dipole X            :        -46.7395785           43.5194138           -3.2201647
 Dipole Y            :         -0.4379576            0.6339502            0.1959926
 Dipole Z            :          0.4310099           -0.6035615           -0.1725516
 Magnitude           :                                                    3.2307349
  Basis Set: (AUG-CC-PVTZ AUX)
    Blend: AUG-CC-PVTZ-RI
	 Reference Energy          =    -175.5278724668954737 [Eh]
	 Singles Energy            =      -0.0000000000000000 [Eh]
	 Same-Spin Energy          =      -0.1532440927482666 [Eh]
	 Opposite-Spin Energy      =      -0.4457893480096875 [Eh]
	 Correlation Energy        =      -0.5990334407579541 [Eh]
	 Total Energy              =    -176.1269059076534234 [Eh]

	 ================> DF-SCS-MP2 Energies <==================
	-----------------------------------------------------------
	 SCS Same-Spin Scale       =       0.3333333333333333 [-]
	 SCS Opposite-Spin Scale   =       1.2000000000000000 [-]
	 SCS Same-Spin Energy      =      -0.0510813642494222 [Eh]
	 SCS Opposite-Spin Energy  =      -0.5349472176116250 [Eh]
	 SCS Correlation Energy    =      -0.5860285818610472 [Eh]
	 SCS Total Energy          =    -176.1139010487565315 [Eh]
	-----------------------------------------------------------

*** Psi4 exiting successfully. Buy a developer a beer!
