                               Psi4 1.9 release

  ==> Input File <==

--------------------------------------------------------------------------
MEMORY 60 GB

molecule dimer {
0 1
O      0.000000     0.000000     0.000000
H     -0.153643     0.944263     0.041169
H      1.023908    -0.036721    -0.274355
--
-1 1
F      2.426389     0.000000     0.000000

units ang
no_reorient
no_com
symmetry c1
}

set {
basis        aug-cc-pVTZ
scf_type     df
}

energy("mp2", bsse_type="cp")
--------------------------------------------------------------------------

                               Psi4 1.9 release
    Molecular point group: c1
  Charge       = -1
  Multiplicity = 1
  Basis Set: AUG-CC-PVTZ
    Blend: AUG-CC-PVTZ
  Basis Set: (AUG-CC-PVTZ AUX)
    Blend: AUG-CC-PVTZ-JKFIT
  @DF-RHF Final Energy:   -99.45090413634131
    Total Energy =                        -99.4509041363413075
 Dipole X            :        -45.8518187           41.2668962           -4.5849226
 Dipole Y            :          0.0002045            0.0000000            0.0002045
 Dipole Z            :          0.0006152            0.0000000            0.0006152
 Magnitude           :                                                    4.5849226
  Basis Set: (AUG-CC-PVTZ AUX)
    Blend: AUG-CC-PVTZ-RI
	 Reference Energy          =     -99.4509041363413075 [Eh]
	 Singles Energy            =      -0.0000000000000000 [Eh]
	 Same-Spin Energy          =      -0.0817495730988789 [Eh]
	 Opposite-Spin Energy      =      -0.2280723492764758 [Eh]
	 Correlation Energy        =      -0.3098219223753547 [Eh]
	 Total Energy              =     -99.7607260587166564 [Eh]
	 SCS Total Energy          =     -99.7518408131727057 [Eh]
                               Psi4 1.9 release
    Molecular point group: c1
  Multiplicity = 1
  Basis Set: AUG-CC-PVTZ
    Blend: AUG-CC-PVTZ
  Basis Set: (AUG-CC-PVTZ AUX)
    Blend: AUG-CC-PVTZ-JKFIT
  @DF-RHF Final Energy:   -76.04861326302490
    Total Energy =                        -76.0486132630249188
  Basis Set: (AUG-CC-PVTZ AUX)
	 Singles Energy            =      -0.0000000000000000 [Eh]
	 Same-Spin Energy          =      -0.0693149017861100 [Eh]
	 Opposite-Spin Energy      =      -0.2188556644047100 [Eh]
	 Correlation Energy        =      -0.2881705661908200 [Eh]
	 Total Energy              =     -76.3367838292157188 [Eh]
	 SCS Total Energy          =     -76.3343450275725957 [Eh]
                               Psi4 1.9 release
    Molecular point group: c1

    Geometry (in Bohr), charge = -1, multiplicity = 1:

       Center              X                  Y                   Z               Mass
    ------------   -----------------  -----------------  -----------------  -----------------
         O            0.000000000000     0.000000000000     0.000000000000    15.994914619570
         H           -0.290343191094     1.784398460403     0.077798134859     1.007825032230
         H            1.934905697665    -0.069392633053    -0.518455811150     1.007825032230
         F            4.585210683823     0.000000000000     0.000000000000    18.998403162730

  Charge       = -1
  Multiplicity = 1
  Basis Set: AUG-CC-PVTZ
    Blend: AUG-CC-PVTZ
  Basis Set: (AUG-CC-PVTZ AUX)
    Blend: AUG-CC-PVTZ-JKFIT

    Orbital Energies [Eh]
    ---------------------

    Doubly Occupied:

       1A    -25.896132     2A    -20.315699     3A     -1.160022
       4A     -1.082661     5A     -0.454212     6A     -0.358007
       7A     -0.270931     8A     -0.251916     9A     -0.244883
      10A     -0.229168

  @DF-RHF Final Energy:  -175.54101142657834

   => Energetics <=

    Nuclear Repulsion Energy =             29.5180160013639430
    One-Electron Energy =                -309.5907931600701772
    Two-Electron Energy =                 104.5317657321278801
    Total Energy =                       -175.5410114265783363
 Dipole X            :        -46.0874220           42.9114587           -3.1759634
 Dipole Y            :         -1.2031782            1.7150058            0.5118276
 Dipole Z            :          0.3237565           -0.4406577           -0.1169012
 Magnitude           :                                                    3.2190646
  Basis Set: (AUG-CC-PVTZ AUX)
    Blend: AUG-CC-PVTZ-RI
	 Reference Energy          =    -175.5410114265783363 [Eh]
	 Singles Energy            =      -0.0000000000000000 [Eh]
	 Same-Spin Energy          =      -0.1538195419411477 [Eh]
	 Opposite-Spin Energy      =      -0.4461749218732870 [Eh]
	 Correlation Energy        =      -0.5999944638144348 [Eh]
	 Total Energy              =    -176.1410058903927620 [Eh]

	 ================> DF-SCS-MP2 Energies <==================
	-----------------------------------------------------------
	 SCS Same-Spin Scale       =       0.3333333333333333 [-]
	 SCS Opposite-Spin Scale   =       1.2000000000000000 [-]
	 SCS Same-Spin Energy      =      -0.0512731806470492 [Eh]
	 SCS Opposite-Spin Energy  =      -0.5354099062479444 [Eh]
	 SCS Correlation Energy    =      -0.5866830868949936 [Eh]
	 SCS Total Energy          =    -176.1276945134733296 [Eh]
	-----------------------------------------------------------

*** Psi4 exiting successfully. Buy a developer a beer!
