                               Psi4 1.9 release

  ==> Input File <==

--------------------------------------------------------------------------
MEMORY 60 GB

molecule dimer {
0 1
O      0.000000     0.000000     0.000000
H     -0.589103     0.738224     0.157850
H      0.904466     0.498213    -0.242351
--
-1 1
F      2.426389     0.000000     0.000000

units ang
no_reorient
no_com
symmetry c1
}

set {
basis        aug-cc-pVTZ
scf_type     df
}

energy("mp2", bsse_type="cp")
--------------------------------------------------------------------------

                               Psi4 1.9 release
    Molecular point group: c1
  Charge       = -1
  Multiplicity = 1
  Basis Set: AUG-CC-PVTZ
    Blend: AUG-CC-PVTZ
  Basis Set: (AUG-CC-PVTZ AUX)
    Blend: AUG-CC-PVTZ-JKFIT
  @DF-RHF Final Energy:   -99.45088913504300
    Total Energy =                        -99.4508891350429849
 Dipole X            :        -45.8523509           41.2668962           -4.5854548
 Dipole Y            :         -0.0000114            0.0000000           -0.0000114
 Dipole Z            :          0.0000875            0.0000000            0.0000875
 Magnitude           :                                                    4.5854548
  Basis Set: (AUG-CC-PVTZ AUX)
    Blend: AUG-CC-PVTZ-RI
	 Reference Energy          =     -99.4508891350429991 [Eh]
	 Singles Energy            =      -0.0000000000000000 [Eh]
	 Same-Spin Energy          =      -0.0817076348694293 [Eh]
	 Opposite-Spin Energy      =      -0.2276227885416523 [Eh]
	 Correlation Energy        =      -0.3093304234110816 [Eh]
	 Total Energy              =     -99.7602195584540823 [Eh]
	 SCS Total Energy          =     -99.7512723595827850 [Eh]
                               Psi4 1.9 release
    Molecular point group: c1
  Multiplicity = 1
  Basis Set: AUG-CC-PVTZ
    Blend: AUG-CC-PVTZ
  Basis Set: (AUG-CC-PVTZ AUX)
    Blend: AUG-CC-PVTZ-JKFIT
  @DF-RHF Final Energy:   -76.04859893882887
    Total Energy =                        -76.0485989388288743
  Basis Set: (AUG-CC-PVTZ AUX)
	 Singles Energy            =      -0.0000000000000000 [Eh]
	 Same-Spin Energy          =      -0.0692942920310634 [Eh]
	 Opposite-Spin Energy      =      -0.2184973168838429 [Eh]
	 Correlation Energy        =      -0.2877916089149063 [Eh]
	 Total Energy              =     -76.3363905477437754 [Eh]
	 SCS Total Energy          =     -76.3338938164331751 [Eh]
                               Psi4 1.9 release
    Molecular point group: c1

    Geometry (in Bohr), charge = -1, multiplicity = 1:

       Center              X                  Y                   Z               Mass
    ------------   -----------------  -----------------  -----------------  -----------------
         O            0.000000000000     0.000000000000     0.000000000000    15.994914619570
         H           -1.113243329686     1.395041179240     0.298293268904     1.007825032230
         H            1.709193029788     0.941486122143    -0.457977016231     1.007825032230
         F            4.585210683823     0.000000000000     0.000000000000    18.998403162730

  Charge       = -1
  Multiplicity = 1
  Basis Set: AUG-CC-PVTZ
    Blend: AUG-CC-PVTZ
  Basis Set: (AUG-CC-PVTZ AUX)
    Blend: AUG-CC-PVTZ-JKFIT

    Orbital Energies [Eh]
    ---------------------

    Doubly Occupied:

       1A    -25.870709     2A    -20.340467     3A     -1.131005
       4A     -1.098560     5A     -0.463228     6A     -0.360282
       7A     -0.282221     8A     -0.223724     9A     -0.222458
      10A     -0.216347

  @DF-RHF Final Energy:  -175.52096354797325

   => Energetics <=

    Nuclear Repulsion Energy =             28.9257870646311659
    One-Electron Energy =                -308.4754982118845419
    Two-Electron Energy =                 104.0287475992801518
    Total Energy =                       -175.5209635479732242
 Dipole X            :        -45.6084594           41.8628459           -3.7456136
 Dipole Y            :         -1.6373577            2.3365273            0.6991696
 Dipole Z            :          0.1261320           -0.1596837           -0.0335518
 Magnitude           :                                                    3.8104573
  Basis Set: (AUG-CC-PVTZ AUX)
    Blend: AUG-CC-PVTZ-RI
	 Reference Energy          =    -175.5209635479732526 [Eh]
	 Singles Energy            =      -0.0000000000000000 [Eh]
	 Same-Spin Energy          =      -0.1539382602108491 [Eh]
	 Opposite-Spin Energy      =      -0.4472981229129297 [Eh]
	 Correlation Energy        =      -0.6012363831237788 [Eh]
	 Total Energy              =    -176.1221999310970432 [Eh]

	 ================> DF-SCS-MP2 Energies <==================
	-----------------------------------------------------------
	 SCS Same-Spin Scale       =       0.3333333333333333 [-]
	 SCS Opposite-Spin Scale   =       1.2000000000000000 [-]
	 SCS Same-Spin Energy      =      -0.0513127534036164 [Eh]
	 SCS Opposite-Spin Energy  =      -0.5367577474955156 [Eh]
	 SCS Correlation Energy    =      -0.5880705008991320 [Eh]
	 SCS Total Energy          =    -176.1090340488723882 [Eh]
	-----------------------------------------------------------

*** Psi4 exiting successfully. Buy a developer a beer!
