                               Psi4 1.9 release

  ==> Input File <==

--------------------------------------------------------------------------
MEMORY 60 GB

molecule dimer {
0 1
O      0.000000     0.000000     0.000000
H      0.087658     0.953257    -0.023488
H      0.979839    -0.309825    -0.262547
--
-1 1
F      2.426389     0.000000     0.000000

units ang
no_reorient
no_com
symmetry c1
}

set {
basis        aug-cc-pVTZ
scf_type     df
}

energy("mp2", bsse_type="cp")
--------------------------------------------------------------------------

                               Psi4 1.9 release
    Molecular point group: c1
  Charge       = -1
  Multiplicity = 1
  Basis Set: AUG-CC-PVTZ
    Blend: AUG-CC-PVTZ
  Basis Set: (AUG-CC-PVTZ AUX)
    Blend: AUG-CC-PVTZ-JKFIT
  @DF-RHF Final Energy:   -99.45089976628908
    Total Energy =                        -99.4508997662890835
 Dipole X            :        -45.8523371           41.2668962           -4.5854410
 Dipole Y            :          0.0003277            0.0000000            0.0003277
 Dipole Z            :          0.0005205            0.0000000            0.0005205
 Magnitude           :                                                    4.5854410
  Basis Set: (AUG-CC-PVTZ AUX)
    Blend: AUG-CC-PVTZ-RI
	 Reference Energy          =     -99.4508997662890835 [Eh]
	 Singles Energy            =      -0.0000000000000000 [Eh]
	 Same-Spin Energy          =      -0.0817292811108151 [Eh]
	 Opposite-Spin Energy      =      -0.2278732715140960 [Eh]
	 Correlation Energy        =      -0.3096025526249111 [Eh]
	 Total Energy              =     -99.7605023189139928 [Eh]
	 SCS Total Energy          =     -99.7515907858095972 [Eh]
                               Psi4 1.9 release
    Molecular point group: c1
  Multiplicity = 1
  Basis Set: AUG-CC-PVTZ
    Blend: AUG-CC-PVTZ
  Basis Set: (AUG-CC-PVTZ AUX)
    Blend: AUG-CC-PVTZ-JKFIT
  @DF-RHF Final Energy:   -76.04860562733107
    Total Energy =                        -76.0486056273310851
  Basis Set: (AUG-CC-PVTZ AUX)
	 Singles Energy            =      -0.0000000000000000 [Eh]
	 Same-Spin Energy          =      -0.0693030320921365 [Eh]
	 Opposite-Spin Energy      =      -0.2186873036129780 [Eh]
	 Correlation Energy        =      -0.2879903357051145 [Eh]
	 Total Energy              =     -76.3365959630361886 [Eh]
	 SCS Total Energy          =     -76.3341314023640223 [Eh]
                               Psi4 1.9 release
    Molecular point group: c1

    Geometry (in Bohr), charge = -1, multiplicity = 1:

       Center              X                  Y                   Z               Mass
    ------------   -----------------  -----------------  -----------------  -----------------
         O            0.000000000000     0.000000000000     0.000000000000    15.994914619570
         H            0.165649612705     1.801394657176    -0.044385887235     1.007825032230
         H            1.851627357042    -0.585484396820    -0.496141925061     1.007825032230
         F            4.585210683823     0.000000000000     0.000000000000    18.998403162730

  Charge       = -1
  Multiplicity = 1
  Basis Set: AUG-CC-PVTZ
    Blend: AUG-CC-PVTZ
  Basis Set: (AUG-CC-PVTZ AUX)
    Blend: AUG-CC-PVTZ-JKFIT

    Orbital Energies [Eh]
    ---------------------

    Doubly Occupied:

       1A    -25.890618     2A    -20.319048     3A     -1.152540
       4A     -1.084023     5A     -0.452907     6A     -0.361283
       7A     -0.271269     8A     -0.245948     9A     -0.240628
      10A     -0.224865

  @DF-RHF Final Energy:  -175.53676069608289

   => Energetics <=

    Nuclear Repulsion Energy =             29.5086717937168359
    One-Electron Energy =                -309.6046051089094817
    Two-Electron Energy =                 104.5591726191097877
    Total Energy =                       -175.5367606960828653
 Dipole X            :        -46.4240360           43.2841731           -3.1398629
 Dipole Y            :         -0.8479897            1.2159103            0.3679206
 Dipole Z            :          0.3911162           -0.5405278           -0.1494116
 Magnitude           :                                                    3.1648742
  Basis Set: (AUG-CC-PVTZ AUX)
    Blend: AUG-CC-PVTZ-RI
	 Reference Energy          =    -175.5367606960828937 [Eh]
	 Singles Energy            =      -0.0000000000000000 [Eh]
	 Same-Spin Energy          =      -0.1535979871237917 [Eh]
	 Opposite-Spin Energy      =      -0.4459281888146757 [Eh]
	 Correlation Energy        =      -0.5995261759384674 [Eh]
	 Total Energy              =    -176.1362868720213726 [Eh]

	 ================> DF-SCS-MP2 Energies <==================
	-----------------------------------------------------------
	 SCS Same-Spin Scale       =       0.3333333333333333 [-]
	 SCS Opposite-Spin Scale   =       1.2000000000000000 [-]
	 SCS Same-Spin Energy      =      -0.0511993290412639 [Eh]
	 SCS Opposite-Spin Energy  =      -0.5351138265776108 [Eh]
	 SCS Correlation Energy    =      -0.5863131556188746 [Eh]
	 SCS Total Energy          =    -176.1230738517017755 [Eh]
	-----------------------------------------------------------

*** Psi4 exiting successfully. Buy a developer a beer!
