                               Psi4 1.9 release

  ==> Input File <==

--------------------------------------------------------------------------
MEMORY 60 GB

molecule dimer {
0 1
O      0.000000     0.000000     0.000000
H     -0.866713     0.334379     0.232235
H      0.542672     0.899651    -0.145409
--
-1 1
F      2.426389     0.000000     0.000000

units ang
no_reorient
no_com
symmetry c1
}

set {
basis        aug-cc-pVTZ
scf_type     df
}

energy("mp2", bsse_type="cp")
--------------------------------------------------------------------------

                               Psi4 1.9 release
    Molecular point group: c1
  Charge       = -1
  Multiplicity = 1
  Basis Set: AUG-CC-PVTZ
    Blend: AUG-CC-PVTZ
  Basis Set: (AUG-CC-PVTZ AUX)
    Blend: AUG-CC-PVTZ-JKFIT
  @DF-RHF Final Energy:   -99.45087091035917
    Total Energy =                        -99.4508709103591713
 Dipole X            :        -45.8524314           41.2668962           -4.5855353
 Dipole Y            :         -0.0000482            0.0000000           -0.0000482
 Dipole Z            :          0.0000222            0.0000000            0.0000222
 Magnitude           :                                                    4.5855353
  Basis Set: (AUG-CC-PVTZ AUX)
    Blend: AUG-CC-PVTZ-RI
	 Reference Energy          =     -99.4508709103591713 [Eh]
	 Singles Energy            =      -0.0000000000000000 [Eh]
	 Same-Spin Energy          =      -0.0816629872415892 [Eh]
	 Opposite-Spin Energy      =      -0.2269548203150787 [Eh]
	 Correlation Energy        =      -0.3086178075566678 [Eh]
	 Total Energy              =     -99.7594887179158434 [Eh]
	 SCS Total Energy          =     -99.7504376904844605 [Eh]
                               Psi4 1.9 release
    Molecular point group: c1
  Multiplicity = 1
  Basis Set: AUG-CC-PVTZ
    Blend: AUG-CC-PVTZ
  Basis Set: (AUG-CC-PVTZ AUX)
    Blend: AUG-CC-PVTZ-JKFIT
  @DF-RHF Final Energy:   -76.04859957957260
    Total Energy =                        -76.0485995795725955
  Basis Set: (AUG-CC-PVTZ AUX)
	 Singles Energy            =      -0.0000000000000000 [Eh]
	 Same-Spin Energy          =      -0.0692833914595072 [Eh]
	 Opposite-Spin Energy      =      -0.2183955718487229 [Eh]
	 Correlation Energy        =      -0.2876789633082301 [Eh]
	 Total Energy              =     -76.3362785428808195 [Eh]
	 SCS Total Energy          =     -76.3337687296108953 [Eh]
                               Psi4 1.9 release
    Molecular point group: c1

    Geometry (in Bohr), charge = -1, multiplicity = 1:

       Center              X                  Y                   Z               Mass
    ------------   -----------------  -----------------  -----------------  -----------------
         O            0.000000000000     0.000000000000     0.000000000000    15.994914619570
         H           -1.637850199374     0.631884732104     0.438860546746     1.007825032230
         H            1.025501455954     1.700093998494    -0.274783186177     1.007825032230
         F            4.585210683823     0.000000000000     0.000000000000    18.998403162730

  Charge       = -1
  Multiplicity = 1
  Basis Set: AUG-CC-PVTZ
    Blend: AUG-CC-PVTZ
  Basis Set: (AUG-CC-PVTZ AUX)
    Blend: AUG-CC-PVTZ-JKFIT

    Orbital Energies [Eh]
    ---------------------

    Doubly Occupied:

       1A    -25.835030     2A    -20.372868     3A     -1.130670
       4A     -1.081840     5A     -0.479864     6A     -0.374914
       7A     -0.304110     8A     -0.186245     9A     -0.185691
      10A     -0.184519

  @DF-RHF Final Energy:  -175.49232720895188

   => Energetics <=

    Nuclear Repulsion Energy =             28.1643933566632825
    One-Electron Energy =                -307.0419422942401866
    Two-Electron Energy =                 103.3852217286249697
    Total Energy =                       -175.4923272089519060
 Dipole X            :        -45.1100023           40.6545474           -4.4554549
 Dipole Y            :         -1.6316393            2.3319787            0.7003395
 Dipole Z            :         -0.1012144            0.1640774            0.0628629
 Magnitude           :                                                    4.5105993
  Basis Set: (AUG-CC-PVTZ AUX)
    Blend: AUG-CC-PVTZ-RI
	 Reference Energy          =    -175.4923272089518775 [Eh]
	 Singles Energy            =      -0.0000000000000000 [Eh]
	 Same-Spin Energy          =      -0.1532160484483787 [Eh]
	 Opposite-Spin Energy      =      -0.4477434644684668 [Eh]
	 Correlation Energy        =      -0.6009595129168455 [Eh]
	 Total Energy              =    -176.0932867218687363 [Eh]

	 ================> DF-SCS-MP2 Energies <==================
	-----------------------------------------------------------
	 SCS Same-Spin Scale       =       0.3333333333333333 [-]
	 SCS Opposite-Spin Scale   =       1.2000000000000000 [-]
	 SCS Same-Spin Energy      =      -0.0510720161494596 [Eh]
	 SCS Opposite-Spin Energy  =      -0.5372921573621602 [Eh]
	 SCS Correlation Energy    =      -0.5883641735116197 [Eh]
	 SCS Total Energy          =    -176.0806913824634989 [Eh]
	-----------------------------------------------------------

*** Psi4 exiting successfully. Buy a developer a beer!
