                               Psi4 1.9 release

  ==> Input File <==

--------------------------------------------------------------------------
MEMORY 60 GB

molecule dimer {
0 1
O      0.000000     0.000000     0.000000
H      0.536302     0.780169    -0.143702
H      0.698932    -0.775519    -0.187278
--
-1 1
F      2.426389     0.000000     0.000000

units ang
no_reorient
no_com
symmetry c1
}

set {
basis        aug-cc-pVTZ
scf_type     df
}

energy("mp2", bsse_type="cp")
--------------------------------------------------------------------------

                               Psi4 1.9 release
    Molecular point group: c1
  Charge       = -1
  Multiplicity = 1
  Basis Set: AUG-CC-PVTZ
    Blend: AUG-CC-PVTZ
  Basis Set: (AUG-CC-PVTZ AUX)
    Blend: AUG-CC-PVTZ-JKFIT
  @DF-RHF Final Energy:   -99.45089062971989
    Total Energy =                        -99.4508906297199076
 Dipole X            :        -45.8530778           41.2668962           -4.5861816
 Dipole Y            :          0.0001183            0.0000000            0.0001183
 Dipole Z            :         -0.0000054            0.0000000           -0.0000054
 Magnitude           :                                                    4.5861816
  Basis Set: (AUG-CC-PVTZ AUX)
    Blend: AUG-CC-PVTZ-RI
	 Reference Energy          =     -99.4508906297198934 [Eh]
	 Singles Energy            =      -0.0000000000000000 [Eh]
	 Same-Spin Energy          =      -0.0817095975652482 [Eh]
	 Opposite-Spin Energy      =      -0.2273122360551082 [Eh]
	 Correlation Energy        =      -0.3090218336203565 [Eh]
	 Total Energy              =     -99.7599124633402567 [Eh]
	 SCS Total Energy          =     -99.7509018455077694 [Eh]
                               Psi4 1.9 release
    Molecular point group: c1
  Multiplicity = 1
  Basis Set: AUG-CC-PVTZ
    Blend: AUG-CC-PVTZ
  Basis Set: (AUG-CC-PVTZ AUX)
    Blend: AUG-CC-PVTZ-JKFIT
  @DF-RHF Final Energy:   -76.04859480162543
    Total Energy =                        -76.0485948016254270
  Basis Set: (AUG-CC-PVTZ AUX)
	 Singles Energy            =      -0.0000000000000000 [Eh]
	 Same-Spin Energy          =      -0.0692879085982324 [Eh]
	 Opposite-Spin Energy      =      -0.2184257934193077 [Eh]
	 Correlation Energy        =      -0.2877137020175401 [Eh]
	 Total Energy              =     -76.3363085036429680 [Eh]
	 SCS Total Energy          =     -76.3338017232613453 [Eh]
                               Psi4 1.9 release
    Molecular point group: c1

    Geometry (in Bohr), charge = -1, multiplicity = 1:

       Center              X                  Y                   Z               Mass
    ------------   -----------------  -----------------  -----------------  -----------------
         O            0.000000000000     0.000000000000     0.000000000000    15.994914619570
         H            1.013463900535     1.474305741572    -0.271557423681     1.007825032230
         H            1.320790060318    -1.465518515089    -0.353904129323     1.007825032230
         F            4.585210683823     0.000000000000     0.000000000000    18.998403162730

  Charge       = -1
  Multiplicity = 1
  Basis Set: AUG-CC-PVTZ
    Blend: AUG-CC-PVTZ
  Basis Set: (AUG-CC-PVTZ AUX)
    Blend: AUG-CC-PVTZ-JKFIT

    Orbital Energies [Eh]
    ---------------------

    Doubly Occupied:

       1A    -25.868246     2A    -20.337517     3A     -1.128246
       4A     -1.092429     5A     -0.458767     6A     -0.366456
       7A     -0.281075     8A     -0.222021     9A     -0.220470
      10A     -0.212578

  @DF-RHF Final Energy:  -175.52187918871107

   => Energetics <=

    Nuclear Repulsion Energy =             29.2795257789705694
    One-Electron Energy =                -309.2271992704513082
    Two-Electron Energy =                 104.4257943027696598
    Total Energy =                       -175.5218791887110683
 Dipole X            :        -46.9095520           43.6011501           -3.3084019
 Dipole Y            :         -0.0021717            0.0087872            0.0066156
 Dipole Z            :          0.4441272           -0.6254616           -0.1813344
 Magnitude           :                                                    3.3133743
  Basis Set: (AUG-CC-PVTZ AUX)
    Blend: AUG-CC-PVTZ-RI
	 Reference Energy          =    -175.5218791887110683 [Eh]
	 Singles Energy            =      -0.0000000000000000 [Eh]
	 Same-Spin Energy          =      -0.1528338045690938 [Eh]
	 Opposite-Spin Energy      =      -0.4456131028808356 [Eh]
	 Correlation Energy        =      -0.5984469074499295 [Eh]
	 Total Energy              =    -176.1203260961609942 [Eh]

	 ================> DF-SCS-MP2 Energies <==================
	-----------------------------------------------------------
	 SCS Same-Spin Scale       =       0.3333333333333333 [-]
	 SCS Opposite-Spin Scale   =       1.2000000000000000 [-]
	 SCS Same-Spin Energy      =      -0.0509446015230313 [Eh]
	 SCS Opposite-Spin Energy  =      -0.5347357234570027 [Eh]
	 SCS Correlation Energy    =      -0.5856803249800340 [Eh]
	 SCS Total Energy          =    -176.1075595136911147 [Eh]
	-----------------------------------------------------------

*** Psi4 exiting successfully. Buy a developer a beer!
