                               Psi4 1.9 release

  ==> Input File <==

--------------------------------------------------------------------------
MEMORY 60 GB

molecule dimer {
0 1
O      0.000000     0.000000     0.000000
H     -0.753586     0.555220     0.201923
H      0.749093     0.723587    -0.200719
--
-1 1
F      2.426389     0.000000     0.000000

units ang
no_reorient
no_com
symmetry c1
}

set {
basis        aug-cc-pVTZ
scf_type     df
}

energy("mp2", bsse_type="cp")
--------------------------------------------------------------------------

                               Psi4 1.9 release
    Molecular point group: c1
  Charge       = -1
  Multiplicity = 1
  Basis Set: AUG-CC-PVTZ
    Blend: AUG-CC-PVTZ
  Basis Set: (AUG-CC-PVTZ AUX)
    Blend: AUG-CC-PVTZ-JKFIT
  @DF-RHF Final Energy:   -99.45087684393654
    Total Energy =                        -99.4508768439365411
 Dipole X            :        -45.8525324           41.2668962           -4.5856362
 Dipole Y            :          0.0000300            0.0000000            0.0000300
 Dipole Z            :          0.0001044            0.0000000            0.0001044
 Magnitude           :                                                    4.5856362
  Basis Set: (AUG-CC-PVTZ AUX)
    Blend: AUG-CC-PVTZ-RI
	 Reference Energy          =     -99.4508768439365411 [Eh]
	 Singles Energy            =      -0.0000000000000000 [Eh]
	 Same-Spin Energy          =      -0.0816857334049239 [Eh]
	 Opposite-Spin Energy      =      -0.2272397005456657 [Eh]
	 Correlation Energy        =      -0.3089254339505896 [Eh]
	 Total Energy              =     -99.7598022778871325 [Eh]
	 SCS Total Energy          =     -99.7507930623929866 [Eh]
                               Psi4 1.9 release
    Molecular point group: c1
  Multiplicity = 1
  Basis Set: AUG-CC-PVTZ
    Blend: AUG-CC-PVTZ
  Basis Set: (AUG-CC-PVTZ AUX)
    Blend: AUG-CC-PVTZ-JKFIT
  @DF-RHF Final Energy:   -76.04859784531435
    Total Energy =                        -76.0485978453143616
  Basis Set: (AUG-CC-PVTZ AUX)
	 Singles Energy            =      -0.0000000000000000 [Eh]
	 Same-Spin Energy          =      -0.0692858957000254 [Eh]
	 Opposite-Spin Energy      =      -0.2184318839620926 [Eh]
	 Correlation Energy        =      -0.2877177796621180 [Eh]
	 Total Energy              =     -76.3363156249764643 [Eh]
	 SCS Total Energy          =     -76.3338114046355400 [Eh]
                               Psi4 1.9 release
    Molecular point group: c1

    Geometry (in Bohr), charge = -1, multiplicity = 1:

       Center              X                  Y                   Z               Mass
    ------------   -----------------  -----------------  -----------------  -----------------
         O            0.000000000000     0.000000000000     0.000000000000    15.994914619570
         H           -1.424071151979     1.049213739377     0.381579168431     1.007825032230
         H            1.415580612498     1.367381257942    -0.379303938176     1.007825032230
         F            4.585210683823     0.000000000000     0.000000000000    18.998403162730

  Charge       = -1
  Multiplicity = 1
  Basis Set: AUG-CC-PVTZ
    Blend: AUG-CC-PVTZ
  Basis Set: (AUG-CC-PVTZ AUX)
    Blend: AUG-CC-PVTZ-JKFIT

    Orbital Energies [Eh]
    ---------------------

    Doubly Occupied:

       1A    -25.850866     2A    -20.358641     3A     -1.123354
       4A     -1.096320     5A     -0.471531     6A     -0.367822
       7A     -0.294235     8A     -0.202668     9A     -0.201918
      10A     -0.200141

  @DF-RHF Final Energy:  -175.50537089082786

   => Energetics <=

    Nuclear Repulsion Energy =             28.5172236672561326
    One-Electron Energy =                -307.7101986047685500
    Two-Electron Energy =                 103.6876040466845694
    Total Energy =                       -175.5053708908278622
 Dipole X            :        -45.3850393           41.2584056           -4.1266337
 Dipole Y            :         -1.6893419            2.4165950            0.7272531
 Dipole Z            :          0.0122040            0.0022752            0.0144792
 Magnitude           :                                                    4.1902520
  Basis Set: (AUG-CC-PVTZ AUX)
    Blend: AUG-CC-PVTZ-RI
	 Reference Energy          =    -175.5053708908278622 [Eh]
	 Singles Energy            =      -0.0000000000000000 [Eh]
	 Same-Spin Energy          =      -0.1535992430401268 [Eh]
	 Opposite-Spin Energy      =      -0.4476435855738392 [Eh]
	 Correlation Energy        =      -0.6012428286139659 [Eh]
	 Total Energy              =    -176.1066137194418388 [Eh]

	 ================> DF-SCS-MP2 Energies <==================
	-----------------------------------------------------------
	 SCS Same-Spin Scale       =       0.3333333333333333 [-]
	 SCS Opposite-Spin Scale   =       1.2000000000000000 [-]
	 SCS Same-Spin Energy      =      -0.0511997476800422 [Eh]
	 SCS Opposite-Spin Energy  =      -0.5371723026886069 [Eh]
	 SCS Correlation Energy    =      -0.5883720503686491 [Eh]
	 SCS Total Energy          =    -176.0937429411965240 [Eh]
	-----------------------------------------------------------

*** Psi4 exiting successfully. Buy a developer a beer!
