                               Psi4 1.9 release

  ==> Input File <==

--------------------------------------------------------------------------
MEMORY 60 GB

molecule dimer {
0 1
O      0.000000     0.000000     0.000000
H     -0.384474     0.870919     0.103019
H      0.998200     0.238886    -0.267467
--
-1 1
F      2.426389     0.000000     0.000000

units ang
no_reorient
no_com
symmetry c1
}

set {
basis        aug-cc-pVTZ
scf_type     df
}

energy("mp2", bsse_type="cp")
--------------------------------------------------------------------------

                               Psi4 1.9 release
    Molecular point group: c1
  Charge       = -1
  Multiplicity = 1
  Basis Set: AUG-CC-PVTZ
    Blend: AUG-CC-PVTZ
  Basis Set: (AUG-CC-PVTZ AUX)
    Blend: AUG-CC-PVTZ-JKFIT
  @DF-RHF Final Energy:   -99.45090056764752
    Total Energy =                        -99.4509005676475226
 Dipole X            :        -45.8518771           41.2668962           -4.5849809
 Dipole Y            :         -0.0001171            0.0000000           -0.0001171
 Dipole Z            :          0.0003682            0.0000000            0.0003682
 Magnitude           :                                                    4.5849809
  Basis Set: (AUG-CC-PVTZ AUX)
    Blend: AUG-CC-PVTZ-RI
	 Reference Energy          =     -99.4509005676475226 [Eh]
	 Singles Energy            =      -0.0000000000000000 [Eh]
	 Same-Spin Energy          =      -0.0817338459048638 [Eh]
	 Opposite-Spin Energy      =      -0.2279497804835449 [Eh]
	 Correlation Energy        =      -0.3096836263884087 [Eh]
	 Total Energy              =     -99.7605841940359284 [Eh]
	 SCS Total Energy          =     -99.7516849195293958 [Eh]
                               Psi4 1.9 release
    Molecular point group: c1
  Multiplicity = 1
  Basis Set: AUG-CC-PVTZ
    Blend: AUG-CC-PVTZ
  Basis Set: (AUG-CC-PVTZ AUX)
    Blend: AUG-CC-PVTZ-JKFIT
  @DF-RHF Final Energy:   -76.04860785648253
    Total Energy =                        -76.0486078564825334
  Basis Set: (AUG-CC-PVTZ AUX)
	 Singles Energy            =      -0.0000000000000000 [Eh]
	 Same-Spin Energy          =      -0.0693096201575778 [Eh]
	 Opposite-Spin Energy      =      -0.2187295621555085 [Eh]
	 Correlation Energy        =      -0.2880391823130862 [Eh]
	 Total Energy              =     -76.3366470387956184 [Eh]
	 SCS Total Energy          =     -76.3341865377883408 [Eh]
                               Psi4 1.9 release
    Molecular point group: c1

    Geometry (in Bohr), charge = -1, multiplicity = 1:

       Center              X                  Y                   Z               Mass
    ------------   -----------------  -----------------  -----------------  -----------------
         O            0.000000000000     0.000000000000     0.000000000000    15.994914619570
         H           -0.726550562359     1.645798387458     0.194677695719     1.007825032230
         H            1.886324618432     0.451429115206    -0.505439377598     1.007825032230
         F            4.585210683823     0.000000000000     0.000000000000    18.998403162730

  Charge       = -1
  Multiplicity = 1
  Basis Set: AUG-CC-PVTZ
    Blend: AUG-CC-PVTZ
  Basis Set: (AUG-CC-PVTZ AUX)
    Blend: AUG-CC-PVTZ-JKFIT

    Orbital Energies [Eh]
    ---------------------

    Doubly Occupied:

       1A    -25.888542     2A    -20.323718     3A     -1.150774
       4A     -1.088585     5A     -0.457375     6A     -0.356638
       7A     -0.273143     8A     -0.243283     9A     -0.239578
      10A     -0.227234

  @DF-RHF Final Energy:  -175.53504798061675

   => Energetics <=

    Nuclear Repulsion Energy =             29.3049101672693730
    One-Electron Energy =                -309.1821743364108670
    Two-Electron Energy =                 104.3422161885247306
    Total Energy =                       -175.5350479806167527
 Dipole X            :        -45.8189746           42.4266702           -3.3923043
 Dipole Y            :         -1.4732688            2.0972275            0.6239587
 Dipole Z            :          0.2328645           -0.3107617           -0.0778971
 Magnitude           :                                                    3.4500900
  Basis Set: (AUG-CC-PVTZ AUX)
    Blend: AUG-CC-PVTZ-RI
	 Reference Energy          =    -175.5350479806167527 [Eh]
	 Singles Energy            =      -0.0000000000000000 [Eh]
	 Same-Spin Energy          =      -0.1539830627107635 [Eh]
	 Opposite-Spin Energy      =      -0.4466960928453081 [Eh]
	 Correlation Energy        =      -0.6006791555560715 [Eh]
	 Total Energy              =    -176.1357271361728181 [Eh]

	 ================> DF-SCS-MP2 Energies <==================
	-----------------------------------------------------------
	 SCS Same-Spin Scale       =       0.3333333333333333 [-]
	 SCS Opposite-Spin Scale   =       1.2000000000000000 [-]
	 SCS Same-Spin Energy      =      -0.0513276875702545 [Eh]
	 SCS Opposite-Spin Energy  =      -0.5360353114143697 [Eh]
	 SCS Correlation Energy    =      -0.5873629989846242 [Eh]
	 SCS Total Energy          =    -176.1224109796013693 [Eh]
	-----------------------------------------------------------

*** Psi4 exiting successfully. Buy a developer a beer!
