                               Psi4 1.9 release

  ==> Input File <==

--------------------------------------------------------------------------
MEMORY 60 GB

molecule dimer {
0 1
O      0.000000     0.000000     0.000000
H      0.399431     0.864229    -0.107027
H      0.767114    -0.588334    -0.205548
--
-1 1
Cl     3.070352     0.000000     0.000000

units ang
no_reorient
no_com
symmetry c1
}

set {
basis        aug-cc-pVTZ
scf_type     df
}

energy("mp2", bsse_type="cp")
--------------------------------------------------------------------------

                               Psi4 1.9 release
    Molecular point group: c1
  Charge       = -1
  Multiplicity = 1
  Basis Set: AUG-CC-PVTZ
    Blend: AUG-CC-PVTZ
  Basis Set: (AUG-CC-PVTZ AUX)
    Blend: AUG-CC-PVTZ-JKFIT
  @DF-RHF Final Energy:  -459.57350140192608
    Total Energy =                       -459.5735014019260802
 Dipole X            :       -104.4383274           98.6361146           -5.8022128
 Dipole Y            :         -0.0000668            0.0000000           -0.0000668
 Dipole Z            :          0.0000923            0.0000000            0.0000923
 Magnitude           :                                                    5.8022128
  Basis Set: (AUG-CC-PVTZ AUX)
    Blend: AUG-CC-PVTZ-RI
	 Reference Energy          =    -459.5735014019260802 [Eh]
	 Singles Energy            =      -0.0000000000000000 [Eh]
	 Same-Spin Energy          =      -0.0625376014976470 [Eh]
	 Opposite-Spin Energy      =      -0.1797833222359559 [Eh]
	 Correlation Energy        =      -0.2423209237336029 [Eh]
	 Total Energy              =    -459.8158223256596671 [Eh]
	 SCS Total Energy          =    -459.8100872557751018 [Eh]
                               Psi4 1.9 release
    Molecular point group: c1
  Multiplicity = 1
  Basis Set: AUG-CC-PVTZ
    Blend: AUG-CC-PVTZ
  Basis Set: (AUG-CC-PVTZ AUX)
    Blend: AUG-CC-PVTZ-JKFIT
  @DF-RHF Final Energy:   -76.05822538107243
    Total Energy =                        -76.0582253810724183
  Basis Set: (AUG-CC-PVTZ AUX)
	 Singles Energy            =      -0.0000000000000000 [Eh]
	 Same-Spin Energy          =      -0.0687114272875201 [Eh]
	 Opposite-Spin Energy      =      -0.2164058238882645 [Eh]
	 Correlation Energy        =      -0.2851172511757846 [Eh]
	 Total Energy              =     -76.3433426322482234 [Eh]
	 SCS Total Energy          =     -76.3408161788341886 [Eh]
                               Psi4 1.9 release
    Molecular point group: c1

    Geometry (in Bohr), charge = -1, multiplicity = 1:

       Center              X                  Y                   Z               Mass
    ------------   -----------------  -----------------  -----------------  -----------------
         O            0.000000000000     0.000000000000     0.000000000000    15.994914619570
         H            0.754815196018     1.633156119678    -0.202251718029     1.007825032230
         H            1.449635367004    -1.111790130295    -0.388429425636     1.007825032230
         CL           5.802124388752     0.000000000000     0.000000000000    34.968852682000

  Charge       = -1
  Multiplicity = 1
  Basis Set: AUG-CC-PVTZ
    Blend: AUG-CC-PVTZ
  Basis Set: (AUG-CC-PVTZ AUX)
    Blend: AUG-CC-PVTZ-JKFIT

    Orbital Energies [Eh]
    ---------------------

    Doubly Occupied:

       1A   -104.526129     2A    -20.382095     3A    -10.250514
       4A     -7.716586     5A     -7.716559     6A     -7.716530
       7A     -1.163085     8A     -0.759095     9A     -0.519177
      10A     -0.412347    11A     -0.327424    12A     -0.175427
      13A     -0.174011    14A     -0.172715

  @DF-RHF Final Energy:  -535.64771771335643

   => Energetics <=

    Nuclear Repulsion Energy =             39.4665511647658533
    One-Electron Energy =                -826.2051477161716093
    Two-Electron Energy =                 251.0908788380493775
    Total Energy =                       -535.6477177133563146
 Dipole X            :       -105.4922387          100.8405652           -4.6516735
 Dipole Y            :         -0.3413802            0.5213660            0.1799857
 Dipole Z            :          0.4363313           -0.5906811           -0.1543498
 Magnitude           :                                                    4.6577125
  Basis Set: (AUG-CC-PVTZ AUX)
    Blend: AUG-CC-PVTZ-RI
	 Reference Energy          =    -535.6477177133564282 [Eh]
	 Singles Energy            =      -0.0000000000000000 [Eh]
	 Same-Spin Energy          =      -0.1334808733894002 [Eh]
	 Opposite-Spin Energy      =      -0.3976050102962010 [Eh]
	 Correlation Energy        =      -0.5310858836856012 [Eh]
	 Total Energy              =    -536.1788035970420196 [Eh]

	 ================> DF-SCS-MP2 Energies <==================
	-----------------------------------------------------------
	 SCS Same-Spin Scale       =       0.3333333333333333 [-]
	 SCS Opposite-Spin Scale   =       1.2000000000000000 [-]
	 SCS Same-Spin Energy      =      -0.0444936244631334 [Eh]
	 SCS Opposite-Spin Energy  =      -0.4771260123554412 [Eh]
	 SCS Correlation Energy    =      -0.5216196368185746 [Eh]
	 SCS Total Energy          =    -536.1693373501750557 [Eh]
	-----------------------------------------------------------

*** Psi4 exiting successfully. Buy a developer a beer!
