                               Psi4 1.9 release

  ==> Input File <==

--------------------------------------------------------------------------
MEMORY 60 GB

molecule dimer {
0 1
O      0.000000     0.000000     0.000000
H     -0.834781     0.413522     0.223679
H      0.568287     0.794175    -0.152272
--
-1 1
Cl     3.070352     0.000000     0.000000

units ang
no_reorient
no_com
symmetry c1
}

set {
basis        aug-cc-pVTZ
scf_type     df
}

energy("mp2", bsse_type="cp")
--------------------------------------------------------------------------

                               Psi4 1.9 release
    Molecular point group: c1
  Charge       = -1
  Multiplicity = 1
  Basis Set: AUG-CC-PVTZ
    Blend: AUG-CC-PVTZ
  Basis Set: (AUG-CC-PVTZ AUX)
    Blend: AUG-CC-PVTZ-JKFIT
  @DF-RHF Final Energy:  -459.57349639117894
    Total Energy =                       -459.5734963911789350
 Dipole X            :       -104.4380417           98.6361146           -5.8019271
 Dipole Y            :          0.0000087            0.0000000            0.0000087
 Dipole Z            :         -0.0000453            0.0000000           -0.0000453
 Magnitude           :                                                    5.8019271
  Basis Set: (AUG-CC-PVTZ AUX)
    Blend: AUG-CC-PVTZ-RI
	 Reference Energy          =    -459.5734963911789350 [Eh]
	 Singles Energy            =      -0.0000000000000000 [Eh]
	 Same-Spin Energy          =      -0.0624580827899260 [Eh]
	 Opposite-Spin Energy      =      -0.1794012193198950 [Eh]
	 Correlation Energy        =      -0.2418593021098210 [Eh]
	 Total Energy              =    -459.8153556932887795 [Eh]
	 SCS Total Energy          =    -459.8095972152927970 [Eh]
                               Psi4 1.9 release
    Molecular point group: c1
  Multiplicity = 1
  Basis Set: AUG-CC-PVTZ
    Blend: AUG-CC-PVTZ
  Basis Set: (AUG-CC-PVTZ AUX)
    Blend: AUG-CC-PVTZ-JKFIT
  @DF-RHF Final Energy:   -76.05822203388871
    Total Energy =                        -76.0582220338887112
  Basis Set: (AUG-CC-PVTZ AUX)
	 Singles Energy            =      -0.0000000000000000 [Eh]
	 Same-Spin Energy          =      -0.0687078089189863 [Eh]
	 Opposite-Spin Energy      =      -0.2163523850624299 [Eh]
	 Correlation Energy        =      -0.2850601939814162 [Eh]
	 Total Energy              =     -76.3432822278701337 [Eh]
	 SCS Total Energy          =     -76.3407474989366222 [Eh]
                               Psi4 1.9 release
    Molecular point group: c1

    Geometry (in Bohr), charge = -1, multiplicity = 1:

       Center              X                  Y                   Z               Mass
    ------------   -----------------  -----------------  -----------------  -----------------
         O            0.000000000000     0.000000000000     0.000000000000    15.994914619570
         H           -1.577507464736     0.781443326852     0.422692050016     1.007825032230
         H            1.073906790658     1.500773245685    -0.287752376576     1.007825032230
         CL           5.802124388752     0.000000000000     0.000000000000    34.968852682000

  Charge       = -1
  Multiplicity = 1
  Basis Set: AUG-CC-PVTZ
    Blend: AUG-CC-PVTZ
  Basis Set: (AUG-CC-PVTZ AUX)
    Blend: AUG-CC-PVTZ-JKFIT

    Orbital Energies [Eh]
    ---------------------

    Doubly Occupied:

       1A   -104.506071     2A    -20.406265     3A    -10.230156
       4A     -7.696235     5A     -7.696197     6A     -7.696152
       7A     -1.183576     8A     -0.736756     9A     -0.536003
      10A     -0.423387    11A     -0.345288    12A     -0.154472
      13A     -0.152258    14A     -0.150994

  @DF-RHF Final Energy:  -535.62856617315492

   => Energetics <=

    Nuclear Repulsion Energy =             38.2024106232705236
    One-Electron Energy =                -823.8343337470581673
    Two-Electron Energy =                 250.0033569506326785
    Total Energy =                       -535.6285661731549226
 Dipole X            :       -103.9042220           98.1325139           -5.7717080
 Dipole Y            :         -1.6239226            2.2822166            0.6582940
 Dipole Z            :         -0.0704651            0.1349397            0.0644746
 Magnitude           :                                                    5.8094855
  Basis Set: (AUG-CC-PVTZ AUX)
    Blend: AUG-CC-PVTZ-RI
	 Reference Energy          =    -535.6285661731549226 [Eh]
	 Singles Energy            =      -0.0000000000000000 [Eh]
	 Same-Spin Energy          =      -0.1332511518904258 [Eh]
	 Opposite-Spin Energy      =      -0.3980837415131913 [Eh]
	 Correlation Energy        =      -0.5313348934036171 [Eh]
	 Total Energy              =    -536.1599010665585183 [Eh]

	 ================> DF-SCS-MP2 Energies <==================
	-----------------------------------------------------------
	 SCS Same-Spin Scale       =       0.3333333333333333 [-]
	 SCS Opposite-Spin Scale   =       1.2000000000000000 [-]
	 SCS Same-Spin Energy      =      -0.0444170506301419 [Eh]
	 SCS Opposite-Spin Energy  =      -0.4777004898158296 [Eh]
	 SCS Correlation Energy    =      -0.5221175404459715 [Eh]
	 SCS Total Energy          =    -536.1506837136008699 [Eh]
	-----------------------------------------------------------

*** Psi4 exiting successfully. Buy a developer a beer!
