                               Psi4 1.9 release

  ==> Input File <==

--------------------------------------------------------------------------
MEMORY 60 GB

molecule dimer {
0 1
O      0.000000     0.000000     0.000000
H     -0.071473     0.955205     0.019151
H      0.948484    -0.112425    -0.254146
--
-1 1
Cl     3.070352     0.000000     0.000000

units ang
no_reorient
no_com
symmetry c1
}

set {
basis        aug-cc-pVTZ
scf_type     df
}

energy("mp2", bsse_type="cp")
--------------------------------------------------------------------------

                               Psi4 1.9 release
    Molecular point group: c1
  Charge       = -1
  Multiplicity = 1
  Basis Set: AUG-CC-PVTZ
    Blend: AUG-CC-PVTZ
  Basis Set: (AUG-CC-PVTZ AUX)
    Blend: AUG-CC-PVTZ-JKFIT
  @DF-RHF Final Energy:  -459.57350628657679
    Total Energy =                       -459.5735062865767304
 Dipole X            :       -104.4388316           98.6361146           -5.8027170
 Dipole Y            :         -0.0001810            0.0000000           -0.0001810
 Dipole Z            :         -0.0000171            0.0000000           -0.0000171
 Magnitude           :                                                    5.8027170
  Basis Set: (AUG-CC-PVTZ AUX)
    Blend: AUG-CC-PVTZ-RI
	 Reference Energy          =    -459.5735062865767873 [Eh]
	 Singles Energy            =      -0.0000000000000000 [Eh]
	 Same-Spin Energy          =      -0.0626295833101850 [Eh]
	 Opposite-Spin Energy      =      -0.1801978890956829 [Eh]
	 Correlation Energy        =      -0.2428274724058678 [Eh]
	 Total Energy              =    -459.8163337589826369 [Eh]
	 SCS Total Energy          =    -459.8106202812616630 [Eh]
                               Psi4 1.9 release
    Molecular point group: c1
  Multiplicity = 1
  Basis Set: AUG-CC-PVTZ
    Blend: AUG-CC-PVTZ
  Basis Set: (AUG-CC-PVTZ AUX)
    Blend: AUG-CC-PVTZ-JKFIT
  @DF-RHF Final Energy:   -76.05823936359640
    Total Energy =                        -76.0582393635963854
  Basis Set: (AUG-CC-PVTZ AUX)
	 Singles Energy            =      -0.0000000000000000 [Eh]
	 Same-Spin Energy          =      -0.0687302689058592 [Eh]
	 Opposite-Spin Energy      =      -0.2166632962657133 [Eh]
	 Correlation Energy        =      -0.2853935651715725 [Eh]
	 Total Energy              =     -76.3436329287679740 [Eh]
	 SCS Total Energy          =     -76.3411454087505490 [Eh]
                               Psi4 1.9 release
    Molecular point group: c1

    Geometry (in Bohr), charge = -1, multiplicity = 1:

       Center              X                  Y                   Z               Mass
    ------------   -----------------  -----------------  -----------------  -----------------
         O            0.000000000000     0.000000000000     0.000000000000    15.994914619570
         H           -0.135064395365     1.805075843668     0.036190145029     1.007825032230
         H            1.792374994379    -0.212452459655    -0.480266335881     1.007825032230
         CL           5.802124388752     0.000000000000     0.000000000000    34.968852682000

  Charge       = -1
  Multiplicity = 1
  Basis Set: AUG-CC-PVTZ
    Blend: AUG-CC-PVTZ
  Basis Set: (AUG-CC-PVTZ AUX)
    Blend: AUG-CC-PVTZ-JKFIT

    Orbital Energies [Eh]
    ---------------------

    Doubly Occupied:

       1A   -104.528427     2A    -20.377899     3A    -10.252909
       4A     -7.719001     5A     -7.718943     6A     -7.718924
       7A     -1.160565     8A     -0.763243     9A     -0.516475
      10A     -0.408468    11A     -0.323873    12A     -0.179907
      13A     -0.176090    14A     -0.175180

  @DF-RHF Final Energy:  -535.64902543053267

   => Energetics <=

    Nuclear Repulsion Energy =             39.4373037439171270
    One-Electron Energy =                -826.1328467874589023
    Two-Electron Energy =                 251.0465176130090299
    Total Energy =                       -535.6490254305326744
 Dipole X            :       -105.0180658          100.2934252           -4.7246406
 Dipole Y            :         -1.0940110            1.5926234            0.4986124
 Dipole Z            :          0.3470853           -0.4440762           -0.0969909
 Magnitude           :                                                    4.7518681
  Basis Set: (AUG-CC-PVTZ AUX)
    Blend: AUG-CC-PVTZ-RI
	 Reference Energy          =    -535.6490254305326744 [Eh]
	 Singles Energy            =      -0.0000000000000000 [Eh]
	 Same-Spin Energy          =      -0.1341418436712885 [Eh]
	 Opposite-Spin Energy      =      -0.3987218702261345 [Eh]
	 Correlation Energy        =      -0.5328637138974230 [Eh]
	 Total Energy              =    -536.1818891444301016 [Eh]

	 ================> DF-SCS-MP2 Energies <==================
	-----------------------------------------------------------
	 SCS Same-Spin Scale       =       0.3333333333333333 [-]
	 SCS Opposite-Spin Scale   =       1.2000000000000000 [-]
	 SCS Same-Spin Energy      =      -0.0447139478904295 [Eh]
	 SCS Opposite-Spin Energy  =      -0.4784662442713614 [Eh]
	 SCS Correlation Energy    =      -0.5231801921617909 [Eh]
	 SCS Total Energy          =    -536.1722056226944915 [Eh]
	-----------------------------------------------------------

*** Psi4 exiting successfully. Buy a developer a beer!
