                               Psi4 1.9 release

  ==> Input File <==

--------------------------------------------------------------------------
MEMORY 60 GB

molecule dimer {
0 1
O      0.000000     0.000000     0.000000
H     -0.307839     0.903506     0.082485
H      0.944272     0.145551    -0.253017
--
-1 1
Cl     3.070352     0.000000     0.000000

units ang
no_reorient
no_com
symmetry c1
}

set {
basis        aug-cc-pVTZ
scf_type     df
}

energy("mp2", bsse_type="cp")
--------------------------------------------------------------------------

                               Psi4 1.9 release
    Molecular point group: c1
  Charge       = -1
  Multiplicity = 1
  Basis Set: AUG-CC-PVTZ
    Blend: AUG-CC-PVTZ
  Basis Set: (AUG-CC-PVTZ AUX)
    Blend: AUG-CC-PVTZ-JKFIT
  @DF-RHF Final Energy:  -459.57350682447685
    Total Energy =                       -459.5735068244769082
 Dipole X            :       -104.4388229           98.6361146           -5.8027083
 Dipole Y            :         -0.0001449            0.0000000           -0.0001449
 Dipole Z            :         -0.0000750            0.0000000           -0.0000750
 Magnitude           :                                                    5.8027083
  Basis Set: (AUG-CC-PVTZ AUX)
    Blend: AUG-CC-PVTZ-RI
	 Reference Energy          =    -459.5735068244768513 [Eh]
	 Singles Energy            =      -0.0000000000000000 [Eh]
	 Same-Spin Energy          =      -0.0626371337119505 [Eh]
	 Opposite-Spin Energy      =      -0.1802174049171109 [Eh]
	 Correlation Energy        =      -0.2428545386290614 [Eh]
	 Total Energy              =    -459.8163613631058979 [Eh]
	 SCS Total Energy          =    -459.8106467549480385 [Eh]
                               Psi4 1.9 release
    Molecular point group: c1
  Multiplicity = 1
  Basis Set: AUG-CC-PVTZ
    Blend: AUG-CC-PVTZ
  Basis Set: (AUG-CC-PVTZ AUX)
    Blend: AUG-CC-PVTZ-JKFIT
  @DF-RHF Final Energy:   -76.05823894231190
    Total Energy =                        -76.0582389423119025
  Basis Set: (AUG-CC-PVTZ AUX)
	 Singles Energy            =      -0.0000000000000000 [Eh]
	 Same-Spin Energy          =      -0.0687306051575385 [Eh]
	 Opposite-Spin Energy      =      -0.2166379335880078 [Eh]
	 Correlation Energy        =      -0.2853685387455464 [Eh]
	 Total Energy              =     -76.3436074810574468 [Eh]
	 SCS Total Energy          =     -76.3411146643366862 [Eh]
                               Psi4 1.9 release
    Molecular point group: c1

    Geometry (in Bohr), charge = -1, multiplicity = 1:

       Center              X                  Y                   Z               Mass
    ------------   -----------------  -----------------  -----------------  -----------------
         O            0.000000000000     0.000000000000     0.000000000000    15.994914619570
         H           -0.581731400735     1.707378892708     0.155874059458     1.007825032230
         H            1.784415467938     0.275051527287    -0.478132835085     1.007825032230
         CL           5.802124388752     0.000000000000     0.000000000000    34.968852682000

  Charge       = -1
  Multiplicity = 1
  Basis Set: AUG-CC-PVTZ
    Blend: AUG-CC-PVTZ
  Basis Set: (AUG-CC-PVTZ AUX)
    Blend: AUG-CC-PVTZ-JKFIT

    Orbital Energies [Eh]
    ---------------------

    Doubly Occupied:

       1A   -104.526032     2A    -20.381083     3A    -10.250460
       4A     -7.716556     5A     -7.716491     6A     -7.716476
       7A     -1.163295     8A     -0.760641     9A     -0.518488
      10A     -0.409449    11A     -0.326163    12A     -0.177777
      13A     -0.173380    14A     -0.172622

  @DF-RHF Final Energy:  -535.64678041749676

   => Energetics <=

    Nuclear Repulsion Energy =             39.2578643312295839
    One-Electron Energy =                -825.7914641400425353
    Two-Electron Energy =                 250.8868193913161804
    Total Energy =                       -535.6467804174967569
 Dipole X            :       -104.7325418           99.8387987           -4.8937431
 Dipole Y            :         -1.3880751            1.9824304            0.5943554
 Dipole Z            :          0.2635551           -0.3222588           -0.0587037
 Magnitude           :                                                    4.9300534
  Basis Set: (AUG-CC-PVTZ AUX)
    Blend: AUG-CC-PVTZ-RI
	 Reference Energy          =    -535.6467804174967569 [Eh]
	 Singles Energy            =      -0.0000000000000000 [Eh]
	 Same-Spin Energy          =      -0.1342078220869386 [Eh]
	 Opposite-Spin Energy      =      -0.3989358261441248 [Eh]
	 Correlation Energy        =      -0.5331436482310633 [Eh]
	 Total Energy              =    -536.1799240657278460 [Eh]

	 ================> DF-SCS-MP2 Energies <==================
	-----------------------------------------------------------
	 SCS Same-Spin Scale       =       0.3333333333333333 [-]
	 SCS Opposite-Spin Scale   =       1.2000000000000000 [-]
	 SCS Same-Spin Energy      =      -0.0447359406956462 [Eh]
	 SCS Opposite-Spin Energy  =      -0.4787229913729497 [Eh]
	 SCS Correlation Energy    =      -0.5234589320685960 [Eh]
	 SCS Total Energy          =    -536.1702393495653496 [Eh]
	-----------------------------------------------------------

*** Psi4 exiting successfully. Buy a developer a beer!
