                               Psi4 1.9 release

  ==> Input File <==

--------------------------------------------------------------------------
MEMORY 60 GB

molecule dimer {
0 1
O      0.000000     0.000000     0.000000
H      0.763308     0.541683    -0.204528
H      0.380197    -0.906600    -0.101873
--
-1 1
Cl     3.070352     0.000000     0.000000

units ang
no_reorient
no_com
symmetry c1
}

set {
basis        aug-cc-pVTZ
scf_type     df
}

energy("mp2", bsse_type="cp")
--------------------------------------------------------------------------

                               Psi4 1.9 release
    Molecular point group: c1
  Charge       = -1
  Multiplicity = 1
  Basis Set: AUG-CC-PVTZ
    Blend: AUG-CC-PVTZ
  Basis Set: (AUG-CC-PVTZ AUX)
    Blend: AUG-CC-PVTZ-JKFIT
  @DF-RHF Final Energy:  -459.57350181049304
    Total Energy =                       -459.5735018104929850
 Dipole X            :       -104.4383661           98.6361146           -5.8022515
 Dipole Y            :          0.0000716            0.0000000            0.0000716
 Dipole Z            :          0.0000891            0.0000000            0.0000891
 Magnitude           :                                                    5.8022515
  Basis Set: (AUG-CC-PVTZ AUX)
    Blend: AUG-CC-PVTZ-RI
	 Reference Energy          =    -459.5735018104930418 [Eh]
	 Singles Energy            =      -0.0000000000000000 [Eh]
	 Same-Spin Energy          =      -0.0625404204876785 [Eh]
	 Opposite-Spin Energy      =      -0.1797938380897901 [Eh]
	 Correlation Energy        =      -0.2423342585774687 [Eh]
	 Total Energy              =    -459.8158360690704853 [Eh]
	 SCS Total Energy          =    -459.8101012230300171 [Eh]
                               Psi4 1.9 release
    Molecular point group: c1
  Multiplicity = 1
  Basis Set: AUG-CC-PVTZ
    Blend: AUG-CC-PVTZ
  Basis Set: (AUG-CC-PVTZ AUX)
    Blend: AUG-CC-PVTZ-JKFIT
  @DF-RHF Final Energy:   -76.05822718797586
    Total Energy =                        -76.0582271879758736
  Basis Set: (AUG-CC-PVTZ AUX)
	 Singles Energy            =      -0.0000000000000000 [Eh]
	 Same-Spin Energy          =      -0.0687128574245372 [Eh]
	 Opposite-Spin Energy      =      -0.2164227811289641 [Eh]
	 Correlation Energy        =      -0.2851356385535013 [Eh]
	 Total Energy              =     -76.3433628265293578 [Eh]
	 SCS Total Energy          =     -76.3408388111387950 [Eh]
                               Psi4 1.9 release
    Molecular point group: c1

    Geometry (in Bohr), charge = -1, multiplicity = 1:

       Center              X                  Y                   Z               Mass
    ------------   -----------------  -----------------  -----------------  -----------------
         O            0.000000000000     0.000000000000     0.000000000000    15.994914619570
         H            1.442443069371     1.023632516816    -0.386501904988     1.007825032230
         H            0.718468203721    -1.713225705340    -0.192512069579     1.007825032230
         CL           5.802124388752     0.000000000000     0.000000000000    34.968852682000

  Charge       = -1
  Multiplicity = 1
  Basis Set: AUG-CC-PVTZ
    Blend: AUG-CC-PVTZ
  Basis Set: (AUG-CC-PVTZ AUX)
    Blend: AUG-CC-PVTZ-JKFIT

    Orbital Energies [Eh]
    ---------------------

    Doubly Occupied:

       1A   -104.525567     2A    -20.383273     3A    -10.249952
       4A     -7.716023     5A     -7.716000     6A     -7.715972
       7A     -1.163756     8A     -0.758540     9A     -0.520009
      10A     -0.412883    11A     -0.328322    12A     -0.175081
      13A     -0.173459    14A     -0.172218

  @DF-RHF Final Energy:  -535.64741313640445

   => Energetics <=

    Nuclear Repulsion Energy =             39.4430603718833908
    One-Electron Energy =                -826.1588374993694970
    Two-Electron Energy =                 251.0683639910816964
    Total Energy =                       -535.6474131364044524
 Dipole X            :       -105.4717551          100.7970259           -4.6747292
 Dipole Y            :          0.4645916           -0.6895932           -0.2250016
 Dipole Z            :          0.4282847           -0.5790140           -0.1507293
 Magnitude           :                                                    4.6825675
  Basis Set: (AUG-CC-PVTZ AUX)
    Blend: AUG-CC-PVTZ-RI
	 Reference Energy          =    -535.6474131364044524 [Eh]
	 Singles Energy            =      -0.0000000000000000 [Eh]
	 Same-Spin Energy          =      -0.1334241189639028 [Eh]
	 Opposite-Spin Energy      =      -0.3976211039299126 [Eh]
	 Correlation Energy        =      -0.5310452228938154 [Eh]
	 Total Energy              =    -536.1784583592982472 [Eh]

	 ================> DF-SCS-MP2 Energies <==================
	-----------------------------------------------------------
	 SCS Same-Spin Scale       =       0.3333333333333333 [-]
	 SCS Opposite-Spin Scale   =       1.2000000000000000 [-]
	 SCS Same-Spin Energy      =      -0.0444747063213009 [Eh]
	 SCS Opposite-Spin Energy  =      -0.4771453247158951 [Eh]
	 SCS Correlation Energy    =      -0.5216200310371960 [Eh]
	 SCS Total Energy          =    -536.1690331674416257 [Eh]
	-----------------------------------------------------------

*** Psi4 exiting successfully. Buy a developer a beer!
