                               Psi4 1.9 release

  ==> Input File <==

--------------------------------------------------------------------------
MEMORY 60 GB

molecule dimer {
0 1
O      0.000000     0.000000     0.000000
H     -0.702956     0.623110     0.188356
H      0.747467     0.614842    -0.200283
--
-1 1
Cl     3.070352     0.000000     0.000000

units ang
no_reorient
no_com
symmetry c1
}

set {
basis        aug-cc-pVTZ
scf_type     df
}

energy("mp2", bsse_type="cp")
--------------------------------------------------------------------------

                               Psi4 1.9 release
    Molecular point group: c1
  Charge       = -1
  Multiplicity = 1
  Basis Set: AUG-CC-PVTZ
    Blend: AUG-CC-PVTZ
  Basis Set: (AUG-CC-PVTZ AUX)
    Blend: AUG-CC-PVTZ-JKFIT
  @DF-RHF Final Energy:  -459.57350091379124
    Total Energy =                       -459.5735009137912357
 Dipole X            :       -104.4383041           98.6361146           -5.8021895
 Dipole Y            :          0.0000178            0.0000000            0.0000178
 Dipole Z            :         -0.0000880            0.0000000           -0.0000880
 Magnitude           :                                                    5.8021895
  Basis Set: (AUG-CC-PVTZ AUX)
    Blend: AUG-CC-PVTZ-RI
	 Reference Energy          =    -459.5735009137912357 [Eh]
	 Singles Energy            =      -0.0000000000000000 [Eh]
	 Same-Spin Energy          =      -0.0625165861470743 [Eh]
	 Opposite-Spin Energy      =      -0.1796825755237972 [Eh]
	 Correlation Energy        =      -0.2421991616708715 [Eh]
	 Total Energy              =    -459.8157000754621322 [Eh]
	 SCS Total Energy          =    -459.8099588664688326 [Eh]
                               Psi4 1.9 release
    Molecular point group: c1
  Multiplicity = 1
  Basis Set: AUG-CC-PVTZ
    Blend: AUG-CC-PVTZ
  Basis Set: (AUG-CC-PVTZ AUX)
    Blend: AUG-CC-PVTZ-JKFIT
  @DF-RHF Final Energy:   -76.05822340249784
    Total Energy =                        -76.0582234024978447
  Basis Set: (AUG-CC-PVTZ AUX)
	 Singles Energy            =      -0.0000000000000000 [Eh]
	 Same-Spin Energy          =      -0.0687112956717460 [Eh]
	 Opposite-Spin Energy      =      -0.2163834719802068 [Eh]
	 Correlation Energy        =      -0.2850947676519528 [Eh]
	 Total Energy              =     -76.3433181701498000 [Eh]
	 SCS Total Energy          =     -76.3407873340980103 [Eh]
                               Psi4 1.9 release
    Molecular point group: c1

    Geometry (in Bohr), charge = -1, multiplicity = 1:

       Center              X                  Y                   Z               Mass
    ------------   -----------------  -----------------  -----------------  -----------------
         O            0.000000000000     0.000000000000     0.000000000000    15.994914619570
         H           -1.328394318247     1.177507246034     0.355941254087     1.007825032230
         H            1.412507917818     1.161882990429    -0.378480017585     1.007825032230
         CL           5.802124388752     0.000000000000     0.000000000000    34.968852682000

  Charge       = -1
  Multiplicity = 1
  Basis Set: AUG-CC-PVTZ
    Blend: AUG-CC-PVTZ
  Basis Set: (AUG-CC-PVTZ AUX)
    Blend: AUG-CC-PVTZ-JKFIT

    Orbital Energies [Eh]
    ---------------------

    Doubly Occupied:

       1A   -104.513341     2A    -20.397840     3A    -10.237527
       4A     -7.703615     5A     -7.703565     6A     -7.703531
       7A     -1.176699     8A     -0.745216     9A     -0.529678
      10A     -0.418533    11A     -0.338857    12A     -0.163075
      13A     -0.159808    14A     -0.158856

  @DF-RHF Final Energy:  -535.63538436022066

   => Energetics <=

    Nuclear Repulsion Energy =             38.5744158706241720
    One-Electron Energy =                -824.5193199473385448
    Two-Electron Energy =                 250.3095197164936394
    Total Energy =                       -535.6353843602207689
 Dipole X            :       -104.1877914           98.7202282           -5.4675631
 Dipole Y            :         -1.6641170            2.3393902            0.6752732
 Dipole Z            :          0.0451959           -0.0225388            0.0226572
 Magnitude           :                                                    5.5091518
  Basis Set: (AUG-CC-PVTZ AUX)
    Blend: AUG-CC-PVTZ-RI
	 Reference Energy          =    -535.6353843602206553 [Eh]
	 Singles Energy            =      -0.0000000000000000 [Eh]
	 Same-Spin Energy          =      -0.1335990188774678 [Eh]
	 Opposite-Spin Energy      =      -0.3983644181594290 [Eh]
	 Correlation Energy        =      -0.5319634370368967 [Eh]
	 Total Energy              =    -536.1673477972575483 [Eh]

	 ================> DF-SCS-MP2 Energies <==================
	-----------------------------------------------------------
	 SCS Same-Spin Scale       =       0.3333333333333333 [-]
	 SCS Opposite-Spin Scale   =       1.2000000000000000 [-]
	 SCS Same-Spin Energy      =      -0.0445330062924893 [Eh]
	 SCS Opposite-Spin Energy  =      -0.4780373017913148 [Eh]
	 SCS Correlation Energy    =      -0.5225703080838040 [Eh]
	 SCS Total Energy          =    -536.1579546683044555 [Eh]
	-----------------------------------------------------------

*** Psi4 exiting successfully. Buy a developer a beer!
