                               Psi4 1.9 release

  ==> Input File <==

--------------------------------------------------------------------------
MEMORY 60 GB

molecule dimer {
0 1
O      0.000000     0.000000     0.000000
H      0.601878     0.727754    -0.161273
H      0.593892    -0.773835    -0.159133
--
-1 1
Cl     3.070352     0.000000     0.000000

units ang
no_reorient
no_com
symmetry c1
}

set {
basis        aug-cc-pVTZ
scf_type     df
}

energy("mp2", bsse_type="cp")
--------------------------------------------------------------------------

                               Psi4 1.9 release
    Molecular point group: c1
  Charge       = -1
  Multiplicity = 1
  Basis Set: AUG-CC-PVTZ
    Blend: AUG-CC-PVTZ
  Basis Set: (AUG-CC-PVTZ AUX)
    Blend: AUG-CC-PVTZ-JKFIT
  @DF-RHF Final Energy:  -459.57349920000246
    Total Energy =                       -459.5734992000024590
 Dipole X            :       -104.4381583           98.6361146           -5.8020437
 Dipole Y            :          0.0000139            0.0000000            0.0000139
 Dipole Z            :          0.0001202            0.0000000            0.0001202
 Magnitude           :                                                    5.8020437
  Basis Set: (AUG-CC-PVTZ AUX)
    Blend: AUG-CC-PVTZ-RI
	 Reference Energy          =    -459.5734992000024590 [Eh]
	 Singles Energy            =      -0.0000000000000000 [Eh]
	 Same-Spin Energy          =      -0.0625187695743700 [Eh]
	 Opposite-Spin Energy      =      -0.1796904372036853 [Eh]
	 Correlation Energy        =      -0.2422092067780554 [Eh]
	 Total Energy              =    -459.8157084067805158 [Eh]
	 SCS Total Energy          =    -459.8099673145050019 [Eh]
                               Psi4 1.9 release
    Molecular point group: c1
  Multiplicity = 1
  Basis Set: AUG-CC-PVTZ
    Blend: AUG-CC-PVTZ
  Basis Set: (AUG-CC-PVTZ AUX)
    Blend: AUG-CC-PVTZ-JKFIT
  @DF-RHF Final Energy:   -76.05822254526255
    Total Energy =                        -76.0582225452625380
  Basis Set: (AUG-CC-PVTZ AUX)
	 Singles Energy            =      -0.0000000000000000 [Eh]
	 Same-Spin Energy          =      -0.0687083975287478 [Eh]
	 Opposite-Spin Energy      =      -0.2163614577343940 [Eh]
	 Correlation Energy        =      -0.2850698552631418 [Eh]
	 Total Energy              =     -76.3432924005256979 [Eh]
	 SCS Total Energy          =     -76.3407590937200808 [Eh]
                               Psi4 1.9 release
    Molecular point group: c1

    Geometry (in Bohr), charge = -1, multiplicity = 1:

       Center              X                  Y                   Z               Mass
    ------------   -----------------  -----------------  -----------------  -----------------
         O            0.000000000000     0.000000000000     0.000000000000    15.994914619570
         H            1.137384580938     1.375255746706    -0.304761801431     1.007825032230
         H            1.122293228100    -1.462336216294    -0.300717787522     1.007825032230
         CL           5.802124388752     0.000000000000     0.000000000000    34.968852682000

  Charge       = -1
  Multiplicity = 1
  Basis Set: AUG-CC-PVTZ
    Blend: AUG-CC-PVTZ
  Basis Set: (AUG-CC-PVTZ AUX)
    Blend: AUG-CC-PVTZ-JKFIT

    Orbital Energies [Eh]
    ---------------------

    Doubly Occupied:

       1A   -104.525078     2A    -20.383881     3A    -10.249437
       4A     -7.715497     5A     -7.715493     6A     -7.715455
       7A     -1.164236     8A     -0.757640     9A     -0.520365
      10A     -0.413528    11A     -0.328844    12A     -0.173654
      13A     -0.173354    14A     -0.171663

  @DF-RHF Final Energy:  -535.64704159162000

   => Energetics <=

    Nuclear Repulsion Energy =             39.4436284467454144
    One-Electron Energy =                -826.1650899879780354
    Two-Electron Energy =                 251.0744199496126612
    Total Energy =                       -535.6470415916199954
 Dipole X            :       -105.5595956          100.8957924           -4.6638032
 Dipole Y            :          0.0628199           -0.0870805           -0.0242605
 Dipole Z            :          0.4438150           -0.6054796           -0.1616645
 Magnitude           :                                                    4.6666673
  Basis Set: (AUG-CC-PVTZ AUX)
    Blend: AUG-CC-PVTZ-RI
	 Reference Energy          =    -535.6470415916199954 [Eh]
	 Singles Energy            =      -0.0000000000000000 [Eh]
	 Same-Spin Energy          =      -0.1333128537850693 [Eh]
	 Opposite-Spin Energy      =      -0.3973826735113437 [Eh]
	 Correlation Energy        =      -0.5306955272964129 [Eh]
	 Total Energy              =    -536.1777371189164114 [Eh]

	 ================> DF-SCS-MP2 Energies <==================
	-----------------------------------------------------------
	 SCS Same-Spin Scale       =       0.3333333333333333 [-]
	 SCS Opposite-Spin Scale   =       1.2000000000000000 [-]
	 SCS Same-Spin Energy      =      -0.0444376179283564 [Eh]
	 SCS Opposite-Spin Energy  =      -0.4768592082136124 [Eh]
	 SCS Correlation Energy    =      -0.5212968261419688 [Eh]
	 SCS Total Energy          =    -536.1683384177620155 [Eh]
	-----------------------------------------------------------

*** Psi4 exiting successfully. Buy a developer a beer!
