                               Psi4 1.9 release

  ==> Input File <==

--------------------------------------------------------------------------
MEMORY 60 GB

molecule dimer {
0 1
O      0.000000     0.000000     0.000000
H     -0.523226     0.790235     0.140198
H      0.875708     0.393609    -0.234645
--
-1 1
Cl     3.070352     0.000000     0.000000

units ang
no_reorient
no_com
symmetry c1
}

set {
basis        aug-cc-pVTZ
scf_type     df
}

energy("mp2", bsse_type="cp")
--------------------------------------------------------------------------

                               Psi4 1.9 release
    Molecular point group: c1
  Charge       = -1
  Multiplicity = 1
  Basis Set: AUG-CC-PVTZ
    Blend: AUG-CC-PVTZ
  Basis Set: (AUG-CC-PVTZ AUX)
    Blend: AUG-CC-PVTZ-JKFIT
  @DF-RHF Final Energy:  -459.57350497405696
    Total Energy =                       -459.5735049740569593
 Dipole X            :       -104.4386366           98.6361146           -5.8025219
 Dipole Y            :         -0.0000266            0.0000000           -0.0000266
 Dipole Z            :         -0.0000783            0.0000000           -0.0000783
 Magnitude           :                                                    5.8025219
  Basis Set: (AUG-CC-PVTZ AUX)
    Blend: AUG-CC-PVTZ-RI
	 Reference Energy          =    -459.5735049740569593 [Eh]
	 Singles Energy            =      -0.0000000000000000 [Eh]
	 Same-Spin Energy          =      -0.0625890444682579 [Eh]
	 Opposite-Spin Energy      =      -0.1800118508137415 [Eh]
	 Correlation Energy        =      -0.2426008952819993 [Eh]
	 Total Energy              =    -459.8161058693389691 [Eh]
	 SCS Total Energy          =    -459.8103822098561864 [Eh]
                               Psi4 1.9 release
    Molecular point group: c1
  Multiplicity = 1
  Basis Set: AUG-CC-PVTZ
    Blend: AUG-CC-PVTZ
  Basis Set: (AUG-CC-PVTZ AUX)
    Blend: AUG-CC-PVTZ-JKFIT
  @DF-RHF Final Energy:   -76.05823114993593
    Total Energy =                        -76.0582311499359491
  Basis Set: (AUG-CC-PVTZ AUX)
	 Singles Energy            =      -0.0000000000000000 [Eh]
	 Same-Spin Energy          =      -0.0687209266959418 [Eh]
	 Opposite-Spin Energy      =      -0.2164820216680362 [Eh]
	 Correlation Energy        =      -0.2852029483639780 [Eh]
	 Total Energy              =     -76.3434340982999089 [Eh]
	 SCS Total Energy          =     -76.3409165515028860 [Eh]
                               Psi4 1.9 release
    Molecular point group: c1

    Geometry (in Bohr), charge = -1, multiplicity = 1:

       Center              X                  Y                   Z               Mass
    ------------   -----------------  -----------------  -----------------  -----------------
         O            0.000000000000     0.000000000000     0.000000000000    15.994914619570
         H           -0.988753841719     1.493327724751     0.264935823337     1.007825032230
         H            1.654848285872     0.743813210515    -0.443414786708     1.007825032230
         CL           5.802124388752     0.000000000000     0.000000000000    34.968852682000

  Charge       = -1
  Multiplicity = 1
  Basis Set: AUG-CC-PVTZ
    Blend: AUG-CC-PVTZ
  Basis Set: (AUG-CC-PVTZ AUX)
    Blend: AUG-CC-PVTZ-JKFIT

    Orbital Energies [Eh]
    ---------------------

    Doubly Occupied:

       1A   -104.520554     2A    -20.388561     3A    -10.244870
       4A     -7.710964     5A     -7.710903     6A     -7.710882
       7A     -1.169285     8A     -0.753934     9A     -0.523326
      10A     -0.413278    11A     -0.331803    12A     -0.171602
      13A     -0.167428    14A     -0.166683

  @DF-RHF Final Energy:  -535.64190822154512

   => Energetics <=

    Nuclear Repulsion Energy =             38.9497983405183348
    One-Electron Energy =                -825.2152620459061154
    Two-Electron Energy =                 250.6235554838426935
    Total Energy =                       -535.6419082215451226
 Dipole X            :       -104.4594795           99.3022091           -5.1572704
 Dipole Y            :         -1.5844884            2.2371409            0.6526526
 Dipole Z            :          0.1598778           -0.1784790           -0.0186012
 Magnitude           :                                                    5.1984363
  Basis Set: (AUG-CC-PVTZ AUX)
    Blend: AUG-CC-PVTZ-RI
	 Reference Energy          =    -535.6419082215451226 [Eh]
	 Singles Energy            =      -0.0000000000000000 [Eh]
	 Same-Spin Energy          =      -0.1339800574466952 [Eh]
	 Opposite-Spin Energy      =      -0.3987241052969705 [Eh]
	 Correlation Energy        =      -0.5327041627436657 [Eh]
	 Total Energy              =    -536.1746123842888210 [Eh]

	 ================> DF-SCS-MP2 Energies <==================
	-----------------------------------------------------------
	 SCS Same-Spin Scale       =       0.3333333333333333 [-]
	 SCS Opposite-Spin Scale   =       1.2000000000000000 [-]
	 SCS Same-Spin Energy      =      -0.0446600191488984 [Eh]
	 SCS Opposite-Spin Energy  =      -0.4784689263563646 [Eh]
	 SCS Correlation Energy    =      -0.5231289455052630 [Eh]
	 SCS Total Energy          =    -536.1650371670504001 [Eh]
	-----------------------------------------------------------

*** Psi4 exiting successfully. Buy a developer a beer!
