                               Psi4 1.9 release

  ==> Input File <==

--------------------------------------------------------------------------
MEMORY 60 GB

molecule dimer {
0 1
O      0.000000     0.000000     0.000000
H      0.169764     0.941808    -0.045488
H      0.888059    -0.362740    -0.237955
--
-1 1
Cl     3.070352     0.000000     0.000000

units ang
no_reorient
no_com
symmetry c1
}

set {
basis        aug-cc-pVTZ
scf_type     df
}

energy("mp2", bsse_type="cp")
--------------------------------------------------------------------------

                               Psi4 1.9 release
    Molecular point group: c1
  Charge       = -1
  Multiplicity = 1
  Basis Set: AUG-CC-PVTZ
    Blend: AUG-CC-PVTZ
  Basis Set: (AUG-CC-PVTZ AUX)
    Blend: AUG-CC-PVTZ-JKFIT
  @DF-RHF Final Energy:  -459.57350493001530
    Total Energy =                       -459.5735049300152468
 Dipole X            :       -104.4386573           98.6361146           -5.8025427
 Dipole Y            :         -0.0000766            0.0000000           -0.0000766
 Dipole Z            :          0.0000514            0.0000000            0.0000514
 Magnitude           :                                                    5.8025427
  Basis Set: (AUG-CC-PVTZ AUX)
    Blend: AUG-CC-PVTZ-RI
	 Reference Energy          =    -459.5735049300153037 [Eh]
	 Singles Energy            =      -0.0000000000000000 [Eh]
	 Same-Spin Energy          =      -0.0625846975086800 [Eh]
	 Opposite-Spin Energy      =      -0.1800011729846189 [Eh]
	 Correlation Energy        =      -0.2425858704932989 [Eh]
	 Total Energy              =    -459.8160908005086185 [Eh]
	 SCS Total Energy          =    -459.8103679034330753 [Eh]
                               Psi4 1.9 release
    Molecular point group: c1
  Multiplicity = 1
  Basis Set: AUG-CC-PVTZ
    Blend: AUG-CC-PVTZ
  Basis Set: (AUG-CC-PVTZ AUX)
    Blend: AUG-CC-PVTZ-JKFIT
  @DF-RHF Final Energy:   -76.05823306657648
    Total Energy =                        -76.0582330665764630
  Basis Set: (AUG-CC-PVTZ AUX)
	 Singles Energy            =      -0.0000000000000000 [Eh]
	 Same-Spin Energy          =      -0.0687209027383180 [Eh]
	 Opposite-Spin Energy      =      -0.2165402723972190 [Eh]
	 Correlation Energy        =      -0.2852611751355369 [Eh]
	 Total Energy              =     -76.3434942417120084 [Eh]
	 SCS Total Energy          =     -76.3409883610325863 [Eh]
                               Psi4 1.9 release
    Molecular point group: c1

    Geometry (in Bohr), charge = -1, multiplicity = 1:

       Center              X                  Y                   Z               Mass
    ------------   -----------------  -----------------  -----------------  -----------------
         O            0.000000000000     0.000000000000     0.000000000000    15.994914619570
         H            0.320807465962     1.779759182765    -0.085959861995     1.007825032230
         H            1.678188293248    -0.685479254749    -0.449669780183     1.007825032230
         CL           5.802124388752     0.000000000000     0.000000000000    34.968852682000

  Charge       = -1
  Multiplicity = 1
  Basis Set: AUG-CC-PVTZ
    Blend: AUG-CC-PVTZ
  Basis Set: (AUG-CC-PVTZ AUX)
    Blend: AUG-CC-PVTZ-JKFIT

    Orbital Energies [Eh]
    ---------------------

    Doubly Occupied:

       1A   -104.527909     2A    -20.379094     3A    -10.252355
       4A     -7.718438     5A     -7.718393     6A     -7.718369
       7A     -1.161130     8A     -0.761884     9A     -0.517234
      10A     -0.410035    11A     -0.324975    12A     -0.178381
      13A     -0.175632    14A     -0.174581

  @DF-RHF Final Energy:  -535.64888219250804

   => Energetics <=

    Nuclear Repulsion Energy =             39.4867648603921353
    One-Electron Energy =                -826.2344751129281804
    Two-Electron Energy =                 251.0988280600280689
    Total Energy =                       -535.6488821925080401
 Dipole X            :       -105.2916122          100.6351104           -4.6565018
 Dipole Y            :         -0.7342376            1.0942799            0.3600423
 Dipole Z            :          0.4048275           -0.5356296           -0.1308021
 Magnitude           :                                                    4.6722317
  Basis Set: (AUG-CC-PVTZ AUX)
    Blend: AUG-CC-PVTZ-RI
	 Reference Energy          =    -535.6488821925080401 [Eh]
	 Singles Energy            =      -0.0000000000000000 [Eh]
	 Same-Spin Energy          =      -0.1338325718532443 [Eh]
	 Opposite-Spin Energy      =      -0.3981600473393984 [Eh]
	 Correlation Energy        =      -0.5319926191926427 [Eh]
	 Total Energy              =    -536.1808748117007326 [Eh]

	 ================> DF-SCS-MP2 Energies <==================
	-----------------------------------------------------------
	 SCS Same-Spin Scale       =       0.3333333333333333 [-]
	 SCS Opposite-Spin Scale   =       1.2000000000000000 [-]
	 SCS Same-Spin Energy      =      -0.0446108572844148 [Eh]
	 SCS Opposite-Spin Energy  =      -0.4777920568072780 [Eh]
	 SCS Correlation Energy    =      -0.5224029140916928 [Eh]
	 SCS Total Energy          =    -536.1712851065997256 [Eh]
	-----------------------------------------------------------

*** Psi4 exiting successfully. Buy a developer a beer!
