                               Psi4 1.9 release

  ==> Input File <==

--------------------------------------------------------------------------
MEMORY 60 GB

molecule dimer {
0 1
O      0.000000     0.000000     0.000000
H     -0.311304     0.902511     0.083414
H      0.940368     0.147292    -0.251971
--
-1 1
Br     3.212066     0.000000     0.000000

units ang
no_reorient
no_com
symmetry c1
}

set {
basis        aug-cc-pVTZ
scf_type     df
}

energy("mp2", bsse_type="cp")
--------------------------------------------------------------------------

                               Psi4 1.9 release
    Molecular point group: c1
  Charge       = -1
  Multiplicity = 1
  Basis Set: AUG-CC-PVTZ
    Blend: AUG-CC-PVTZ
  Basis Set: (AUG-CC-PVTZ AUX)
    Blend: AUG-CC-PVTZ-JKFIT
  @DF-RHF Final Energy: -2572.53368285157103
    Total Energy =                      -2572.5336828515710295
 Dipole X            :       -218.5174138          212.4473763           -6.0700375
 Dipole Y            :         -0.0000928            0.0000000           -0.0000928
 Dipole Z            :         -0.0001194            0.0000000           -0.0001194
 Magnitude           :                                                    6.0700375
  Basis Set: (AUG-CC-PVTZ AUX)
    Blend: AUG-CC-PVTZ-RI
	 Reference Energy          =   -2572.5336828515710295 [Eh]
	 Singles Energy            =      -0.0000000000000000 [Eh]
	 Same-Spin Energy          =      -0.0879418585342929 [Eh]
	 Opposite-Spin Energy      =      -0.2042617702484453 [Eh]
	 Correlation Energy        =      -0.2922036287827382 [Eh]
	 Total Energy              =   -2572.8258864803538017 [Eh]
	 SCS Total Energy          =   -2572.8081109287140862 [Eh]
                               Psi4 1.9 release
    Molecular point group: c1
  Multiplicity = 1
  Basis Set: AUG-CC-PVTZ
    Blend: AUG-CC-PVTZ
  Basis Set: (AUG-CC-PVTZ AUX)
    Blend: AUG-CC-PVTZ-JKFIT
  @DF-RHF Final Energy:   -76.05855654532488
    Total Energy =                        -76.0585565453248762
  Basis Set: (AUG-CC-PVTZ AUX)
	 Singles Energy            =      -0.0000000000000000 [Eh]
	 Same-Spin Energy          =      -0.0686974843288013 [Eh]
	 Opposite-Spin Energy      =      -0.2165174107458749 [Eh]
	 Correlation Energy        =      -0.2852148950746762 [Eh]
	 Total Energy              =     -76.3437714403995500 [Eh]
	 SCS Total Energy          =     -76.3412765996628622 [Eh]
                               Psi4 1.9 release
    Molecular point group: c1

    Geometry (in Bohr), charge = -1, multiplicity = 1:

       Center              X                  Y                   Z               Mass
    ------------   -----------------  -----------------  -----------------  -----------------
         O            0.000000000000     0.000000000000     0.000000000000    15.994914619570
         H           -0.588279301760     1.705498615213     0.157629615029     1.007825032230
         H            1.777037977145     0.278341540471    -0.476156181558     1.007825032230
         BR           6.069925036895     0.000000000000     0.000000000000    78.918337600000

  Charge       = -1
  Multiplicity = 1
  Basis Set: AUG-CC-PVTZ
    Blend: AUG-CC-PVTZ
  Basis Set: (AUG-CC-PVTZ AUX)
    Blend: AUG-CC-PVTZ-JKFIT

    Orbital Energies [Eh]
    ---------------------

    Doubly Occupied:

       1A   -489.737408     2A    -64.877674     3A    -58.232170
       4A    -58.232148     5A    -58.232118     6A    -20.390049
       7A     -9.550140     8A     -7.157730     9A     -7.157491
      10A     -7.157405    11A     -2.899406    12A     -2.899340
      13A     -2.899222    14A     -2.898950    15A     -2.898937
      16A     -1.172924    17A     -0.708924    18A     -0.528117
      19A     -0.417869    20A     -0.334970    21A     -0.163016
      22A     -0.158088    23A     -0.157335

  @DF-RHF Final Energy: -2648.60375105152525

   => Energetics <=

    Nuclear Repulsion Energy =             68.3764206060137099
    One-Electron Energy =               -3836.2374826085388122
    Two-Electron Energy =                1119.2573109509999085
    Total Energy =                      -2648.6037510515252507
 Dipole X            :       -218.8329769          213.6361350           -5.1968419
 Dipole Y            :         -1.3995101            1.9838402            0.5843300
 Dipole Z            :          0.2696505           -0.3185266           -0.0488760
 Magnitude           :                                                    5.2298180
  Basis Set: (AUG-CC-PVTZ AUX)
    Blend: AUG-CC-PVTZ-RI
	 Reference Energy          =   -2648.6037510515252507 [Eh]
	 Singles Energy            =      -0.0000000000000000 [Eh]
	 Same-Spin Energy          =      -0.1596056030246915 [Eh]
	 Opposite-Spin Energy      =      -0.4231408167290869 [Eh]
	 Correlation Energy        =      -0.5827464197537784 [Eh]
	 Total Energy              =   -2649.1864974712789262 [Eh]

	 ================> DF-SCS-MP2 Energies <==================
	-----------------------------------------------------------
	 SCS Same-Spin Scale       =       0.3333333333333333 [-]
	 SCS Opposite-Spin Scale   =       1.2000000000000000 [-]
	 SCS Same-Spin Energy      =      -0.0532018676748972 [Eh]
	 SCS Opposite-Spin Energy  =      -0.5077689800749042 [Eh]
	 SCS Correlation Energy    =      -0.5609708477498014 [Eh]
	 SCS Total Energy          =   -2649.1647218992752641 [Eh]
	-----------------------------------------------------------

*** Psi4 exiting successfully. Buy a developer a beer!
