                               Psi4 1.9 release

  ==> Input File <==

--------------------------------------------------------------------------
MEMORY 60 GB

molecule dimer {
0 1
O      0.000000     0.000000     0.000000
H      0.761483     0.544891    -0.204039
H      0.380810    -0.902246    -0.102038
--
-1 1
Br     3.212066     0.000000     0.000000

units ang
no_reorient
no_com
symmetry c1
}

set {
basis        aug-cc-pVTZ
scf_type     df
}

energy("mp2", bsse_type="cp")
--------------------------------------------------------------------------

                               Psi4 1.9 release
    Molecular point group: c1
  Charge       = -1
  Multiplicity = 1
  Basis Set: AUG-CC-PVTZ
    Blend: AUG-CC-PVTZ
  Basis Set: (AUG-CC-PVTZ AUX)
    Blend: AUG-CC-PVTZ-JKFIT
  @DF-RHF Final Energy: -2572.53368029407466
    Total Energy =                      -2572.5336802940746566
 Dipole X            :       -218.5174391          212.4473763           -6.0700628
 Dipole Y            :          0.0000569            0.0000000            0.0000569
 Dipole Z            :          0.0000011            0.0000000            0.0000011
 Magnitude           :                                                    6.0700628
  Basis Set: (AUG-CC-PVTZ AUX)
    Blend: AUG-CC-PVTZ-RI
	 Reference Energy          =   -2572.5336802940746566 [Eh]
	 Singles Energy            =      -0.0000000000000000 [Eh]
	 Same-Spin Energy          =      -0.0876154002960415 [Eh]
	 Opposite-Spin Energy      =      -0.2033713613529710 [Eh]
	 Correlation Energy        =      -0.2909867616490125 [Eh]
	 Total Energy              =   -2572.8246670557236939 [Eh]
	 SCS Total Energy          =   -2572.8069310611303990 [Eh]
                               Psi4 1.9 release
    Molecular point group: c1
  Multiplicity = 1
  Basis Set: AUG-CC-PVTZ
    Blend: AUG-CC-PVTZ
  Basis Set: (AUG-CC-PVTZ AUX)
    Blend: AUG-CC-PVTZ-JKFIT
  @DF-RHF Final Energy:   -76.05854409510550
    Total Energy =                        -76.0585440951055034
  Basis Set: (AUG-CC-PVTZ AUX)
	 Singles Energy            =      -0.0000000000000000 [Eh]
	 Same-Spin Energy          =      -0.0686804677445474 [Eh]
	 Opposite-Spin Energy      =      -0.2163106212158317 [Eh]
	 Correlation Energy        =      -0.2849910889603791 [Eh]
	 Total Energy              =     -76.3435351840658853 [Eh]
	 SCS Total Energy          =     -76.3410103298126899 [Eh]
                               Psi4 1.9 release
    Molecular point group: c1

    Geometry (in Bohr), charge = -1, multiplicity = 1:

       Center              X                  Y                   Z               Mass
    ------------   -----------------  -----------------  -----------------  -----------------
         O            0.000000000000     0.000000000000     0.000000000000    15.994914619570
         H            1.438994319192     1.029694758227    -0.385577828912     1.007825032230
         H            0.719626605836    -1.704997837790    -0.192823874389     1.007825032230
         BR           6.069925036895     0.000000000000     0.000000000000    78.918337600000

  Charge       = -1
  Multiplicity = 1
  Basis Set: AUG-CC-PVTZ
    Blend: AUG-CC-PVTZ
  Basis Set: (AUG-CC-PVTZ AUX)
    Blend: AUG-CC-PVTZ-JKFIT

    Orbital Energies [Eh]
    ---------------------

    Doubly Occupied:

       1A   -489.737983     2A    -64.878252     3A    -58.232743
       4A    -58.232725     5A    -58.232690     6A    -20.391477
       7A     -9.550745     8A     -7.158231     9A     -7.158152
      10A     -7.158030    11A     -2.899925    12A     -2.899913
      13A     -2.899751    14A     -2.899643    15A     -2.899612
      16A     -1.173048    17A     -0.707998    18A     -0.529221
      19A     -0.420875    20A     -0.336538    21A     -0.161371
      22A     -0.159469    23A     -0.158141

  @DF-RHF Final Energy: -2648.60534157826123

   => Energetics <=

    Nuclear Repulsion Energy =             68.7815777539689037
    One-Electron Energy =               -3837.0207720215298650
    Two-Electron Energy =                1119.6338526892998289
    Total Energy =                      -2648.6053415782607772
 Dipole X            :       -219.5623712          214.6059972           -4.9563740
 Dipole Y            :          0.4539590           -0.6753031           -0.2213441
 Dipole Z            :          0.4358302           -0.5784017           -0.1425715
 Magnitude           :                                                    4.9633621
  Basis Set: (AUG-CC-PVTZ AUX)
    Blend: AUG-CC-PVTZ-RI
	 Reference Energy          =   -2648.6053415782612319 [Eh]
	 Singles Energy            =      -0.0000000000000000 [Eh]
	 Same-Spin Energy          =      -0.1586479463509218 [Eh]
	 Opposite-Spin Energy      =      -0.4213690111372972 [Eh]
	 Correlation Energy        =      -0.5800169574882190 [Eh]
	 Total Energy              =   -2649.1853585357494012 [Eh]

	 ================> DF-SCS-MP2 Energies <==================
	-----------------------------------------------------------
	 SCS Same-Spin Scale       =       0.3333333333333333 [-]
	 SCS Opposite-Spin Scale   =       1.2000000000000000 [-]
	 SCS Same-Spin Energy      =      -0.0528826487836406 [Eh]
	 SCS Opposite-Spin Energy  =      -0.5056428133647566 [Eh]
	 SCS Correlation Energy    =      -0.5585254621483972 [Eh]
	 SCS Total Energy          =   -2649.1638670404095137 [Eh]
	-----------------------------------------------------------

*** Psi4 exiting successfully. Buy a developer a beer!
