                               Psi4 1.9 release

  ==> Input File <==

--------------------------------------------------------------------------
MEMORY 60 GB

molecule dimer {
0 1
O      0.000000     0.000000     0.000000
H      0.166282     0.942740    -0.044555
H      0.885519    -0.359212    -0.237274
--
-1 1
Br     3.212066     0.000000     0.000000

units ang
no_reorient
no_com
symmetry c1
}

set {
basis        aug-cc-pVTZ
scf_type     df
}

energy("mp2", bsse_type="cp")
--------------------------------------------------------------------------

                               Psi4 1.9 release
    Molecular point group: c1
  Charge       = -1
  Multiplicity = 1
  Basis Set: AUG-CC-PVTZ
    Blend: AUG-CC-PVTZ
  Basis Set: (AUG-CC-PVTZ AUX)
    Blend: AUG-CC-PVTZ-JKFIT
  @DF-RHF Final Energy: -2572.53368162154766
    Total Energy =                      -2572.5336816215476574
 Dipole X            :       -218.5174850          212.4473763           -6.0701087
 Dipole Y            :         -0.0001272            0.0000000           -0.0001272
 Dipole Z            :         -0.0000458            0.0000000           -0.0000458
 Magnitude           :                                                    6.0701087
  Basis Set: (AUG-CC-PVTZ AUX)
    Blend: AUG-CC-PVTZ-RI
	 Reference Energy          =   -2572.5336816215476574 [Eh]
	 Singles Energy            =      -0.0000000000000000 [Eh]
	 Same-Spin Energy          =      -0.0877856637969742 [Eh]
	 Opposite-Spin Energy      =      -0.2038328264479028 [Eh]
	 Correlation Energy        =      -0.2916184902448770 [Eh]
	 Total Energy              =   -2572.8253001117923304 [Eh]
	 SCS Total Energy          =   -2572.8075429012174027 [Eh]
                               Psi4 1.9 release
    Molecular point group: c1
  Multiplicity = 1
  Basis Set: AUG-CC-PVTZ
    Blend: AUG-CC-PVTZ
  Basis Set: (AUG-CC-PVTZ AUX)
    Blend: AUG-CC-PVTZ-JKFIT
  @DF-RHF Final Energy:   -76.05855055971004
    Total Energy =                        -76.0585505597100422
  Basis Set: (AUG-CC-PVTZ AUX)
	 Singles Energy            =      -0.0000000000000000 [Eh]
	 Same-Spin Energy          =      -0.0686884541351125 [Eh]
	 Opposite-Spin Energy      =      -0.2164254380469865 [Eh]
	 Correlation Energy        =      -0.2851138921820990 [Eh]
	 Total Energy              =     -76.3436644518921383 [Eh]
	 SCS Total Energy          =     -76.3411572367447917 [Eh]
                               Psi4 1.9 release
    Molecular point group: c1

    Geometry (in Bohr), charge = -1, multiplicity = 1:

       Center              X                  Y                   Z               Mass
    ------------   -----------------  -----------------  -----------------  -----------------
         O            0.000000000000     0.000000000000     0.000000000000    15.994914619570
         H            0.314227439593     1.781520407514    -0.084196747520     1.007825032230
         H            1.673388388889    -0.678812300978    -0.448382876692     1.007825032230
         BR           6.069925036895     0.000000000000     0.000000000000    78.918337600000

  Charge       = -1
  Multiplicity = 1
  Basis Set: AUG-CC-PVTZ
    Blend: AUG-CC-PVTZ
  Basis Set: (AUG-CC-PVTZ AUX)
    Blend: AUG-CC-PVTZ-JKFIT

    Orbital Energies [Eh]
    ---------------------

    Doubly Occupied:

       1A   -489.739617     2A    -64.879892     3A    -58.234381
       4A    -58.234366     5A    -58.234335     6A    -20.387912
       7A     -9.552378     8A     -7.159909     9A     -7.159763
      10A     -7.159656    11A     -2.901583    12A     -2.901556
      13A     -2.901415    14A     -2.901248    15A     -2.901227
      16A     -1.170742    17A     -0.710511    18A     -0.526762
      19A     -0.418262    20A     -0.333631    21A     -0.164014
      22A     -0.160763    23A     -0.159688

  @DF-RHF Final Energy: -2648.60616024781757

   => Energetics <=

    Nuclear Repulsion Energy =             68.8353292894564106
    One-Electron Energy =               -3837.0957563585229764
    Two-Electron Energy =                1119.6542668212493936
    Total Energy =                      -2648.6061602478175701
 Dipole X            :       -219.3831399          214.4349921           -4.9481478
 Dipole Y            :         -0.7405944            1.1027081            0.3621137
 Dipole Z            :          0.4113805           -0.5325796           -0.1211991
 Magnitude           :                                                    4.9628602
  Basis Set: (AUG-CC-PVTZ AUX)
    Blend: AUG-CC-PVTZ-RI
	 Reference Energy          =   -2648.6061602478175701 [Eh]
	 Singles Energy            =      -0.0000000000000000 [Eh]
	 Same-Spin Energy          =      -0.1591618802619969 [Eh]
	 Opposite-Spin Energy      =      -0.4221829341622291 [Eh]
	 Correlation Energy        =      -0.5813448144242259 [Eh]
	 Total Energy              =   -2649.1875050622415984 [Eh]

	 ================> DF-SCS-MP2 Energies <==================
	-----------------------------------------------------------
	 SCS Same-Spin Scale       =       0.3333333333333333 [-]
	 SCS Opposite-Spin Scale   =       1.2000000000000000 [-]
	 SCS Same-Spin Energy      =      -0.0530539600873323 [Eh]
	 SCS Opposite-Spin Energy  =      -0.5066195209946749 [Eh]
	 SCS Correlation Energy    =      -0.5596734810820072 [Eh]
	 SCS Total Energy          =   -2649.1658337288995426 [Eh]
	-----------------------------------------------------------

*** Psi4 exiting successfully. Buy a developer a beer!
