                               Psi4 1.9 release

  ==> Input File <==

--------------------------------------------------------------------------
MEMORY 60 GB

molecule dimer {
0 1
O      0.000000     0.000000     0.000000
H      0.599313     0.730363    -0.160585
H      0.593396    -0.769465    -0.159000
--
-1 1
Br     3.212066     0.000000     0.000000

units ang
no_reorient
no_com
symmetry c1
}

set {
basis        aug-cc-pVTZ
scf_type     df
}

energy("mp2", bsse_type="cp")
--------------------------------------------------------------------------

                               Psi4 1.9 release
    Molecular point group: c1
  Charge       = -1
  Multiplicity = 1
  Basis Set: AUG-CC-PVTZ
    Blend: AUG-CC-PVTZ
  Basis Set: (AUG-CC-PVTZ AUX)
    Blend: AUG-CC-PVTZ-JKFIT
  @DF-RHF Final Energy: -2572.53367969307146
    Total Energy =                      -2572.5336796930714627
 Dipole X            :       -218.5174138          212.4473763           -6.0700375
 Dipole Y            :          0.0000017            0.0000000            0.0000017
 Dipole Z            :          0.0000173            0.0000000            0.0000173
 Magnitude           :                                                    6.0700375
  Basis Set: (AUG-CC-PVTZ AUX)
    Blend: AUG-CC-PVTZ-RI
	 Reference Energy          =   -2572.5336796930714627 [Eh]
	 Singles Energy            =      -0.0000000000000000 [Eh]
	 Same-Spin Energy          =      -0.0875275787259289 [Eh]
	 Opposite-Spin Energy      =      -0.2031418363472011 [Eh]
	 Correlation Energy        =      -0.2906694150731300 [Eh]
	 Total Energy              =   -2572.8243491081448155 [Eh]
	 SCS Total Energy          =   -2572.8066257562632018 [Eh]
                               Psi4 1.9 release
    Molecular point group: c1
  Multiplicity = 1
  Basis Set: AUG-CC-PVTZ
    Blend: AUG-CC-PVTZ
  Basis Set: (AUG-CC-PVTZ AUX)
    Blend: AUG-CC-PVTZ-JKFIT
  @DF-RHF Final Energy:   -76.05853953385835
    Total Energy =                        -76.0585395338583510
  Basis Set: (AUG-CC-PVTZ AUX)
	 Singles Energy            =      -0.0000000000000000 [Eh]
	 Same-Spin Energy          =      -0.0686764849537358 [Eh]
	 Opposite-Spin Energy      =      -0.2162568088339331 [Eh]
	 Correlation Energy        =      -0.2849332937876689 [Eh]
	 Total Energy              =     -76.3434728276460248 [Eh]
	 SCS Total Energy          =     -76.3409398661103182 [Eh]
                               Psi4 1.9 release
    Molecular point group: c1

    Geometry (in Bohr), charge = -1, multiplicity = 1:

       Center              X                  Y                   Z               Mass
    ------------   -----------------  -----------------  -----------------  -----------------
         O            0.000000000000     0.000000000000     0.000000000000    15.994914619570
         H            1.132537433427     1.380186042168    -0.303461669857     1.007825032230
         H            1.121355923942    -1.454078113125    -0.300466453948     1.007825032230
         BR           6.069925036895     0.000000000000     0.000000000000    78.918337600000

  Charge       = -1
  Multiplicity = 1
  Basis Set: AUG-CC-PVTZ
    Blend: AUG-CC-PVTZ
  Basis Set: (AUG-CC-PVTZ AUX)
    Blend: AUG-CC-PVTZ-JKFIT

    Orbital Energies [Eh]
    ---------------------

    Doubly Occupied:

       1A   -489.737657     2A    -64.877927     3A    -58.232418
       4A    -58.232398     5A    -58.232362     6A    -20.392037
       7A     -9.550427     8A     -7.157899     9A     -7.157843
      10A     -7.157710    11A     -2.899608    12A     -2.899595
      13A     -2.899425    14A     -2.899325    15A     -2.899292
      16A     -1.173499    17A     -0.707323    18A     -0.529583
      19A     -0.421501    20A     -0.337034    21A     -0.160217
      22A     -0.159561    23A     -0.157821

  @DF-RHF Final Energy: -2648.60518707551728

   => Energetics <=

    Nuclear Repulsion Energy =             68.7884406987546839
    One-Electron Energy =               -3837.0423272029615873
    Two-Electron Energy =                1119.6486994286894969
    Total Energy =                      -2648.6051870755172786
 Dipole X            :       -219.6459554          214.7012696           -4.9446857
 Dipole Y            :          0.0539868           -0.0738921           -0.0199052
 Dipole Z            :          0.4505794           -0.6039281           -0.1533487
 Magnitude           :                                                    4.9471031
  Basis Set: (AUG-CC-PVTZ AUX)
    Blend: AUG-CC-PVTZ-RI
	 Reference Energy          =   -2648.6051870755172786 [Eh]
	 Singles Energy            =      -0.0000000000000000 [Eh]
	 Same-Spin Energy          =      -0.1584706305194351 [Eh]
	 Opposite-Spin Energy      =      -0.4210036481004756 [Eh]
	 Correlation Energy        =      -0.5794742786199107 [Eh]
	 Total Energy              =   -2649.1846613541370061 [Eh]

	 ================> DF-SCS-MP2 Energies <==================
	-----------------------------------------------------------
	 SCS Same-Spin Scale       =       0.3333333333333333 [-]
	 SCS Opposite-Spin Scale   =       1.2000000000000000 [-]
	 SCS Same-Spin Energy      =      -0.0528235435064784 [Eh]
	 SCS Opposite-Spin Energy  =      -0.5052043777205707 [Eh]
	 SCS Correlation Energy    =      -0.5580279212270490 [Eh]
	 SCS Total Energy          =   -2649.1632149967445002 [Eh]
	-----------------------------------------------------------

*** Psi4 exiting successfully. Buy a developer a beer!
