                               Psi4 1.9 release

  ==> Input File <==

--------------------------------------------------------------------------
MEMORY 60 GB

molecule dimer {
0 1
O      0.000000     0.000000     0.000000
H     -0.526324     0.788345     0.141028
H      0.871503     0.394244    -0.233518
--
-1 1
Br     3.212066     0.000000     0.000000

units ang
no_reorient
no_com
symmetry c1
}

set {
basis        aug-cc-pVTZ
scf_type     df
}

energy("mp2", bsse_type="cp")
--------------------------------------------------------------------------

                               Psi4 1.9 release
    Molecular point group: c1
  Charge       = -1
  Multiplicity = 1
  Basis Set: AUG-CC-PVTZ
    Blend: AUG-CC-PVTZ
  Basis Set: (AUG-CC-PVTZ AUX)
    Blend: AUG-CC-PVTZ-JKFIT
  @DF-RHF Final Energy: -2572.53368169924352
    Total Energy =                      -2572.5336816992435161
 Dipole X            :       -218.5174276          212.4473763           -6.0700513
 Dipole Y            :          0.0000223            0.0000000            0.0000223
 Dipole Z            :         -0.0000918            0.0000000           -0.0000918
 Magnitude           :                                                    6.0700513
  Basis Set: (AUG-CC-PVTZ AUX)
    Blend: AUG-CC-PVTZ-RI
	 Reference Energy          =   -2572.5336816992435161 [Eh]
	 Singles Energy            =      -0.0000000000000000 [Eh]
	 Same-Spin Energy          =      -0.0878105689933966 [Eh]
	 Opposite-Spin Energy      =      -0.2038752582631776 [Eh]
	 Correlation Energy        =      -0.2916858272565743 [Eh]
	 Total Energy              =   -2572.8253675265000311 [Eh]
	 SCS Total Energy          =   -2572.8076021988235880 [Eh]
                               Psi4 1.9 release
    Molecular point group: c1
  Multiplicity = 1
  Basis Set: AUG-CC-PVTZ
    Blend: AUG-CC-PVTZ
  Basis Set: (AUG-CC-PVTZ AUX)
    Blend: AUG-CC-PVTZ-JKFIT
  @DF-RHF Final Energy:   -76.05854839375706
    Total Energy =                        -76.0585483937570643
  Basis Set: (AUG-CC-PVTZ AUX)
	 Singles Energy            =      -0.0000000000000000 [Eh]
	 Same-Spin Energy          =      -0.0686881051597298 [Eh]
	 Opposite-Spin Energy      =      -0.2163673164439707 [Eh]
	 Correlation Energy        =      -0.2850554216037005 [Eh]
	 Total Energy              =     -76.3436038153607655 [Eh]
	 SCS Total Energy          =     -76.3410852085430776 [Eh]
                               Psi4 1.9 release
    Molecular point group: c1

    Geometry (in Bohr), charge = -1, multiplicity = 1:

       Center              X                  Y                   Z               Mass
    ------------   -----------------  -----------------  -----------------  -----------------
         O            0.000000000000     0.000000000000     0.000000000000    15.994914619570
         H           -0.994608213255     1.489756142374     0.266504296021     1.007825032230
         H            1.646901987515     0.745013186605    -0.441285065365     1.007825032230
         BR           6.069925036895     0.000000000000     0.000000000000    78.918337600000

  Charge       = -1
  Multiplicity = 1
  Basis Set: AUG-CC-PVTZ
    Blend: AUG-CC-PVTZ
  Basis Set: (AUG-CC-PVTZ AUX)
    Blend: AUG-CC-PVTZ-JKFIT

    Orbital Energies [Eh]
    ---------------------

    Doubly Occupied:

       1A   -489.732688     2A    -64.872915     3A    -58.227422
       4A    -58.227391     5A    -58.227352     6A    -20.396945
       7A     -9.545353     8A     -7.152949     9A     -7.152704
      10A     -7.152583    11A     -2.894653    12A     -2.894594
      13A     -2.894422    14A     -2.894127    15A     -2.894106
      16A     -1.178520    17A     -0.703178    18A     -0.532776
      19A     -0.421532    20A     -0.340251    21A     -0.157632
      22A     -0.153066    23A     -0.152263

  @DF-RHF Final Energy: -2648.59969383529597

   => Energetics <=

    Nuclear Repulsion Energy =             67.8090744693890031
    One-Electron Energy =               -3835.2186928723090205
    Two-Electron Energy =                1118.8099245676237388
    Total Energy =                      -2648.5996938352964207
 Dipole X            :       -218.5605122          213.0996701           -5.4608422
 Dipole Y            :         -1.5991863            2.2347693            0.6355830
 Dipole Z            :          0.1649241           -0.1747808           -0.0098567
 Magnitude           :                                                    5.4977141
  Basis Set: (AUG-CC-PVTZ AUX)
    Blend: AUG-CC-PVTZ-RI
	 Reference Energy          =   -2648.5996938352959660 [Eh]
	 Singles Energy            =      -0.0000000000000000 [Eh]
	 Same-Spin Energy          =      -0.1592741376839404 [Eh]
	 Opposite-Spin Energy      =      -0.4226816914465404 [Eh]
	 Correlation Energy        =      -0.5819558291304808 [Eh]
	 Total Energy              =   -2649.1816496644264589 [Eh]

	 ================> DF-SCS-MP2 Energies <==================
	-----------------------------------------------------------
	 SCS Same-Spin Scale       =       0.3333333333333333 [-]
	 SCS Opposite-Spin Scale   =       1.2000000000000000 [-]
	 SCS Same-Spin Energy      =      -0.0530913792279801 [Eh]
	 SCS Opposite-Spin Energy  =      -0.5072180297358485 [Eh]
	 SCS Correlation Energy    =      -0.5603094089638286 [Eh]
	 SCS Total Energy          =   -2649.1600032442597694 [Eh]
	-----------------------------------------------------------

*** Psi4 exiting successfully. Buy a developer a beer!
