                               Psi4 1.9 release

  ==> Input File <==

--------------------------------------------------------------------------
MEMORY 60 GB

molecule dimer {
0 1
O      0.000000     0.000000     0.000000
H      0.396301     0.866062    -0.106189
H      0.765543    -0.584246    -0.205127
--
-1 1
Br     3.212066     0.000000     0.000000

units ang
no_reorient
no_com
symmetry c1
}

set {
basis        aug-cc-pVTZ
scf_type     df
}

energy("mp2", bsse_type="cp")
--------------------------------------------------------------------------

                               Psi4 1.9 release
    Molecular point group: c1
  Charge       = -1
  Multiplicity = 1
  Basis Set: AUG-CC-PVTZ
    Blend: AUG-CC-PVTZ
  Basis Set: (AUG-CC-PVTZ AUX)
    Blend: AUG-CC-PVTZ-JKFIT
  @DF-RHF Final Energy: -2572.53368023811345
    Total Energy =                      -2572.5336802381129928
 Dipole X            :       -218.5174394          212.4473763           -6.0700632
 Dipole Y            :         -0.0000530            0.0000000           -0.0000530
 Dipole Z            :          0.0000014            0.0000000            0.0000014
 Magnitude           :                                                    6.0700632
  Basis Set: (AUG-CC-PVTZ AUX)
    Blend: AUG-CC-PVTZ-RI
	 Reference Energy          =   -2572.5336802381134476 [Eh]
	 Singles Energy            =      -0.0000000000000000 [Eh]
	 Same-Spin Energy          =      -0.0876058403474437 [Eh]
	 Opposite-Spin Energy      =      -0.2033493479957145 [Eh]
	 Correlation Energy        =      -0.2909551883431582 [Eh]
	 Total Energy              =   -2572.8246354264565525 [Eh]
	 SCS Total Energy          =   -2572.8069014024908938 [Eh]
                               Psi4 1.9 release
    Molecular point group: c1
  Multiplicity = 1
  Basis Set: AUG-CC-PVTZ
    Blend: AUG-CC-PVTZ
  Basis Set: (AUG-CC-PVTZ AUX)
    Blend: AUG-CC-PVTZ-JKFIT
  @DF-RHF Final Energy:   -76.05854256632944
    Total Energy =                        -76.0585425663294359
  Basis Set: (AUG-CC-PVTZ AUX)
	 Singles Energy            =      -0.0000000000000000 [Eh]
	 Same-Spin Energy          =      -0.0686793946474909 [Eh]
	 Opposite-Spin Energy      =      -0.2162984114492804 [Eh]
	 Correlation Energy        =      -0.2849778060967713 [Eh]
	 Total Energy              =     -76.3435203724262124 [Eh]
	 SCS Total Energy          =     -76.3409937916177341 [Eh]
                               Psi4 1.9 release
    Molecular point group: c1

    Geometry (in Bohr), charge = -1, multiplicity = 1:

       Center              X                  Y                   Z               Mass
    ------------   -----------------  -----------------  -----------------  -----------------
         O            0.000000000000     0.000000000000     0.000000000000    15.994914619570
         H            0.748900353245     1.636619987666    -0.200668127536     1.007825032230
         H            1.446666607261    -1.104064929894    -0.387633850937     1.007825032230
         BR           6.069925036895     0.000000000000     0.000000000000    78.918337600000

  Charge       = -1
  Multiplicity = 1
  Basis Set: AUG-CC-PVTZ
    Blend: AUG-CC-PVTZ
  Basis Set: (AUG-CC-PVTZ AUX)
    Blend: AUG-CC-PVTZ-JKFIT

    Orbital Energies [Eh]
    ---------------------

    Doubly Occupied:

       1A   -489.738425     2A    -64.878695     3A    -58.233186
       4A    -58.233166     5A    -58.233132     6A    -20.390486
       7A     -9.551189     8A     -7.158684     9A     -7.158590
      10A     -7.158469    11A     -2.900377    12A     -2.900362
      13A     -2.900202    14A     -2.900075    15A     -2.900047
      16A     -1.172469    17A     -0.708443    18A     -0.528515
      19A     -0.420404    20A     -0.335778    21A     -0.161672
      22A     -0.159908    23A     -0.158540

  @DF-RHF Final Energy: -2648.60559792400090

   => Energetics <=

    Nuclear Repulsion Energy =             68.8208757937259890
    One-Electron Energy =               -3837.0913221134705964
    Two-Electron Energy =                1119.6648483957435474
    Total Energy =                      -2648.6055979240009037
 Dipole X            :       -219.5789993          214.6429433           -4.9360560
 Dipole Y            :         -0.3480968            0.5325551            0.1844583
 Dipole Z            :          0.4428529           -0.5883020           -0.1454491
 Magnitude           :                                                    4.9416424
  Basis Set: (AUG-CC-PVTZ AUX)
    Blend: AUG-CC-PVTZ-RI
	 Reference Energy          =   -2648.6055979240009037 [Eh]
	 Singles Energy            =      -0.0000000000000000 [Eh]
	 Same-Spin Energy          =      -0.1586904448035173 [Eh]
	 Opposite-Spin Energy      =      -0.4213477525742888 [Eh]
	 Correlation Energy        =      -0.5800381973778060 [Eh]
	 Total Energy              =   -2649.1856361213785931 [Eh]

	 ================> DF-SCS-MP2 Energies <==================
	-----------------------------------------------------------
	 SCS Same-Spin Scale       =       0.3333333333333333 [-]
	 SCS Opposite-Spin Scale   =       1.2000000000000000 [-]
	 SCS Same-Spin Energy      =      -0.0528968149345058 [Eh]
	 SCS Opposite-Spin Energy  =      -0.5056173030891465 [Eh]
	 SCS Correlation Energy    =      -0.5585141180236523 [Eh]
	 SCS Total Energy          =   -2649.1641120420244988 [Eh]
	-----------------------------------------------------------

*** Psi4 exiting successfully. Buy a developer a beer!
