                               Psi4 1.9 release

  ==> Input File <==

--------------------------------------------------------------------------
MEMORY 60 GB

molecule dimer {
0 1
O      0.000000     0.000000     0.000000
H     -0.705476     0.620454     0.189032
H      0.743246     0.614329    -0.199152
--
-1 1
Br     3.212066     0.000000     0.000000

units ang
no_reorient
no_com
symmetry c1
}

set {
basis        aug-cc-pVTZ
scf_type     df
}

energy("mp2", bsse_type="cp")
--------------------------------------------------------------------------

                               Psi4 1.9 release
    Molecular point group: c1
  Charge       = -1
  Multiplicity = 1
  Basis Set: AUG-CC-PVTZ
    Blend: AUG-CC-PVTZ
  Basis Set: (AUG-CC-PVTZ AUX)
    Blend: AUG-CC-PVTZ-JKFIT
  @DF-RHF Final Energy: -2572.53367951144355
    Total Energy =                      -2572.5336795114435517
 Dipole X            :       -218.5173350          212.4473763           -6.0699587
 Dipole Y            :          0.0001038            0.0000000            0.0001038
 Dipole Z            :         -0.0000542            0.0000000           -0.0000542
 Magnitude           :                                                    6.0699587
  Basis Set: (AUG-CC-PVTZ AUX)
    Blend: AUG-CC-PVTZ-RI
	 Reference Energy          =   -2572.5336795114435517 [Eh]
	 Singles Energy            =      -0.0000000000000000 [Eh]
	 Same-Spin Energy          =      -0.0875506833572948 [Eh]
	 Opposite-Spin Energy      =      -0.2031792684984799 [Eh]
	 Correlation Energy        =      -0.2907299518557747 [Eh]
	 Total Energy              =   -2572.8244094632991619 [Eh]
	 SCS Total Energy          =   -2572.8066781947609343 [Eh]
                               Psi4 1.9 release
    Molecular point group: c1
  Multiplicity = 1
  Basis Set: AUG-CC-PVTZ
    Blend: AUG-CC-PVTZ
  Basis Set: (AUG-CC-PVTZ AUX)
    Blend: AUG-CC-PVTZ-JKFIT
  @DF-RHF Final Energy:   -76.05853990033849
    Total Energy =                        -76.0585399003384879
  Basis Set: (AUG-CC-PVTZ AUX)
	 Singles Energy            =      -0.0000000000000000 [Eh]
	 Same-Spin Energy          =      -0.0686788612573530 [Eh]
	 Opposite-Spin Energy      =      -0.2162789117806171 [Eh]
	 Correlation Energy        =      -0.2849577730379700 [Eh]
	 Total Energy              =     -76.3434976733764614 [Eh]
	 SCS Total Energy          =     -76.3409675482276810 [Eh]
                               Psi4 1.9 release
    Molecular point group: c1

    Geometry (in Bohr), charge = -1, multiplicity = 1:

       Center              X                  Y                   Z               Mass
    ------------   -----------------  -----------------  -----------------  -----------------
         O            0.000000000000     0.000000000000     0.000000000000    15.994914619570
         H           -1.333156428083     1.172488133445     0.357218708948     1.007825032230
         H            1.404531383842     1.160913560926    -0.376342737337     1.007825032230
         BR           6.069925036895     0.000000000000     0.000000000000    78.918337600000

  Charge       = -1
  Multiplicity = 1
  Basis Set: AUG-CC-PVTZ
    Blend: AUG-CC-PVTZ
  Basis Set: (AUG-CC-PVTZ AUX)
    Blend: AUG-CC-PVTZ-JKFIT

    Orbital Energies [Eh]
    ---------------------

    Doubly Occupied:

       1A   -489.726469     2A    -64.866667     3A    -58.221176
       4A    -58.221145     5A    -58.221095     6A    -20.405533
       7A     -9.539096     8A     -7.146677     9A     -7.146464
      10A     -7.146286    11A     -2.888412    12A     -2.888372
      13A     -2.888121    14A     -2.887861    15A     -2.887821
      16A     -1.185478    17A     -0.695705    18A     -0.538872
      19A     -0.426548    20A     -0.346883    21A     -0.150235
      22A     -0.146705    23A     -0.145597

  @DF-RHF Final Energy: -2648.59426517712200

   => Energetics <=

    Nuclear Repulsion Energy =             67.1210488426517315
    One-Electron Energy =               -3833.9961978871201609
    Two-Electron Energy =                1118.2808838673468017
    Total Energy =                      -2648.5942651771215424
 Dipole X            :       -218.2905162          212.5187512           -5.7717650
 Dipole Y            :         -1.6802741            2.3334017            0.6531276
 Dipole Z            :          0.0486601           -0.0191240            0.0295360
 Magnitude           :                                                    5.8086762
  Basis Set: (AUG-CC-PVTZ AUX)
    Blend: AUG-CC-PVTZ-RI
	 Reference Energy          =   -2648.5942651771219971 [Eh]
	 Singles Energy            =      -0.0000000000000000 [Eh]
	 Same-Spin Energy          =      -0.1586897622724086 [Eh]
	 Opposite-Spin Energy      =      -0.4218873458433601 [Eh]
	 Correlation Energy        =      -0.5805771081157687 [Eh]
	 Total Energy              =   -2649.1748422852379008 [Eh]

	 ================> DF-SCS-MP2 Energies <==================
	-----------------------------------------------------------
	 SCS Same-Spin Scale       =       0.3333333333333333 [-]
	 SCS Opposite-Spin Scale   =       1.2000000000000000 [-]
	 SCS Same-Spin Energy      =      -0.0528965874241362 [Eh]
	 SCS Opposite-Spin Energy  =      -0.5062648150120320 [Eh]
	 SCS Correlation Energy    =      -0.5591614024361682 [Eh]
	 SCS Total Energy          =   -2649.1534265795580723 [Eh]
	-----------------------------------------------------------

*** Psi4 exiting successfully. Buy a developer a beer!
