                               Psi4 1.9 release

  ==> Input File <==

--------------------------------------------------------------------------
MEMORY 60 GB

molecule dimer {
0 1
O      0.000000     0.000000     0.000000
H     -0.836551     0.410281     0.224153
H      0.564339     0.792548    -0.151214
--
-1 1
Br     3.212066     0.000000     0.000000

units ang
no_reorient
no_com
symmetry c1
}

set {
basis        aug-cc-pVTZ
scf_type     df
}

energy("mp2", bsse_type="cp")
--------------------------------------------------------------------------

                               Psi4 1.9 release
    Molecular point group: c1
  Charge       = -1
  Multiplicity = 1
  Basis Set: AUG-CC-PVTZ
    Blend: AUG-CC-PVTZ
  Basis Set: (AUG-CC-PVTZ AUX)
    Blend: AUG-CC-PVTZ-JKFIT
  @DF-RHF Final Energy: -2572.53367686492993
    Total Energy =                      -2572.5336768649294754
 Dipole X            :       -218.5172183          212.4473763           -6.0698420
 Dipole Y            :          0.0001173            0.0000000            0.0001173
 Dipole Z            :         -0.0000375            0.0000000           -0.0000375
 Magnitude           :                                                    6.0698420
  Basis Set: (AUG-CC-PVTZ AUX)
    Blend: AUG-CC-PVTZ-RI
	 Reference Energy          =   -2572.5336768649299302 [Eh]
	 Singles Energy            =      -0.0000000000000000 [Eh]
	 Same-Spin Energy          =      -0.0873143358299552 [Eh]
	 Opposite-Spin Energy      =      -0.2025588916507159 [Eh]
	 Correlation Energy        =      -0.2898732274806711 [Eh]
	 Total Energy              =   -2572.8235500924106418 [Eh]
	 SCS Total Energy          =   -2572.8058523135209725 [Eh]
                               Psi4 1.9 release
    Molecular point group: c1
  Multiplicity = 1
  Basis Set: AUG-CC-PVTZ
    Blend: AUG-CC-PVTZ
  Basis Set: (AUG-CC-PVTZ AUX)
    Blend: AUG-CC-PVTZ-JKFIT
  @DF-RHF Final Energy:   -76.05853792715347
    Total Energy =                        -76.0585379271534805
  Basis Set: (AUG-CC-PVTZ AUX)
	 Singles Energy            =      -0.0000000000000000 [Eh]
	 Same-Spin Energy          =      -0.0686754110940702 [Eh]
	 Opposite-Spin Energy      =      -0.2162480772214208 [Eh]
	 Correlation Energy        =      -0.2849234883154910 [Eh]
	 Total Energy              =     -76.3434614154689513 [Eh]
	 SCS Total Energy          =     -76.3409274235172006 [Eh]
                               Psi4 1.9 release
    Molecular point group: c1

    Geometry (in Bohr), charge = -1, multiplicity = 1:

       Center              X                  Y                   Z               Mass
    ------------   -----------------  -----------------  -----------------  -----------------
         O            0.000000000000     0.000000000000     0.000000000000    15.994914619570
         H           -1.580852279978     0.775318724479     0.423587780200     1.007825032230
         H            1.066446151915     1.497698661279    -0.285753046335     1.007825032230
         BR           6.069925036895     0.000000000000     0.000000000000    78.918337600000

  Charge       = -1
  Multiplicity = 1
  Basis Set: AUG-CC-PVTZ
    Blend: AUG-CC-PVTZ
  Basis Set: (AUG-CC-PVTZ AUX)
    Blend: AUG-CC-PVTZ-JKFIT

    Orbital Energies [Eh]
    ---------------------

    Doubly Occupied:

       1A   -489.720093     2A    -64.860274     3A    -58.214779
       4A    -58.214752     5A    -58.214696     6A    -20.413433
       7A     -9.532710     8A     -7.140263     9A     -7.140098
      10A     -7.139873    11A     -2.882024    12A     -2.882002
      13A     -2.881688    14A     -2.881486    15A     -2.881424
      16A     -1.192009    17A     -0.688334    18A     -0.544948
      19A     -0.431266    20A     -0.353016    21A     -0.142681
      22A     -0.140295    23A     -0.138773

  @DF-RHF Final Energy: -2648.58844743196687

   => Energetics <=

    Nuclear Repulsion Energy =             66.4347865762114367
    One-Electron Energy =               -3832.7846348524967652
    Two-Electron Energy =                1117.7614008443188141
    Total Energy =                      -2648.5884474319664150
 Dipole X            :       -218.0122490          211.9329702           -6.0792789
 Dipole Y            :         -1.6387816            2.2730174            0.6342357
 Dipole Z            :         -0.0687626            0.1378347            0.0690722
 Magnitude           :                                                    6.1126637
  Basis Set: (AUG-CC-PVTZ AUX)
    Blend: AUG-CC-PVTZ-RI
	 Reference Energy          =   -2648.5884474319668698 [Eh]
	 Singles Energy            =      -0.0000000000000000 [Eh]
	 Same-Spin Energy          =      -0.1581501757566877 [Eh]
	 Opposite-Spin Energy      =      -0.4212034932798352 [Eh]
	 Correlation Energy        =      -0.5793536690365229 [Eh]
	 Total Energy              =   -2649.1678011010035334 [Eh]

	 ================> DF-SCS-MP2 Energies <==================
	-----------------------------------------------------------
	 SCS Same-Spin Scale       =       0.3333333333333333 [-]
	 SCS Opposite-Spin Scale   =       1.2000000000000000 [-]
	 SCS Same-Spin Energy      =      -0.0527167252522292 [Eh]
	 SCS Opposite-Spin Energy  =      -0.5054441919358023 [Eh]
	 SCS Correlation Energy    =      -0.5581609171880315 [Eh]
	 SCS Total Energy          =   -2649.1466083491550307 [Eh]
	-----------------------------------------------------------

*** Psi4 exiting successfully. Buy a developer a beer!
