                               Psi4 1.9 release

  ==> Input File <==

--------------------------------------------------------------------------
MEMORY 60 GB

molecule dimer {
0 1
O      0.000000     0.000000     0.000000
H     -0.661291     0.586632     0.381797
H     -0.318676    -0.889835     0.183988
--
1 1
Li     1.828878     0.000000     0.000000

units ang
no_reorient
no_com
symmetry c1
}

set {
basis        aug-cc-pVTZ
scf_type     df
}

energy("mp2", bsse_type="cp")
--------------------------------------------------------------------------

                               Psi4 1.9 release
    Molecular point group: c1
  Charge       = 1
  Multiplicity = 1
  Basis Set: AUG-CC-PVTZ
    Blend: AUG-CC-PVTZ
  Basis Set: (AUG-CC-PVTZ AUX)
    Blend: AUG-CC-PVTZ-JKFIT + DEF2-UNIVERSAL-JKFIT
  @DF-RHF Final Energy:    -7.23638356366423
    Total Energy =                         -7.2363835636642317
 Dipole X            :         -6.9121738           10.3682356            3.4560618
 Dipole Y            :         -0.0000014            0.0000000           -0.0000014
 Dipole Z            :          0.0000154            0.0000000            0.0000154
 Magnitude           :                                                    3.4560618
  Basis Set: (AUG-CC-PVTZ AUX)
    Blend: AUG-CC-PVTZ-RI + DEF2-QZVPP-RI
	 Reference Energy          =      -7.2363835636642317 [Eh]
	 Singles Energy            =      -0.0000000000000000 [Eh]
	 Same-Spin Energy          =      -0.0000000000000000 [Eh]
	 Opposite-Spin Energy      =      -0.0133011983198831 [Eh]
	 Correlation Energy        =      -0.0133011983198831 [Eh]
	 Total Energy              =      -7.2496847619841152 [Eh]
	 SCS Total Energy          =      -7.2523450016480915 [Eh]
                               Psi4 1.9 release
    Molecular point group: c1
  Multiplicity = 1
  Basis Set: AUG-CC-PVTZ
    Blend: AUG-CC-PVTZ
  Basis Set: (AUG-CC-PVTZ AUX)
    Blend: AUG-CC-PVTZ-JKFIT + DEF2-UNIVERSAL-JKFIT
  @DF-RHF Final Energy:   -76.06026535501098
    Total Energy =                        -76.0602653550109835
  Basis Set: (AUG-CC-PVTZ AUX)
	 Singles Energy            =      -0.0000000000000000 [Eh]
	 Same-Spin Energy          =      -0.0684767245991774 [Eh]
	 Opposite-Spin Energy      =      -0.2158628925753680 [Eh]
	 Correlation Energy        =      -0.2843396171745454 [Eh]
	 Total Energy              =     -76.3446049721855360 [Eh]
	 SCS Total Energy          =     -76.3421264009678140 [Eh]
                               Psi4 1.9 release
    Molecular point group: c1

    Geometry (in Bohr), charge = 1, multiplicity = 1:

       Center              X                  Y                   Z               Mass
    ------------   -----------------  -----------------  -----------------  -----------------
         O            0.000000000000     0.000000000000     0.000000000000    15.994914619570
         H           -1.249658879230     1.108573816430     0.721491765521     1.007825032230
         H           -0.602210362756    -1.681544446847     0.347686930371     1.007825032230
         LI           3.456078536875     0.000000000000     0.000000000000     7.016003436600

  Charge       = 1
  Multiplicity = 1
  Basis Set: AUG-CC-PVTZ
    Blend: AUG-CC-PVTZ
  Basis Set: (AUG-CC-PVTZ AUX)
    Blend: AUG-CC-PVTZ-JKFIT + DEF2-UNIVERSAL-JKFIT

    Orbital Energies [Eh]
    ---------------------

    Doubly Occupied:

       1A    -20.815932     2A     -2.704711     3A     -1.605368
       4A     -0.966939     5A     -0.863711     6A     -0.769050

  @DF-RHF Final Energy:   -83.34966168931517

   => Energetics <=

    Nuclear Repulsion Energy =             17.3779028593129006
    One-Electron Energy =                -146.0037072039648081
    Two-Electron Energy =                  45.2761426553367272
    Total Energy =                        -83.3496616893151696
 Dipole X            :         -6.1648541            8.5163664            2.3515123
 Dipole Y            :          0.3617141           -0.5729706           -0.2112565
 Dipole Z            :         -0.6563818            1.0691787            0.4127969
 Magnitude           :                                                    2.3967980
  Basis Set: (AUG-CC-PVTZ AUX)
    Blend: AUG-CC-PVTZ-RI + DEF2-QZVPP-RI
	 Reference Energy          =     -83.3496616893151696 [Eh]
	 Singles Energy            =      -0.0000000000000000 [Eh]
	 Same-Spin Energy          =      -0.0678847357763804 [Eh]
	 Opposite-Spin Energy      =      -0.2266888829090079 [Eh]
	 Correlation Energy        =      -0.2945736186853883 [Eh]
	 Total Energy              =     -83.6442353080005603 [Eh]

	 ================> DF-SCS-MP2 Energies <==================
	-----------------------------------------------------------
	 SCS Same-Spin Scale       =       0.3333333333333333 [-]
	 SCS Opposite-Spin Scale   =       1.2000000000000000 [-]
	 SCS Same-Spin Energy      =      -0.0226282452587935 [Eh]
	 SCS Opposite-Spin Energy  =      -0.2720266594908095 [Eh]
	 SCS Correlation Energy    =      -0.2946549047496029 [Eh]
	 SCS Total Energy          =     -83.6443165940647759 [Eh]
	-----------------------------------------------------------

*** Psi4 exiting successfully. Buy a developer a beer!
