                               Psi4 1.9 release

  ==> Input File <==

--------------------------------------------------------------------------
MEMORY 60 GB

molecule dimer {
0 1
O      0.000000     0.000000     0.000000
H      0.319573     0.889406    -0.184505
H     -0.826841     0.125130     0.477377
--
1 1
Li     1.828878     0.000000     0.000000

units ang
no_reorient
no_com
symmetry c1
}

set {
basis        aug-cc-pVTZ
scf_type     df
}

energy("mp2", bsse_type="cp")
--------------------------------------------------------------------------

                               Psi4 1.9 release
    Molecular point group: c1
  Charge       = 1
  Multiplicity = 1
  Basis Set: AUG-CC-PVTZ
    Blend: AUG-CC-PVTZ
  Basis Set: (AUG-CC-PVTZ AUX)
    Blend: AUG-CC-PVTZ-JKFIT + DEF2-UNIVERSAL-JKFIT
  @DF-RHF Final Energy:    -7.23638360498884
    Total Energy =                         -7.2363836049888421
 Dipole X            :         -6.9121762           10.3682356            3.4560594
 Dipole Y            :         -0.0000070            0.0000000           -0.0000070
 Dipole Z            :          0.0000133            0.0000000            0.0000133
 Magnitude           :                                                    3.4560594
  Basis Set: (AUG-CC-PVTZ AUX)
    Blend: AUG-CC-PVTZ-RI + DEF2-QZVPP-RI
	 Reference Energy          =      -7.2363836049888413 [Eh]
	 Singles Energy            =      -0.0000000000000000 [Eh]
	 Same-Spin Energy          =       0.0000000000000000 [Eh]
	 Opposite-Spin Energy      =      -0.0136268430862197 [Eh]
	 Correlation Energy        =      -0.0136268430862197 [Eh]
	 Total Energy              =      -7.2500104480750611 [Eh]
	 SCS Total Energy          =      -7.2527358166923053 [Eh]
                               Psi4 1.9 release
    Molecular point group: c1
  Multiplicity = 1
  Basis Set: AUG-CC-PVTZ
    Blend: AUG-CC-PVTZ
  Basis Set: (AUG-CC-PVTZ AUX)
    Blend: AUG-CC-PVTZ-JKFIT + DEF2-UNIVERSAL-JKFIT
  @DF-RHF Final Energy:   -76.06026447634730
    Total Energy =                        -76.0602644763472995
  Basis Set: (AUG-CC-PVTZ AUX)
	 Singles Energy            =      -0.0000000000000000 [Eh]
	 Same-Spin Energy          =      -0.0684764951869651 [Eh]
	 Opposite-Spin Energy      =      -0.2158947204404281 [Eh]
	 Correlation Energy        =      -0.2843712156273932 [Eh]
	 Total Energy              =     -76.3446356919746876 [Eh]
	 SCS Total Energy          =     -76.3421636392714618 [Eh]
                               Psi4 1.9 release
    Molecular point group: c1

    Geometry (in Bohr), charge = 1, multiplicity = 1:

       Center              X                  Y                   Z               Mass
    ------------   -----------------  -----------------  -----------------  -----------------
         O            0.000000000000     0.000000000000     0.000000000000    15.994914619570
         H            0.603905447091     1.680733754339    -0.348663918778     1.007825032230
         H           -1.562503039300     0.236461430079     0.902111788593     1.007825032230
         LI           3.456078536875     0.000000000000     0.000000000000     7.016003436600

  Charge       = 1
  Multiplicity = 1
  Basis Set: AUG-CC-PVTZ
    Blend: AUG-CC-PVTZ
  Basis Set: (AUG-CC-PVTZ AUX)
    Blend: AUG-CC-PVTZ-JKFIT + DEF2-UNIVERSAL-JKFIT

    Orbital Energies [Eh]
    ---------------------

    Doubly Occupied:

       1A    -20.826878     2A     -2.731405     3A     -1.617452
       4A     -0.986337     5A     -0.856333     6A     -0.777376

  @DF-RHF Final Energy:   -83.32373473186831

   => Energetics <=

    Nuclear Repulsion Energy =             17.5722959028376096
    One-Electron Energy =                -146.2004983742274078
    Two-Electron Energy =                  45.3044677395214705
    Total Energy =                        -83.3237347318683135
 Dipole X            :         -6.7652940            9.4096380            2.6443441
 Dipole Y            :         -1.2208351            1.9171952            0.6963601
 Dipole Z            :         -0.3232913            0.5534479            0.2301565
 Magnitude           :                                                    2.7441656
  Basis Set: (AUG-CC-PVTZ AUX)
    Blend: AUG-CC-PVTZ-RI + DEF2-QZVPP-RI
	 Reference Energy          =     -83.3237347318683135 [Eh]
	 Singles Energy            =      -0.0000000000000000 [Eh]
	 Same-Spin Energy          =      -0.0681769581749678 [Eh]
	 Opposite-Spin Energy      =      -0.2279270612427006 [Eh]
	 Correlation Energy        =      -0.2961040194176684 [Eh]
	 Total Energy              =     -83.6198387512859824 [Eh]

	 ================> DF-SCS-MP2 Energies <==================
	-----------------------------------------------------------
	 SCS Same-Spin Scale       =       0.3333333333333333 [-]
	 SCS Opposite-Spin Scale   =       1.2000000000000000 [-]
	 SCS Same-Spin Energy      =      -0.0227256527249893 [Eh]
	 SCS Opposite-Spin Energy  =      -0.2735124734912407 [Eh]
	 SCS Correlation Energy    =      -0.2962381262162300 [Eh]
	 SCS Total Energy          =     -83.6199728580845374 [Eh]
	-----------------------------------------------------------

*** Psi4 exiting successfully. Buy a developer a beer!
