                               Psi4 1.9 release

  ==> Input File <==

--------------------------------------------------------------------------
MEMORY 60 GB

molecule dimer {
0 1
O      0.000000     0.000000     0.000000
H      0.109329     0.954608    -0.063121
H     -0.826714    -0.126242     0.477304
--
1 1
Li     1.828878     0.000000     0.000000

units ang
no_reorient
no_com
symmetry c1
}

set {
basis        aug-cc-pVTZ
scf_type     df
}

energy("mp2", bsse_type="cp")
--------------------------------------------------------------------------

                               Psi4 1.9 release
    Molecular point group: c1
  Charge       = 1
  Multiplicity = 1
  Basis Set: AUG-CC-PVTZ
    Blend: AUG-CC-PVTZ
  Basis Set: (AUG-CC-PVTZ AUX)
    Blend: AUG-CC-PVTZ-JKFIT + DEF2-UNIVERSAL-JKFIT
  @DF-RHF Final Energy:    -7.23638356990619
    Total Energy =                         -7.2363835699061934
 Dipole X            :         -6.9121807           10.3682356            3.4560549
 Dipole Y            :          0.0000054            0.0000000            0.0000054
 Dipole Z            :          0.0000135            0.0000000            0.0000135
 Magnitude           :                                                    3.4560549
  Basis Set: (AUG-CC-PVTZ AUX)
    Blend: AUG-CC-PVTZ-RI + DEF2-QZVPP-RI
	 Reference Energy          =      -7.2363835699061934 [Eh]
	 Singles Energy            =      -0.0000000000000000 [Eh]
	 Same-Spin Energy          =      -0.0000000000000000 [Eh]
	 Opposite-Spin Energy      =      -0.0134752954177211 [Eh]
	 Correlation Energy        =      -0.0134752954177211 [Eh]
	 Total Energy              =      -7.2498588653239144 [Eh]
	 SCS Total Energy          =      -7.2525539244074588 [Eh]
                               Psi4 1.9 release
    Molecular point group: c1
  Multiplicity = 1
  Basis Set: AUG-CC-PVTZ
    Blend: AUG-CC-PVTZ
  Basis Set: (AUG-CC-PVTZ AUX)
    Blend: AUG-CC-PVTZ-JKFIT + DEF2-UNIVERSAL-JKFIT
  @DF-RHF Final Energy:   -76.06026432099581
    Total Energy =                        -76.0602643209958131
  Basis Set: (AUG-CC-PVTZ AUX)
	 Singles Energy            =      -0.0000000000000000 [Eh]
	 Same-Spin Energy          =      -0.0684765027812017 [Eh]
	 Opposite-Spin Energy      =      -0.2158748770242899 [Eh]
	 Correlation Energy        =      -0.2843513798054915 [Eh]
	 Total Energy              =     -76.3446157008012989 [Eh]
	 SCS Total Energy          =     -76.3421396743520262 [Eh]
                               Psi4 1.9 release
    Molecular point group: c1

    Geometry (in Bohr), charge = 1, multiplicity = 1:

       Center              X                  Y                   Z               Mass
    ------------   -----------------  -----------------  -----------------  -----------------
         O            0.000000000000     0.000000000000     0.000000000000    15.994914619570
         H            0.206601867570     1.803947677171    -0.119281402765     1.007825032230
         H           -1.562263044082    -0.238562805530     0.901973838586     1.007825032230
         LI           3.456078536875     0.000000000000     0.000000000000     7.016003436600

  Charge       = 1
  Multiplicity = 1
  Basis Set: AUG-CC-PVTZ
    Blend: AUG-CC-PVTZ
  Basis Set: (AUG-CC-PVTZ AUX)
    Blend: AUG-CC-PVTZ-JKFIT + DEF2-UNIVERSAL-JKFIT

    Orbital Energies [Eh]
    ---------------------

    Doubly Occupied:

       1A    -20.821342     2A     -2.719406     3A     -1.611710
       4A     -0.977956     5A     -0.858334     6A     -0.773263

  @DF-RHF Final Energy:   -83.33612019920187

   => Energetics <=

    Nuclear Repulsion Energy =             17.4778703616629123
    One-Electron Energy =                -146.1039595885672213
    Two-Electron Energy =                  45.2899690277024263
    Total Energy =                        -83.3361201992018721
 Dipole X            :         -6.4958233            9.0125744            2.5167511
 Dipole Y            :         -0.9924920            1.5653849            0.5728929
 Dipole Z            :         -0.4728693            0.7826924            0.3098232
 Magnitude           :                                                    2.5996601
  Basis Set: (AUG-CC-PVTZ AUX)
    Blend: AUG-CC-PVTZ-RI + DEF2-QZVPP-RI
	 Reference Energy          =     -83.3361201992018721 [Eh]
	 Singles Energy            =      -0.0000000000000000 [Eh]
	 Same-Spin Energy          =      -0.0680746181315117 [Eh]
	 Opposite-Spin Energy      =      -0.2273487542647609 [Eh]
	 Correlation Energy        =      -0.2954233723962726 [Eh]
	 Total Energy              =     -83.6315435715981437 [Eh]

	 ================> DF-SCS-MP2 Energies <==================
	-----------------------------------------------------------
	 SCS Same-Spin Scale       =       0.3333333333333333 [-]
	 SCS Opposite-Spin Scale   =       1.2000000000000000 [-]
	 SCS Same-Spin Energy      =      -0.0226915393771706 [Eh]
	 SCS Opposite-Spin Energy  =      -0.2728185051177131 [Eh]
	 SCS Correlation Energy    =      -0.2955100444948837 [Eh]
	 SCS Total Energy          =     -83.6316302436967618 [Eh]
	-----------------------------------------------------------

*** Psi4 exiting successfully. Buy a developer a beer!
