                               Psi4 1.9 release

  ==> Input File <==

--------------------------------------------------------------------------
MEMORY 60 GB

molecule dimer {
0 1
O      0.000000     0.000000     0.000000
H     -0.507268     0.764276     0.292871
H     -0.507268    -0.764276     0.292871
--
1 1
Li     1.828878     0.000000     0.000000

units ang
no_reorient
no_com
symmetry c1
}

set {
basis        aug-cc-pVTZ
scf_type     df
}

energy("mp2", bsse_type="cp")
--------------------------------------------------------------------------

                               Psi4 1.9 release
    Molecular point group: c1
  Charge       = 1
  Multiplicity = 1
  Basis Set: AUG-CC-PVTZ
    Blend: AUG-CC-PVTZ
  Basis Set: (AUG-CC-PVTZ AUX)
    Blend: AUG-CC-PVTZ-JKFIT + DEF2-UNIVERSAL-JKFIT
  @DF-RHF Final Energy:    -7.23638355239689
    Total Energy =                         -7.2363835523968856
 Dipole X            :         -6.9121720           10.3682356            3.4560637
 Dipole Y            :         -0.0000000            0.0000000           -0.0000000
 Dipole Z            :          0.0000142            0.0000000            0.0000142
 Magnitude           :                                                    3.4560637
  Basis Set: (AUG-CC-PVTZ AUX)
    Blend: AUG-CC-PVTZ-RI + DEF2-QZVPP-RI
	 Reference Energy          =      -7.2363835523968856 [Eh]
	 Singles Energy            =      -0.0000000000000000 [Eh]
	 Same-Spin Energy          =      -0.0000000000000000 [Eh]
	 Opposite-Spin Energy      =      -0.0132804717948866 [Eh]
	 Correlation Energy        =      -0.0132804717948866 [Eh]
	 Total Energy              =      -7.2496640241917722 [Eh]
	 SCS Total Energy          =      -7.2523201185507498 [Eh]
                               Psi4 1.9 release
    Molecular point group: c1
  Multiplicity = 1
  Basis Set: AUG-CC-PVTZ
    Blend: AUG-CC-PVTZ
  Basis Set: (AUG-CC-PVTZ AUX)
    Blend: AUG-CC-PVTZ-JKFIT + DEF2-UNIVERSAL-JKFIT
  @DF-RHF Final Energy:   -76.06026557411647
    Total Energy =                        -76.0602655741164853
  Basis Set: (AUG-CC-PVTZ AUX)
	 Singles Energy            =      -0.0000000000000000 [Eh]
	 Same-Spin Energy          =      -0.0684765132547928 [Eh]
	 Opposite-Spin Energy      =      -0.2158619115834021 [Eh]
	 Correlation Energy        =      -0.2843384248381948 [Eh]
	 Total Energy              =     -76.3446039989546676 [Eh]
	 SCS Total Energy          =     -76.3421253724348219 [Eh]
                               Psi4 1.9 release
    Molecular point group: c1

    Geometry (in Bohr), charge = 1, multiplicity = 1:

       Center              X                  Y                   Z               Mass
    ------------   -----------------  -----------------  -----------------  -----------------
         O            0.000000000000     0.000000000000     0.000000000000    15.994914619570
         H           -0.958597592209     1.444272324260     0.553445980089     1.007825032230
         H           -0.958597592209    -1.444272324260     0.553445980089     1.007825032230
         LI           3.456078536875     0.000000000000     0.000000000000     7.016003436600

  Charge       = 1
  Multiplicity = 1
  Basis Set: AUG-CC-PVTZ
    Blend: AUG-CC-PVTZ
  Basis Set: (AUG-CC-PVTZ AUX)
    Blend: AUG-CC-PVTZ-JKFIT + DEF2-UNIVERSAL-JKFIT

    Orbital Energies [Eh]
    ---------------------

    Doubly Occupied:

       1A    -20.815354     2A     -2.702797     3A     -1.604614
       4A     -0.965421     5A     -0.864692     6A     -0.768581

  @DF-RHF Final Energy:   -83.35134612528660

   => Energetics <=

    Nuclear Repulsion Energy =             17.3660313147387164
    One-Electron Energy =                -145.9918358327792305
    Two-Electron Energy =                  45.2744583927539281
    Total Energy =                        -83.3513461252865966
 Dipole X            :         -6.1216955            8.4510404            2.3293449
 Dipole Y            :          0.0000000            0.0000000            0.0000000
 Dipole Z            :         -0.6803882            1.1068920            0.4265038
 Magnitude           :                                                    2.3680695
  Basis Set: (AUG-CC-PVTZ AUX)
    Blend: AUG-CC-PVTZ-RI + DEF2-QZVPP-RI
	 Reference Energy          =     -83.3513461252865966 [Eh]
	 Singles Energy            =      -0.0000000000000000 [Eh]
	 Same-Spin Energy          =      -0.0678537687002861 [Eh]
	 Opposite-Spin Energy      =      -0.2266060342216296 [Eh]
	 Correlation Energy        =      -0.2944598029219156 [Eh]
	 Total Energy              =     -83.6458059282085173 [Eh]

	 ================> DF-SCS-MP2 Energies <==================
	-----------------------------------------------------------
	 SCS Same-Spin Scale       =       0.3333333333333333 [-]
	 SCS Opposite-Spin Scale   =       1.2000000000000000 [-]
	 SCS Same-Spin Energy      =      -0.0226179229000954 [Eh]
	 SCS Opposite-Spin Energy  =      -0.2719272410659555 [Eh]
	 SCS Correlation Energy    =      -0.2945451639660508 [Eh]
	 SCS Total Energy          =     -83.6458912892526456 [Eh]
	-----------------------------------------------------------

*** Psi4 exiting successfully. Buy a developer a beer!
