                               Psi4 1.9 release

  ==> Input File <==

--------------------------------------------------------------------------
MEMORY 60 GB

molecule dimer {
0 1
O      0.000000     0.000000     0.000000
H     -0.770248     0.369011     0.444703
H     -0.108366    -0.954754     0.062565
--
1 1
Li     1.828878     0.000000     0.000000

units ang
no_reorient
no_com
symmetry c1
}

set {
basis        aug-cc-pVTZ
scf_type     df
}

energy("mp2", bsse_type="cp")
--------------------------------------------------------------------------

                               Psi4 1.9 release
    Molecular point group: c1
  Charge       = 1
  Multiplicity = 1
  Basis Set: AUG-CC-PVTZ
    Blend: AUG-CC-PVTZ
  Basis Set: (AUG-CC-PVTZ AUX)
    Blend: AUG-CC-PVTZ-JKFIT + DEF2-UNIVERSAL-JKFIT
  @DF-RHF Final Energy:    -7.23638358393630
    Total Energy =                         -7.2363835839363029
 Dipole X            :         -6.9121780           10.3682356            3.4560576
 Dipole Y            :         -0.0000053            0.0000000           -0.0000053
 Dipole Z            :          0.0000159            0.0000000            0.0000159
 Magnitude           :                                                    3.4560576
  Basis Set: (AUG-CC-PVTZ AUX)
    Blend: AUG-CC-PVTZ-RI + DEF2-QZVPP-RI
	 Reference Energy          =      -7.2363835839363029 [Eh]
	 Singles Energy            =      -0.0000000000000000 [Eh]
	 Same-Spin Energy          =      -0.0000000000000000 [Eh]
	 Opposite-Spin Energy      =      -0.0133654287626591 [Eh]
	 Correlation Energy        =      -0.0133654287626591 [Eh]
	 Total Energy              =      -7.2497490126989623 [Eh]
	 SCS Total Energy          =      -7.2524220984514942 [Eh]
                               Psi4 1.9 release
    Molecular point group: c1
  Multiplicity = 1
  Basis Set: AUG-CC-PVTZ
    Blend: AUG-CC-PVTZ
  Basis Set: (AUG-CC-PVTZ AUX)
    Blend: AUG-CC-PVTZ-JKFIT + DEF2-UNIVERSAL-JKFIT
  @DF-RHF Final Energy:   -76.06026485328510
    Total Energy =                        -76.0602648532851049
  Basis Set: (AUG-CC-PVTZ AUX)
	 Singles Energy            =      -0.0000000000000000 [Eh]
	 Same-Spin Energy          =      -0.0684768729352814 [Eh]
	 Opposite-Spin Energy      =      -0.2158674948270874 [Eh]
	 Correlation Energy        =      -0.2843443677623688 [Eh]
	 Total Energy              =     -76.3446092210474774 [Eh]
	 SCS Total Energy          =     -76.3421314713893651 [Eh]
                               Psi4 1.9 release
    Molecular point group: c1

    Geometry (in Bohr), charge = 1, multiplicity = 1:

       Center              X                  Y                   Z               Mass
    ------------   -----------------  -----------------  -----------------  -----------------
         O            0.000000000000     0.000000000000     0.000000000000    15.994914619570
         H           -1.455557768682     0.697329727281     0.840366877169     1.007825032230
         H           -0.204782061311    -1.804223577185     0.118230715039     1.007825032230
         LI           3.456078536875     0.000000000000     0.000000000000     7.016003436600

  Charge       = 1
  Multiplicity = 1
  Basis Set: AUG-CC-PVTZ
    Blend: AUG-CC-PVTZ
  Basis Set: (AUG-CC-PVTZ AUX)
    Blend: AUG-CC-PVTZ-JKFIT + DEF2-UNIVERSAL-JKFIT

    Orbital Energies [Eh]
    ---------------------

    Doubly Occupied:

       1A    -20.817807     2A     -2.710355     3A     -1.607691
       4A     -0.971284     5A     -0.861218     6A     -0.770542

  @DF-RHF Final Energy:   -83.34461115399077

   => Energetics <=

    Nuclear Repulsion Energy =             17.4143543391015854
    One-Electron Energy =                -146.0401351139163637
    Two-Electron Energy =                  45.2811696208240164
    Total Energy =                        -83.3446111539907690
 Dipole X            :         -6.2918957            8.7078958            2.4160001
 Dipole Y            :          0.6997419           -1.1068938           -0.4071520
 Dipole Z            :         -0.5858551            0.9585976            0.3727425
 Magnitude           :                                                    2.4782587
  Basis Set: (AUG-CC-PVTZ AUX)
    Blend: AUG-CC-PVTZ-RI + DEF2-QZVPP-RI
	 Reference Energy          =     -83.3446111539907690 [Eh]
	 Singles Energy            =      -0.0000000000000000 [Eh]
	 Same-Spin Energy          =      -0.0679673502172571 [Eh]
	 Opposite-Spin Energy      =      -0.2269383945994428 [Eh]
	 Correlation Energy        =      -0.2949057448166999 [Eh]
	 Total Energy              =     -83.6395168988074715 [Eh]

	 ================> DF-SCS-MP2 Energies <==================
	-----------------------------------------------------------
	 SCS Same-Spin Scale       =       0.3333333333333333 [-]
	 SCS Opposite-Spin Scale   =       1.2000000000000000 [-]
	 SCS Same-Spin Energy      =      -0.0226557834057524 [Eh]
	 SCS Opposite-Spin Energy  =      -0.2723260735193314 [Eh]
	 SCS Correlation Energy    =      -0.2949818569250837 [Eh]
	 SCS Total Energy          =     -83.6395930109158598 [Eh]
	-----------------------------------------------------------

*** Psi4 exiting successfully. Buy a developer a beer!
