                               Psi4 1.9 release

  ==> Input File <==

--------------------------------------------------------------------------
MEMORY 60 GB

molecule dimer {
0 1
O      0.000000     0.000000     0.000000
H     -0.770386     0.364626     0.444783
H     -0.111723    -0.952699     0.064504
--
1 1
Na     2.158940     0.000000     0.000000

units ang
no_reorient
no_com
symmetry c1
}

set {
basis        aug-cc-pVTZ
scf_type     df
}

energy("mp2", bsse_type="cp")
--------------------------------------------------------------------------

                               Psi4 1.9 release
    Molecular point group: c1
  Charge       = 1
  Multiplicity = 1
  Basis Set: AUG-CC-PVTZ
    Blend: AUG-CC-PVTZ
  Basis Set: (AUG-CC-PVTZ AUX)
    Blend: AUG-CC-PVTZ-JKFIT + DEF2-UNIVERSAL-JKFIT
  @DF-RHF Final Energy:  -161.67604455142026
    Total Energy =                       -161.6760445514202615
 Dipole X            :        -40.7986507           44.8778585            4.0792079
 Dipole Y            :         -0.0000439            0.0000000           -0.0000439
 Dipole Z            :          0.0000439            0.0000000            0.0000439
 Magnitude           :                                                    4.0792079
  Basis Set: (AUG-CC-PVTZ AUX)
    Blend: AUG-CC-PVTZ-RI + DEF2-QZVPP-RI
	 Reference Energy          =    -161.6760445514202615 [Eh]
	 Singles Energy            =      -0.0000000000000000 [Eh]
	 Same-Spin Energy          =      -0.0029490156087800 [Eh]
	 Opposite-Spin Energy      =      -0.0106650429599083 [Eh]
	 Correlation Energy        =      -0.0136140585686883 [Eh]
	 Total Energy              =    -161.6896586099889532 [Eh]
	 SCS Total Energy          =    -161.6898256081750844 [Eh]
                               Psi4 1.9 release
    Molecular point group: c1
  Multiplicity = 1
  Basis Set: AUG-CC-PVTZ
    Blend: AUG-CC-PVTZ
  Basis Set: (AUG-CC-PVTZ AUX)
    Blend: AUG-CC-PVTZ-JKFIT + DEF2-UNIVERSAL-JKFIT
  @DF-RHF Final Energy:   -76.06037646237678
    Total Energy =                        -76.0603764623767802
  Basis Set: (AUG-CC-PVTZ AUX)
	 Singles Energy            =      -0.0000000000000000 [Eh]
	 Same-Spin Energy          =      -0.0684538959024562 [Eh]
	 Opposite-Spin Energy      =      -0.2157947708843909 [Eh]
	 Correlation Energy        =      -0.2842486667868471 [Eh]
	 Total Energy              =     -76.3446251291636315 [Eh]
	 SCS Total Energy          =     -76.3421481527388721 [Eh]
                               Psi4 1.9 release
    Molecular point group: c1

    Geometry (in Bohr), charge = 1, multiplicity = 1:

       Center              X                  Y                   Z               Mass
    ------------   -----------------  -----------------  -----------------  -----------------
         O            0.000000000000     0.000000000000     0.000000000000    15.994914619570
         H           -1.455818550887     0.689043278221     0.840518055260     1.007825032230
         H           -0.211125871915    -1.800340189998     0.121894893997     1.007825032230
         NA           4.079805321296     0.000000000000     0.000000000000    22.989769282000

  Charge       = 1
  Multiplicity = 1
  Basis Set: AUG-CC-PVTZ
    Blend: AUG-CC-PVTZ
  Basis Set: (AUG-CC-PVTZ AUX)
    Blend: AUG-CC-PVTZ-JKFIT + DEF2-UNIVERSAL-JKFIT

    Orbital Energies [Eh]
    ---------------------

    Doubly Occupied:

       1A    -40.702157     2A    -20.782833     3A     -3.020050
       4A     -1.744799     5A     -1.743399     6A     -1.743305
       7A     -1.571432     8A     -0.935645     9A     -0.819493
      10A     -0.734214

  @DF-RHF Final Energy:  -237.76731096762649

   => Energetics <=

    Nuclear Repulsion Energy =             35.0373746084510884
    One-Electron Energy =                -398.0147141417880334
    Two-Electron Energy =                 125.2100285657104592
    Total Energy =                       -237.7673109676264858
 Dipole X            :        -40.0612232           43.2109141            3.1496909
 Dipole Y            :          0.7111824           -1.1112969           -0.4001145
 Dipole Z            :         -0.5993329            0.9624129            0.3630800
 Magnitude           :                                                    3.1956957
  Basis Set: (AUG-CC-PVTZ AUX)
    Blend: AUG-CC-PVTZ-RI + DEF2-QZVPP-RI
	 Reference Energy          =    -237.7673109676264858 [Eh]
	 Singles Energy            =      -0.0000000000000000 [Eh]
	 Same-Spin Energy          =      -0.0710060654615544 [Eh]
	 Opposite-Spin Energy      =      -0.2246272973631119 [Eh]
	 Correlation Energy        =      -0.2956333628246662 [Eh]
	 Total Energy              =    -238.0629443304511597 [Eh]

	 ================> DF-SCS-MP2 Energies <==================
	-----------------------------------------------------------
	 SCS Same-Spin Scale       =       0.3333333333333333 [-]
	 SCS Opposite-Spin Scale   =       1.2000000000000000 [-]
	 SCS Same-Spin Energy      =      -0.0236686884871848 [Eh]
	 SCS Opposite-Spin Energy  =      -0.2695527568357343 [Eh]
	 SCS Correlation Energy    =      -0.2932214453229190 [Eh]
	 SCS Total Energy          =    -238.0605324129494136 [Eh]
	-----------------------------------------------------------

*** Psi4 exiting successfully. Buy a developer a beer!
