                               Psi4 1.9 release

  ==> Input File <==

--------------------------------------------------------------------------
MEMORY 60 GB

molecule dimer {
0 1
O      0.000000     0.000000     0.000000
H     -0.825062    -0.129007     0.476350
H      0.315775    -0.889565    -0.182313
--
1 1
Na     2.158940     0.000000     0.000000

units ang
no_reorient
no_com
symmetry c1
}

set {
basis        aug-cc-pVTZ
scf_type     df
}

energy("mp2", bsse_type="cp")
--------------------------------------------------------------------------

                               Psi4 1.9 release
    Molecular point group: c1
  Charge       = 1
  Multiplicity = 1
  Basis Set: AUG-CC-PVTZ
    Blend: AUG-CC-PVTZ
  Basis Set: (AUG-CC-PVTZ AUX)
    Blend: AUG-CC-PVTZ-JKFIT + DEF2-UNIVERSAL-JKFIT
  @DF-RHF Final Energy:  -161.67604629755832
    Total Energy =                       -161.6760462975583152
 Dipole X            :        -40.7986615           44.8778585            4.0791971
 Dipole Y            :         -0.0001072            0.0000000           -0.0001072
 Dipole Z            :         -0.0000015            0.0000000           -0.0000015
 Magnitude           :                                                    4.0791971
  Basis Set: (AUG-CC-PVTZ AUX)
    Blend: AUG-CC-PVTZ-RI + DEF2-QZVPP-RI
	 Reference Energy          =    -161.6760462975583152 [Eh]
	 Singles Energy            =      -0.0000000000000000 [Eh]
	 Same-Spin Energy          =      -0.0032352688706008 [Eh]
	 Opposite-Spin Energy      =      -0.0114547609951892 [Eh]
	 Correlation Energy        =      -0.0146900298657900 [Eh]
	 Total Energy              =    -161.6907363274241050 [Eh]
	 SCS Total Energy          =    -161.6908704337094207 [Eh]
                               Psi4 1.9 release
    Molecular point group: c1
  Multiplicity = 1
  Basis Set: AUG-CC-PVTZ
    Blend: AUG-CC-PVTZ
  Basis Set: (AUG-CC-PVTZ AUX)
    Blend: AUG-CC-PVTZ-JKFIT + DEF2-UNIVERSAL-JKFIT
  @DF-RHF Final Energy:   -76.06037475822205
    Total Energy =                        -76.0603747582220535
  Basis Set: (AUG-CC-PVTZ AUX)
	 Singles Energy            =      -0.0000000000000000 [Eh]
	 Same-Spin Energy          =      -0.0684536408137508 [Eh]
	 Opposite-Spin Energy      =      -0.2157893675285340 [Eh]
	 Correlation Energy        =      -0.2842430083422848 [Eh]
	 Total Energy              =     -76.3446177665643404 [Eh]
	 SCS Total Energy          =     -76.3421398795275508 [Eh]
                               Psi4 1.9 release
    Molecular point group: c1

    Geometry (in Bohr), charge = 1, multiplicity = 1:

       Center              X                  Y                   Z               Mass
    ------------   -----------------  -----------------  -----------------  -----------------
         O            0.000000000000     0.000000000000     0.000000000000    15.994914619570
         H           -1.559141216522    -0.243787898267     0.900171039862     1.007825032230
         H            0.596728267266    -1.681034220793    -0.344521639111     1.007825032230
         NA           4.079805321296     0.000000000000     0.000000000000    22.989769282000

  Charge       = 1
  Multiplicity = 1
  Basis Set: AUG-CC-PVTZ
    Blend: AUG-CC-PVTZ
  Basis Set: (AUG-CC-PVTZ AUX)
    Blend: AUG-CC-PVTZ-JKFIT + DEF2-UNIVERSAL-JKFIT

    Orbital Energies [Eh]
    ---------------------

    Doubly Occupied:

       1A    -40.718579     2A    -20.789847     3A     -3.036241
       4A     -1.762370     5A     -1.759144     6A     -1.759045
       7A     -1.578307     8A     -0.945870     9A     -0.817372
      10A     -0.739263

  @DF-RHF Final Energy:  -237.75106102579321

   => Energetics <=

    Nuclear Repulsion Energy =             35.4819334974765326
    One-Electron Energy =                -398.6539125245221271
    Two-Electron Energy =                 125.4209180012524030
    Total Energy =                       -237.7510610257932058
 Dipole X            :        -40.5282694           43.9154456            3.3871762
 Dipole Y            :          1.2400118           -1.9248221           -0.6848104
 Dipole Z            :         -0.3336914            0.5556494            0.2219580
 Magnitude           :                                                    3.4628302
  Basis Set: (AUG-CC-PVTZ AUX)
    Blend: AUG-CC-PVTZ-RI + DEF2-QZVPP-RI
	 Reference Energy          =    -237.7510610257932058 [Eh]
	 Singles Energy            =      -0.0000000000000000 [Eh]
	 Same-Spin Energy          =      -0.0714017912552009 [Eh]
	 Opposite-Spin Energy      =      -0.2259298878959355 [Eh]
	 Correlation Energy        =      -0.2973316791511365 [Eh]
	 Total Energy              =    -238.0483927049443480 [Eh]

	 ================> DF-SCS-MP2 Energies <==================
	-----------------------------------------------------------
	 SCS Same-Spin Scale       =       0.3333333333333333 [-]
	 SCS Opposite-Spin Scale   =       1.2000000000000000 [-]
	 SCS Same-Spin Energy      =      -0.0238005970850670 [Eh]
	 SCS Opposite-Spin Energy  =      -0.2711158654751226 [Eh]
	 SCS Correlation Energy    =      -0.2949164625601896 [Eh]
	 SCS Total Energy          =    -238.0459774883534010 [Eh]
	-----------------------------------------------------------

*** Psi4 exiting successfully. Buy a developer a beer!
