                               Psi4 1.9 release

  ==> Input File <==

--------------------------------------------------------------------------
MEMORY 60 GB

molecule dimer {
0 1
O      0.000000     0.000000     0.000000
H      0.105625     0.953626    -0.060983
H     -0.825864    -0.121965     0.476813
--
1 1
Na     2.158940     0.000000     0.000000

units ang
no_reorient
no_com
symmetry c1
}

set {
basis        aug-cc-pVTZ
scf_type     df
}

energy("mp2", bsse_type="cp")
--------------------------------------------------------------------------

                               Psi4 1.9 release
    Molecular point group: c1
  Charge       = 1
  Multiplicity = 1
  Basis Set: AUG-CC-PVTZ
    Blend: AUG-CC-PVTZ
  Basis Set: (AUG-CC-PVTZ AUX)
    Blend: AUG-CC-PVTZ-JKFIT + DEF2-UNIVERSAL-JKFIT
  @DF-RHF Final Energy:  -161.67604487995723
    Total Energy =                       -161.6760448799572316
 Dipole X            :        -40.7986570           44.8778585            4.0792015
 Dipole Y            :          0.0000677            0.0000000            0.0000677
 Dipole Z            :          0.0000256            0.0000000            0.0000256
 Magnitude           :                                                    4.0792015
  Basis Set: (AUG-CC-PVTZ AUX)
    Blend: AUG-CC-PVTZ-RI + DEF2-QZVPP-RI
	 Reference Energy          =    -161.6760448799572316 [Eh]
	 Singles Energy            =      -0.0000000000000000 [Eh]
	 Same-Spin Energy          =      -0.0029565043733696 [Eh]
	 Opposite-Spin Energy      =      -0.0106706201605779 [Eh]
	 Correlation Energy        =      -0.0136271245339475 [Eh]
	 Total Energy              =    -161.6896720044911717 [Eh]
	 SCS Total Energy          =    -161.6898351256077149 [Eh]
                               Psi4 1.9 release
    Molecular point group: c1
  Multiplicity = 1
  Basis Set: AUG-CC-PVTZ
    Blend: AUG-CC-PVTZ
  Basis Set: (AUG-CC-PVTZ AUX)
    Blend: AUG-CC-PVTZ-JKFIT + DEF2-UNIVERSAL-JKFIT
  @DF-RHF Final Energy:   -76.06037430712374
    Total Energy =                        -76.0603743071237233
  Basis Set: (AUG-CC-PVTZ AUX)
	 Singles Energy            =      -0.0000000000000000 [Eh]
	 Same-Spin Energy          =      -0.0684548924723072 [Eh]
	 Opposite-Spin Energy      =      -0.2157951744691702 [Eh]
	 Correlation Energy        =      -0.2842500669414774 [Eh]
	 Total Energy              =     -76.3446243740652193 [Eh]
	 SCS Total Energy          =     -76.3421468139775072 [Eh]
                               Psi4 1.9 release
    Molecular point group: c1

    Geometry (in Bohr), charge = 1, multiplicity = 1:

       Center              X                  Y                   Z               Mass
    ------------   -----------------  -----------------  -----------------  -----------------
         O            0.000000000000     0.000000000000     0.000000000000    15.994914619570
         H            0.199602322001     1.802091966116    -0.115241168309     1.007825032230
         H           -1.560656776875    -0.230480446891     0.901045983058     1.007825032230
         NA           4.079805321296     0.000000000000     0.000000000000    22.989769282000

  Charge       = 1
  Multiplicity = 1
  Basis Set: AUG-CC-PVTZ
    Blend: AUG-CC-PVTZ
  Basis Set: (AUG-CC-PVTZ AUX)
    Blend: AUG-CC-PVTZ-JKFIT + DEF2-UNIVERSAL-JKFIT

    Orbital Energies [Eh]
    ---------------------

    Doubly Occupied:

       1A    -40.709389     2A    -20.785688     3A     -3.027038
       4A     -1.752313     5A     -1.750179     6A     -1.750139
       7A     -1.574351     8A     -0.940195     9A     -0.818172
      10A     -0.736291

  @DF-RHF Final Energy:  -237.76073290930336

   => Energetics <=

    Nuclear Repulsion Energy =             35.2187973534709826
    One-Electron Energy =                -398.2715498600919659
    Two-Electron Energy =                 125.2920195973176618
    Total Energy =                       -237.7607329093033286
 Dipole X            :        -40.2630028           43.5168041            3.2538013
 Dipole Y            :         -1.0088125            1.5716115            0.5627990
 Dipole Z            :         -0.4848841            0.7858048            0.3009207
 Magnitude           :                                                    3.3157984
  Basis Set: (AUG-CC-PVTZ AUX)
    Blend: AUG-CC-PVTZ-RI + DEF2-QZVPP-RI
	 Reference Energy          =    -237.7607329093033570 [Eh]
	 Singles Energy            =      -0.0000000000000000 [Eh]
	 Same-Spin Energy          =      -0.0710671147696946 [Eh]
	 Opposite-Spin Energy      =      -0.2248477825201909 [Eh]
	 Correlation Energy        =      -0.2959148972898855 [Eh]
	 Total Energy              =    -238.0566478065932472 [Eh]

	 ================> DF-SCS-MP2 Energies <==================
	-----------------------------------------------------------
	 SCS Same-Spin Scale       =       0.3333333333333333 [-]
	 SCS Opposite-Spin Scale   =       1.2000000000000000 [-]
	 SCS Same-Spin Energy      =      -0.0236890382565649 [Eh]
	 SCS Opposite-Spin Energy  =      -0.2698173390242290 [Eh]
	 SCS Correlation Energy    =      -0.2935063772807939 [Eh]
	 SCS Total Energy          =    -238.0542392865841634 [Eh]
	-----------------------------------------------------------

*** Psi4 exiting successfully. Buy a developer a beer!
