                               Psi4 1.9 release

  ==> Input File <==

--------------------------------------------------------------------------
MEMORY 60 GB

molecule dimer {
0 1
O      0.000000     0.000000     0.000000
H     -0.321458     0.886847     0.185594
H     -0.662407    -0.582438     0.382441
--
1 1
Na     2.158940     0.000000     0.000000

units ang
no_reorient
no_com
symmetry c1
}

set {
basis        aug-cc-pVTZ
scf_type     df
}

energy("mp2", bsse_type="cp")
--------------------------------------------------------------------------

                               Psi4 1.9 release
    Molecular point group: c1
  Charge       = 1
  Multiplicity = 1
  Basis Set: AUG-CC-PVTZ
    Blend: AUG-CC-PVTZ
  Basis Set: (AUG-CC-PVTZ AUX)
    Blend: AUG-CC-PVTZ-JKFIT + DEF2-UNIVERSAL-JKFIT
  @DF-RHF Final Energy:  -161.67604421280814
    Total Energy =                       -161.6760442128081365
 Dipole X            :        -40.7986232           44.8778585            4.0792353
 Dipole Y            :          0.0000177            0.0000000            0.0000177
 Dipole Z            :          0.0000564            0.0000000            0.0000564
 Magnitude           :                                                    4.0792353
  Basis Set: (AUG-CC-PVTZ AUX)
    Blend: AUG-CC-PVTZ-RI + DEF2-QZVPP-RI
	 Reference Energy          =    -161.6760442128081365 [Eh]
	 Singles Energy            =      -0.0000000000000000 [Eh]
	 Same-Spin Energy          =      -0.0029708391349624 [Eh]
	 Opposite-Spin Energy      =      -0.0107422369953745 [Eh]
	 Correlation Energy        =      -0.0137130761303369 [Eh]
	 Total Energy              =    -161.6897572889384662 [Eh]
	 SCS Total Energy          =    -161.6899251769142438 [Eh]
                               Psi4 1.9 release
    Molecular point group: c1
  Multiplicity = 1
  Basis Set: AUG-CC-PVTZ
    Blend: AUG-CC-PVTZ
  Basis Set: (AUG-CC-PVTZ AUX)
    Blend: AUG-CC-PVTZ-JKFIT + DEF2-UNIVERSAL-JKFIT
  @DF-RHF Final Energy:   -76.06037794366659
    Total Energy =                        -76.0603779436665945
  Basis Set: (AUG-CC-PVTZ AUX)
	 Singles Energy            =      -0.0000000000000000 [Eh]
	 Same-Spin Energy          =      -0.0684520870222897 [Eh]
	 Opposite-Spin Energy      =      -0.2157888300543247 [Eh]
	 Correlation Energy        =      -0.2842409170766144 [Eh]
	 Total Energy              =     -76.3446188607432106 [Eh]
	 SCS Total Energy          =     -76.3421419020725409 [Eh]
                               Psi4 1.9 release
    Molecular point group: c1

    Geometry (in Bohr), charge = 1, multiplicity = 1:

       Center              X                  Y                   Z               Mass
    ------------   -----------------  -----------------  -----------------  -----------------
         O            0.000000000000     0.000000000000     0.000000000000    15.994914619570
         H           -0.607467580837     1.675897945184     0.350721830528     1.007825032230
         H           -1.251767813586    -1.100648305059     0.722708749146     1.007825032230
         NA           4.079805321296     0.000000000000     0.000000000000    22.989769282000

  Charge       = 1
  Multiplicity = 1
  Basis Set: AUG-CC-PVTZ
    Blend: AUG-CC-PVTZ
  Basis Set: (AUG-CC-PVTZ AUX)
    Blend: AUG-CC-PVTZ-JKFIT + DEF2-UNIVERSAL-JKFIT

    Orbital Energies [Eh]
    ---------------------

    Doubly Occupied:

       1A    -40.697550     2A    -20.781236     3A     -3.015677
       4A     -1.740072     5A     -1.739246     6A     -1.738985
       7A     -1.569687     8A     -0.932716     9A     -0.820685
      10A     -0.733031

  @DF-RHF Final Energy:  -237.77118306191991

   => Energetics <=

    Nuclear Repulsion Energy =             34.9316966323560223
    One-Electron Energy =                -397.8679864120496745
    Two-Electron Energy =                 125.1651067177737531
    Total Energy =                       -237.7711830619198849
 Dipole X            :        -39.9352745           43.0186231            3.0833486
 Dipole Y            :         -0.3674763            0.5752496            0.2077734
 Dipole Z            :         -0.6706837            1.0734306            0.4027469
 Magnitude           :                                                    3.1164745
  Basis Set: (AUG-CC-PVTZ AUX)
    Blend: AUG-CC-PVTZ-RI + DEF2-QZVPP-RI
	 Reference Energy          =    -237.7711830619199134 [Eh]
	 Singles Energy            =      -0.0000000000000000 [Eh]
	 Same-Spin Energy          =      -0.0709867575124579 [Eh]
	 Opposite-Spin Energy      =      -0.2245696523118630 [Eh]
	 Correlation Energy        =      -0.2955564098243209 [Eh]
	 Total Energy              =    -238.0667394717442278 [Eh]

	 ================> DF-SCS-MP2 Energies <==================
	-----------------------------------------------------------
	 SCS Same-Spin Scale       =       0.3333333333333333 [-]
	 SCS Opposite-Spin Scale   =       1.2000000000000000 [-]
	 SCS Same-Spin Energy      =      -0.0236622525041526 [Eh]
	 SCS Opposite-Spin Energy  =      -0.2694835827742356 [Eh]
	 SCS Correlation Energy    =      -0.2931458352783883 [Eh]
	 SCS Total Energy          =    -238.0643288971982940 [Eh]
	-----------------------------------------------------------

*** Psi4 exiting successfully. Buy a developer a beer!
