                               Psi4 1.9 release

  ==> Input File <==

--------------------------------------------------------------------------
MEMORY 60 GB

molecule dimer {
0 1
O      0.000000     0.000000     0.000000
H     -0.512627     0.756733     0.295965
H     -0.512627    -0.756733     0.295965
--
1 1
K      2.466222     0.000000     0.000000

units ang
no_reorient
no_com
symmetry c1
}

set {
basis        aug-cc-pVTZ
scf_type     df
}

energy("mp2", bsse_type="cp")
--------------------------------------------------------------------------

                               Psi4 1.9 release
    Molecular point group: c1
  Charge       = 1
  Multiplicity = 1
  Basis Set: AUG-CC-PVTZ
    Blend: AUG-CC-PVTZ
  Basis Set: (AUG-CC-PVTZ AUX)
    Blend: AUG-CC-PVTZ-JKFIT + DEF2-UNIVERSAL-JKFIT
  @DF-RHF Final Energy:  -599.01750886714956
    Total Energy =                       -599.0175088671496724
 Dipole X            :        -83.8891499           88.5491987            4.6600488
 Dipole Y            :         -0.0000000            0.0000000           -0.0000000
 Dipole Z            :          0.0000770            0.0000000            0.0000770
 Magnitude           :                                                    4.6600488
  Basis Set: (AUG-CC-PVTZ AUX)
    Blend: AUG-CC-PVTZ-RI + DEF2-QZVPP-RI
	 Reference Energy          =    -599.0175088671495587 [Eh]
	 Singles Energy            =      -0.0000000000000000 [Eh]
	 Same-Spin Energy          =      -0.0289888434760863 [Eh]
	 Opposite-Spin Energy      =      -0.0685937135717456 [Eh]
	 Correlation Energy        =      -0.0975825570478320 [Eh]
	 Total Energy              =    -599.1150914241974306 [Eh]
	 SCS Total Energy          =    -599.1094842712610671 [Eh]
                               Psi4 1.9 release
    Molecular point group: c1
  Multiplicity = 1
  Basis Set: AUG-CC-PVTZ
    Blend: AUG-CC-PVTZ
  Basis Set: (AUG-CC-PVTZ AUX)
    Blend: AUG-CC-PVTZ-JKFIT + DEF2-UNIVERSAL-JKFIT
  @DF-RHF Final Energy:   -76.06034117042520
    Total Energy =                        -76.0603411704252039
  Basis Set: (AUG-CC-PVTZ AUX)
	 Singles Energy            =      -0.0000000000000000 [Eh]
	 Same-Spin Energy          =      -0.0684302772945696 [Eh]
	 Opposite-Spin Energy      =      -0.2155384381028916 [Eh]
	 Correlation Energy        =      -0.2839687153974612 [Eh]
	 Total Energy              =     -76.3443098858226676 [Eh]
	 SCS Total Energy          =     -76.3417973885802041 [Eh]
                               Psi4 1.9 release
    Molecular point group: c1

    Geometry (in Bohr), charge = 1, multiplicity = 1:

       Center              X                  Y                   Z               Mass
    ------------   -----------------  -----------------  -----------------  -----------------
         O            0.000000000000     0.000000000000     0.000000000000    15.994914619570
         H           -0.968724634515     1.430018120096     0.559292792721     1.007825032230
         H           -0.968724634515    -1.430018120096     0.559292792721     1.007825032230
         K            4.660484144579     0.000000000000     0.000000000000    38.963706486400

  Charge       = 1
  Multiplicity = 1
  Basis Set: AUG-CC-PVTZ
    Blend: AUG-CC-PVTZ
  Basis Set: (AUG-CC-PVTZ AUX)
    Blend: AUG-CC-PVTZ-JKFIT + DEF2-UNIVERSAL-JKFIT

    Orbital Energies [Eh]
    ---------------------

    Doubly Occupied:

       1A   -133.702829     2A    -20.759222     3A    -14.659845
       4A    -11.689826     5A    -11.689793     6A    -11.689656
       7A     -1.919829     8A     -1.550341     9A     -1.128498
      10A     -1.128044    11A     -1.127802    12A     -0.910075
      13A     -0.792772    14A     -0.710044

  @DF-RHF Final Energy:  -675.10082336799815

   => Energetics <=

    Nuclear Repulsion Energy =             48.2896512365173720
    One-Electron Energy =               -1019.8637978759306861
    Two-Electron Energy =                 296.4733232714152678
    Total Energy =                       -675.1008233679981458
 Dipole X            :        -83.0090650           86.6117495            3.6026845
 Dipole Y            :         -0.0000000            0.0000000           -0.0000000
 Dipole Z            :         -0.7075387            1.1185856            0.4110469
 Magnitude           :                                                    3.6260578
  Basis Set: (AUG-CC-PVTZ AUX)
    Blend: AUG-CC-PVTZ-RI + DEF2-QZVPP-RI
	 Reference Energy          =    -675.1008233679981458 [Eh]
	 Singles Energy            =      -0.0000000000000000 [Eh]
	 Same-Spin Energy          =      -0.0985403520838220 [Eh]
	 Opposite-Spin Energy      =      -0.2840420608386300 [Eh]
	 Correlation Energy        =      -0.3825824129224520 [Eh]
	 Total Energy              =    -675.4834057809206342 [Eh]

	 ================> DF-SCS-MP2 Energies <==================
	-----------------------------------------------------------
	 SCS Same-Spin Scale       =       0.3333333333333333 [-]
	 SCS Opposite-Spin Scale   =       1.2000000000000000 [-]
	 SCS Same-Spin Energy      =      -0.0328467840279407 [Eh]
	 SCS Opposite-Spin Energy  =      -0.3408504730063560 [Eh]
	 SCS Correlation Energy    =      -0.3736972570342967 [Eh]
	 SCS Total Energy          =    -675.4745206250324827 [Eh]
	-----------------------------------------------------------

*** Psi4 exiting successfully. Buy a developer a beer!
