                               Psi4 1.9 release

  ==> Input File <==

--------------------------------------------------------------------------
MEMORY 60 GB

molecule dimer {
0 1
O      0.000000     0.000000     0.000000
H      0.311236     0.890994    -0.179692
H     -0.823863     0.134261     0.475658
--
1 1
K      2.466222     0.000000     0.000000

units ang
no_reorient
no_com
symmetry c1
}

set {
basis        aug-cc-pVTZ
scf_type     df
}

energy("mp2", bsse_type="cp")
--------------------------------------------------------------------------

                               Psi4 1.9 release
    Molecular point group: c1
  Charge       = 1
  Multiplicity = 1
  Basis Set: AUG-CC-PVTZ
    Blend: AUG-CC-PVTZ
  Basis Set: (AUG-CC-PVTZ AUX)
    Blend: AUG-CC-PVTZ-JKFIT + DEF2-UNIVERSAL-JKFIT
  @DF-RHF Final Energy:  -599.01750922972508
    Total Energy =                       -599.0175092297250785
 Dipole X            :        -83.8891607           88.5491987            4.6600381
 Dipole Y            :          0.0000948            0.0000000            0.0000948
 Dipole Z            :         -0.0000110            0.0000000           -0.0000110
 Magnitude           :                                                    4.6600381
  Basis Set: (AUG-CC-PVTZ AUX)
    Blend: AUG-CC-PVTZ-RI + DEF2-QZVPP-RI
	 Reference Energy          =    -599.0175092297250785 [Eh]
	 Singles Energy            =      -0.0000000000000000 [Eh]
	 Same-Spin Energy          =      -0.0295924551855342 [Eh]
	 Opposite-Spin Energy      =      -0.0702685110210192 [Eh]
	 Correlation Energy        =      -0.0998609662065534 [Eh]
	 Total Energy              =    -599.1173701959315849 [Eh]
	 SCS Total Energy          =    -599.1116955946788494 [Eh]
                               Psi4 1.9 release
    Molecular point group: c1
  Multiplicity = 1
  Basis Set: AUG-CC-PVTZ
    Blend: AUG-CC-PVTZ
  Basis Set: (AUG-CC-PVTZ AUX)
    Blend: AUG-CC-PVTZ-JKFIT + DEF2-UNIVERSAL-JKFIT
  @DF-RHF Final Energy:   -76.06033700404328
    Total Energy =                        -76.0603370040432765
  Basis Set: (AUG-CC-PVTZ AUX)
	 Singles Energy            =      -0.0000000000000000 [Eh]
	 Same-Spin Energy          =      -0.0684322268015854 [Eh]
	 Opposite-Spin Energy      =      -0.2155641782911117 [Eh]
	 Correlation Energy        =      -0.2839964050926972 [Eh]
	 Total Energy              =     -76.3443334091359702 [Eh]
	 SCS Total Energy          =     -76.3418247602598115 [Eh]
                               Psi4 1.9 release
    Molecular point group: c1

    Geometry (in Bohr), charge = 1, multiplicity = 1:

       Center              X                  Y                   Z               Mass
    ------------   -----------------  -----------------  -----------------  -----------------
         O            0.000000000000     0.000000000000     0.000000000000    15.994914619570
         H            0.588150800383     1.683734639426    -0.339568666936     1.007825032230
         H           -1.556875434898     0.253716519330     0.898863349383     1.007825032230
         K            4.660484144579     0.000000000000     0.000000000000    38.963706486400

  Charge       = 1
  Multiplicity = 1
  Basis Set: AUG-CC-PVTZ
    Blend: AUG-CC-PVTZ
  Basis Set: (AUG-CC-PVTZ AUX)
    Blend: AUG-CC-PVTZ-JKFIT + DEF2-UNIVERSAL-JKFIT

    Orbital Energies [Eh]
    ---------------------

    Doubly Occupied:

       1A   -133.720190     2A    -20.766514     3A    -14.677125
       4A    -11.707152     5A    -11.707051     6A    -11.706954
       7A     -1.937005     8A     -1.557813     9A     -1.148519
      10A     -1.143988    11A     -1.143247    12A     -0.916640
      13A     -0.792604    14A     -0.714590

  @DF-RHF Final Energy:  -675.08375395355506

   => Energetics <=

    Nuclear Repulsion Energy =             49.0980220534439908
    One-Electron Energy =               -1021.0847679030738391
    Two-Electron Energy =                 296.9029918960746954
    Total Energy =                       -675.0837539535551741
 Dipole X            :        -83.6169762           87.5804741            3.9634979
 Dipole Y            :         -1.2857871            1.9374512            0.6516640
 Dipole Z            :         -0.3295029            0.5592947            0.2297918
 Magnitude           :                                                    4.0232805
  Basis Set: (AUG-CC-PVTZ AUX)
    Blend: AUG-CC-PVTZ-RI + DEF2-QZVPP-RI
	 Reference Energy          =    -675.0837539535550604 [Eh]
	 Singles Energy            =      -0.0000000000000000 [Eh]
	 Same-Spin Energy          =      -0.0993792924590715 [Eh]
	 Opposite-Spin Energy      =      -0.2864304349235562 [Eh]
	 Correlation Energy        =      -0.3858097273826277 [Eh]
	 Total Energy              =    -675.4695636809376538 [Eh]

	 ================> DF-SCS-MP2 Energies <==================
	-----------------------------------------------------------
	 SCS Same-Spin Scale       =       0.3333333333333333 [-]
	 SCS Opposite-Spin Scale   =       1.2000000000000000 [-]
	 SCS Same-Spin Energy      =      -0.0331264308196905 [Eh]
	 SCS Opposite-Spin Energy  =      -0.3437165219082674 [Eh]
	 SCS Correlation Energy    =      -0.3768429527279579 [Eh]
	 SCS Total Energy          =    -675.4605969062830582 [Eh]
	-----------------------------------------------------------

*** Psi4 exiting successfully. Buy a developer a beer!
