                               Psi4 1.9 release

  ==> Input File <==

--------------------------------------------------------------------------
MEMORY 60 GB

molecule dimer {
0 1
O      0.000000     0.000000     0.000000
H     -0.116273     0.951316     0.067130
H     -0.771623    -0.359385     0.445497
--
1 1
K      2.466222     0.000000     0.000000

units ang
no_reorient
no_com
symmetry c1
}

set {
basis        aug-cc-pVTZ
scf_type     df
}

energy("mp2", bsse_type="cp")
--------------------------------------------------------------------------

                               Psi4 1.9 release
    Molecular point group: c1
  Charge       = 1
  Multiplicity = 1
  Basis Set: AUG-CC-PVTZ
    Blend: AUG-CC-PVTZ
  Basis Set: (AUG-CC-PVTZ AUX)
    Blend: AUG-CC-PVTZ-JKFIT + DEF2-UNIVERSAL-JKFIT
  @DF-RHF Final Energy:  -599.01750888859135
    Total Energy =                       -599.0175088885913510
 Dipole X            :        -83.8891179           88.5491987            4.6600808
 Dipole Y            :          0.0000351            0.0000000            0.0000351
 Dipole Z            :          0.0000449            0.0000000            0.0000449
 Magnitude           :                                                    4.6600808
  Basis Set: (AUG-CC-PVTZ AUX)
    Blend: AUG-CC-PVTZ-RI + DEF2-QZVPP-RI
	 Reference Energy          =    -599.0175088885913510 [Eh]
	 Singles Energy            =      -0.0000000000000000 [Eh]
	 Same-Spin Energy          =      -0.0290780572441528 [Eh]
	 Opposite-Spin Energy      =      -0.0688167043385839 [Eh]
	 Correlation Energy        =      -0.0978947615827367 [Eh]
	 Total Energy              =    -599.1154036501741302 [Eh]
	 SCS Total Energy          =    -599.1097816195457426 [Eh]
                               Psi4 1.9 release
    Molecular point group: c1
  Multiplicity = 1
  Basis Set: AUG-CC-PVTZ
    Blend: AUG-CC-PVTZ
  Basis Set: (AUG-CC-PVTZ AUX)
    Blend: AUG-CC-PVTZ-JKFIT + DEF2-UNIVERSAL-JKFIT
  @DF-RHF Final Energy:   -76.06033919202775
    Total Energy =                        -76.0603391920277545
  Basis Set: (AUG-CC-PVTZ AUX)
	 Singles Energy            =      -0.0000000000000000 [Eh]
	 Same-Spin Energy          =      -0.0684297497743107 [Eh]
	 Opposite-Spin Energy      =      -0.2155434397835430 [Eh]
	 Correlation Energy        =      -0.2839731895578536 [Eh]
	 Total Energy              =     -76.3443123815856097 [Eh]
	 SCS Total Energy          =     -76.3418012363594443 [Eh]
                               Psi4 1.9 release
    Molecular point group: c1

    Geometry (in Bohr), charge = 1, multiplicity = 1:

       Center              X                  Y                   Z               Mass
    ------------   -----------------  -----------------  -----------------  -----------------
         O            0.000000000000     0.000000000000     0.000000000000    15.994914619570
         H           -0.219724125785     1.797726698766     0.126857314802     1.007825032230
         H           -1.458156142104    -0.679139223598     0.841867319713     1.007825032230
         K            4.660484144579     0.000000000000     0.000000000000    38.963706486400

  Charge       = 1
  Multiplicity = 1
  Basis Set: AUG-CC-PVTZ
    Blend: AUG-CC-PVTZ
  Basis Set: (AUG-CC-PVTZ AUX)
    Blend: AUG-CC-PVTZ-JKFIT + DEF2-UNIVERSAL-JKFIT

    Orbital Energies [Eh]
    ---------------------

    Doubly Occupied:

       1A   -133.707601     2A    -20.761078     3A    -14.664554
       4A    -11.694548     5A    -11.694502     6A    -11.694379
       7A     -1.924376     8A     -1.552261     9A     -1.133879
      10A     -1.132181    11A     -1.131738    12A     -0.912065
      13A     -0.792479    14A     -0.711193

  @DF-RHF Final Energy:  -675.09686404475633

   => Energetics <=

    Nuclear Repulsion Energy =             48.4871344787628047
    One-Electron Energy =               -1020.1543271717685002
    Two-Electron Energy =                 296.5703286482494150
    Total Energy =                       -675.0968640447563303
 Dipole X            :        -83.1704256           86.8713185            3.7008928
 Dipole Y            :         -0.7392555            1.1185875            0.3793320
 Dipole Z            :         -0.6073751            0.9687246            0.3613495
 Magnitude           :                                                    3.7377900
  Basis Set: (AUG-CC-PVTZ AUX)
    Blend: AUG-CC-PVTZ-RI + DEF2-QZVPP-RI
	 Reference Energy          =    -675.0968640447563303 [Eh]
	 Singles Energy            =      -0.0000000000000000 [Eh]
	 Same-Spin Energy          =      -0.0986730728954300 [Eh]
	 Opposite-Spin Energy      =      -0.2844193887107712 [Eh]
	 Correlation Energy        =      -0.3830924616062011 [Eh]
	 Total Energy              =    -675.4799565063625550 [Eh]

	 ================> DF-SCS-MP2 Energies <==================
	-----------------------------------------------------------
	 SCS Same-Spin Scale       =       0.3333333333333333 [-]
	 SCS Opposite-Spin Scale   =       1.2000000000000000 [-]
	 SCS Same-Spin Energy      =      -0.0328910242984767 [Eh]
	 SCS Opposite-Spin Energy  =      -0.3413032664529254 [Eh]
	 SCS Correlation Energy    =      -0.3741942907514020 [Eh]
	 SCS Total Energy          =    -675.4710583355076778 [Eh]
	-----------------------------------------------------------

*** Psi4 exiting successfully. Buy a developer a beer!
