                               Psi4 1.9 release

  ==> Input File <==

--------------------------------------------------------------------------
MEMORY 60 GB

molecule dimer {
0 1
O      0.000000     0.000000     0.000000
H     -0.825885     0.116533     0.476825
H      0.100920    -0.953649    -0.058266
--
1 1
K      2.466222     0.000000     0.000000

units ang
no_reorient
no_com
symmetry c1
}

set {
basis        aug-cc-pVTZ
scf_type     df
}

energy("mp2", bsse_type="cp")
--------------------------------------------------------------------------

                               Psi4 1.9 release
    Molecular point group: c1
  Charge       = 1
  Multiplicity = 1
  Basis Set: AUG-CC-PVTZ
    Blend: AUG-CC-PVTZ
  Basis Set: (AUG-CC-PVTZ AUX)
    Blend: AUG-CC-PVTZ-JKFIT + DEF2-UNIVERSAL-JKFIT
  @DF-RHF Final Energy:  -599.01750903128288
    Total Energy =                       -599.0175090312828843
 Dipole X            :        -83.8891222           88.5491987            4.6600765
 Dipole Y            :         -0.0000530            0.0000000           -0.0000530
 Dipole Z            :          0.0000173            0.0000000            0.0000173
 Magnitude           :                                                    4.6600765
  Basis Set: (AUG-CC-PVTZ AUX)
    Blend: AUG-CC-PVTZ-RI + DEF2-QZVPP-RI
	 Reference Energy          =    -599.0175090312828843 [Eh]
	 Singles Energy            =      -0.0000000000000000 [Eh]
	 Same-Spin Energy          =      -0.0292630822642013 [Eh]
	 Opposite-Spin Energy      =      -0.0693184948567031 [Eh]
	 Correlation Energy        =      -0.0985815771209044 [Eh]
	 Total Energy              =    -599.1160906084037379 [Eh]
	 SCS Total Energy          =    -599.1104455858657047 [Eh]
                               Psi4 1.9 release
    Molecular point group: c1
  Multiplicity = 1
  Basis Set: AUG-CC-PVTZ
    Blend: AUG-CC-PVTZ
  Basis Set: (AUG-CC-PVTZ AUX)
    Blend: AUG-CC-PVTZ-JKFIT + DEF2-UNIVERSAL-JKFIT
  @DF-RHF Final Energy:   -76.06033762991605
    Total Energy =                        -76.0603376299160345
  Basis Set: (AUG-CC-PVTZ AUX)
	 Singles Energy            =      -0.0000000000000000 [Eh]
	 Same-Spin Energy          =      -0.0684307802742258 [Eh]
	 Opposite-Spin Energy      =      -0.2155553228336651 [Eh]
	 Correlation Energy        =      -0.2839861031078909 [Eh]
	 Total Energy              =     -76.3443237330239413 [Eh]
	 SCS Total Energy          =     -76.3418142774078490 [Eh]
                               Psi4 1.9 release
    Molecular point group: c1

    Geometry (in Bohr), charge = 1, multiplicity = 1:

       Center              X                  Y                   Z               Mass
    ------------   -----------------  -----------------  -----------------  -----------------
         O            0.000000000000     0.000000000000     0.000000000000    15.994914619570
         H           -1.560696461124     0.220215454578     0.901068659771     1.007825032230
         H            0.190711160581    -1.802135429817    -0.110106782426     1.007825032230
         K            4.660484144579     0.000000000000     0.000000000000    38.963706486400

  Charge       = 1
  Multiplicity = 1
  Basis Set: AUG-CC-PVTZ
    Blend: AUG-CC-PVTZ
  Basis Set: (AUG-CC-PVTZ AUX)
    Blend: AUG-CC-PVTZ-JKFIT + DEF2-UNIVERSAL-JKFIT

    Orbital Energies [Eh]
    ---------------------

    Doubly Occupied:

       1A   -133.713134     2A    -20.763415     3A    -14.670048
       4A    -11.700057     5A    -11.699992     6A    -11.699881
       7A     -1.929796     8A     -1.554640     9A     -1.140049
      10A     -1.137280    11A     -1.136643    12A     -0.914248
      13A     -0.792408    14A     -0.712655

  @DF-RHF Final Energy:  -675.09165624680156

   => Energetics <=

    Nuclear Repulsion Energy =             48.7391484705194387
    One-Electron Energy =               -1020.5331147466646371
    Two-Electron Energy =                 296.7023100293434936
    Total Energy =                       -675.0916562468016764
 Dipole X            :        -83.3635813           87.1792134            3.8156321
 Dipole Y            :          1.0477644           -1.5819200           -0.5341556
 Dipole Z            :         -0.4874933            0.7909619            0.3034686
 Magnitude           :                                                    3.8647722
  Basis Set: (AUG-CC-PVTZ AUX)
    Blend: AUG-CC-PVTZ-RI + DEF2-QZVPP-RI
	 Reference Energy          =    -675.0916562468015627 [Eh]
	 Singles Energy            =      -0.0000000000000000 [Eh]
	 Same-Spin Energy          =      -0.0989245469477575 [Eh]
	 Opposite-Spin Energy      =      -0.2851421758512313 [Eh]
	 Correlation Energy        =      -0.3840667227989888 [Eh]
	 Total Energy              =    -675.4757229696004970 [Eh]

	 ================> DF-SCS-MP2 Energies <==================
	-----------------------------------------------------------
	 SCS Same-Spin Scale       =       0.3333333333333333 [-]
	 SCS Opposite-Spin Scale   =       1.2000000000000000 [-]
	 SCS Same-Spin Energy      =      -0.0329748489825858 [Eh]
	 SCS Opposite-Spin Energy  =      -0.3421706110214776 [Eh]
	 SCS Correlation Energy    =      -0.3751454600040634 [Eh]
	 SCS Total Energy          =    -675.4668017068056542 [Eh]
	-----------------------------------------------------------

*** Psi4 exiting successfully. Buy a developer a beer!
