                               Psi4 1.9 release

  ==> Input File <==

--------------------------------------------------------------------------
MEMORY 60 GB

molecule dimer {
0 1
O      0.000000     0.000000     0.000000
H     -0.325543     0.884151     0.187952
H     -0.664777    -0.577745     0.383809
--
1 1
K      2.466222     0.000000     0.000000

units ang
no_reorient
no_com
symmetry c1
}

set {
basis        aug-cc-pVTZ
scf_type     df
}

energy("mp2", bsse_type="cp")
--------------------------------------------------------------------------

                               Psi4 1.9 release
    Molecular point group: c1
  Charge       = 1
  Multiplicity = 1
  Basis Set: AUG-CC-PVTZ
    Blend: AUG-CC-PVTZ
  Basis Set: (AUG-CC-PVTZ AUX)
    Blend: AUG-CC-PVTZ-JKFIT + DEF2-UNIVERSAL-JKFIT
  @DF-RHF Final Energy:  -599.01750886021125
    Total Energy =                       -599.0175088602112510
 Dipole X            :        -83.8891381           88.5491987            4.6600606
 Dipole Y            :          0.0000265            0.0000000            0.0000265
 Dipole Z            :          0.0000676            0.0000000            0.0000676
 Magnitude           :                                                    4.6600606
  Basis Set: (AUG-CC-PVTZ AUX)
    Blend: AUG-CC-PVTZ-RI + DEF2-QZVPP-RI
	 Reference Energy          =    -599.0175088602112510 [Eh]
	 Singles Energy            =      -0.0000000000000000 [Eh]
	 Same-Spin Energy          =      -0.0290022440069121 [Eh]
	 Opposite-Spin Energy      =      -0.0686265114606536 [Eh]
	 Correlation Energy        =      -0.0976287554675657 [Eh]
	 Total Energy              =    -599.1151376156788047 [Eh]
	 SCS Total Energy          =    -599.1095280886330556 [Eh]
                               Psi4 1.9 release
    Molecular point group: c1
  Multiplicity = 1
  Basis Set: AUG-CC-PVTZ
    Blend: AUG-CC-PVTZ
  Basis Set: (AUG-CC-PVTZ AUX)
    Blend: AUG-CC-PVTZ-JKFIT + DEF2-UNIVERSAL-JKFIT
  @DF-RHF Final Energy:   -76.06034060394641
    Total Energy =                        -76.0603406039464005
  Basis Set: (AUG-CC-PVTZ AUX)
	 Singles Energy            =      -0.0000000000000000 [Eh]
	 Same-Spin Energy          =      -0.0684299400236555 [Eh]
	 Opposite-Spin Energy      =      -0.2155385685884401 [Eh]
	 Correlation Energy        =      -0.2839685086120957 [Eh]
	 Total Energy              =     -76.3443091125585056 [Eh]
	 SCS Total Energy          =     -76.3417968662604238 [Eh]
                               Psi4 1.9 release
    Molecular point group: c1

    Geometry (in Bohr), charge = 1, multiplicity = 1:

       Center              X                  Y                   Z               Mass
    ------------   -----------------  -----------------  -----------------  -----------------
         O            0.000000000000     0.000000000000     0.000000000000    15.994914619570
         H           -0.615187112060     1.670803243550     0.355177804732     1.007825032230
         H           -1.256246464503    -1.091779820353     0.725293894486     1.007825032230
         K            4.660484144579     0.000000000000     0.000000000000    38.963706486400

  Charge       = 1
  Multiplicity = 1
  Basis Set: AUG-CC-PVTZ
    Blend: AUG-CC-PVTZ
  Basis Set: (AUG-CC-PVTZ AUX)
    Blend: AUG-CC-PVTZ-JKFIT + DEF2-UNIVERSAL-JKFIT

    Orbital Energies [Eh]
    ---------------------

    Doubly Occupied:

       1A   -133.704054     2A    -20.759681     3A    -14.661051
       4A    -11.691036     5A    -11.690999     6A    -11.690866
       7A     -1.920986     8A     -1.550821     9A     -1.129963
      10A     -1.129002    11A     -1.128792    12A     -0.910591
      13A     -0.792674    14A     -0.710327

  @DF-RHF Final Energy:  -675.09984763737793

   => Energetics <=

    Nuclear Repulsion Energy =             48.3386248570716504
    One-Electron Energy =               -1019.9352545185537338
    Two-Electron Energy =                 296.4967820241041636
    Total Energy =                       -675.0998476373779340
 Dipole X            :        -83.0499603           86.6777652            3.6278048
 Dipole Y            :         -0.3820777            0.5790234            0.1969458
 Dipole Z            :         -0.6821393            1.0804717            0.3983324
 Magnitude           :                                                    3.6549178
  Basis Set: (AUG-CC-PVTZ AUX)
    Blend: AUG-CC-PVTZ-RI + DEF2-QZVPP-RI
	 Reference Energy          =    -675.0998476373779340 [Eh]
	 Singles Energy            =      -0.0000000000000000 [Eh]
	 Same-Spin Energy          =      -0.0985639346424096 [Eh]
	 Opposite-Spin Energy      =      -0.2841104327794659 [Eh]
	 Correlation Energy        =      -0.3826743674218755 [Eh]
	 Total Energy              =    -675.4825220047997618 [Eh]

	 ================> DF-SCS-MP2 Energies <==================
	-----------------------------------------------------------
	 SCS Same-Spin Scale       =       0.3333333333333333 [-]
	 SCS Opposite-Spin Scale   =       1.2000000000000000 [-]
	 SCS Same-Spin Energy      =      -0.0328546448808032 [Eh]
	 SCS Opposite-Spin Energy  =      -0.3409325193353591 [Eh]
	 SCS Correlation Energy    =      -0.3737871642161623 [Eh]
	 SCS Total Energy          =    -675.4736348015941303 [Eh]
	-----------------------------------------------------------

*** Psi4 exiting successfully. Buy a developer a beer!
