                               Psi4 1.9 release

  ==> Input File <==

--------------------------------------------------------------------------
MEMORY 60 GB

molecule dimer {
0 1
O      0.000000     0.000000     0.000000
H      0.078592     0.953257    -0.045375
H      0.878500    -0.309825    -0.507202
--
-1 1
F      2.426389     0.000000     0.000000

units ang
no_reorient
no_com
symmetry c1
}

set {
basis        aug-cc-pVTZ
scf_type     df
}

energy("mp2", bsse_type="cp")
--------------------------------------------------------------------------

                               Psi4 1.9 release
    Molecular point group: c1
  Charge       = -1
  Multiplicity = 1
  Basis Set: AUG-CC-PVTZ
    Blend: AUG-CC-PVTZ
  Basis Set: (AUG-CC-PVTZ AUX)
    Blend: AUG-CC-PVTZ-JKFIT
  @DF-RHF Final Energy:   -99.45088795035744
    Total Energy =                        -99.4508879503574406
 Dipole X            :        -45.8528644           41.2668962           -4.5859682
 Dipole Y            :          0.0000663            0.0000000            0.0000663
 Dipole Z            :          0.0004500            0.0000000            0.0004500
 Magnitude           :                                                    4.5859682
  Basis Set: (AUG-CC-PVTZ AUX)
    Blend: AUG-CC-PVTZ-RI
	 Reference Energy          =     -99.4508879503574406 [Eh]
	 Singles Energy            =      -0.0000000000000000 [Eh]
	 Same-Spin Energy          =      -0.0817070117496297 [Eh]
	 Opposite-Spin Energy      =      -0.2275309056126034 [Eh]
	 Correlation Energy        =      -0.3092379173622331 [Eh]
	 Total Energy              =     -99.7601258677196796 [Eh]
	 SCS Total Energy          =     -99.7511607076757798 [Eh]
                               Psi4 1.9 release
    Molecular point group: c1
  Multiplicity = 1
  Basis Set: AUG-CC-PVTZ
    Blend: AUG-CC-PVTZ
  Basis Set: (AUG-CC-PVTZ AUX)
    Blend: AUG-CC-PVTZ-JKFIT
  @DF-RHF Final Energy:   -76.04860627694909
    Total Energy =                        -76.0486062769490871
  Basis Set: (AUG-CC-PVTZ AUX)
	 Singles Energy            =      -0.0000000000000000 [Eh]
	 Same-Spin Energy          =      -0.0692968424770234 [Eh]
	 Opposite-Spin Energy      =      -0.2185088379193176 [Eh]
	 Correlation Energy        =      -0.2878056803963410 [Eh]
	 Total Energy              =     -76.3364119573454332 [Eh]
	 SCS Total Energy          =     -76.3339158299446154 [Eh]
                               Psi4 1.9 release
    Molecular point group: c1

    Geometry (in Bohr), charge = -1, multiplicity = 1:

       Center              X                  Y                   Z               Mass
    ------------   -----------------  -----------------  -----------------  -----------------
         O            0.000000000000     0.000000000000     0.000000000000    15.994914619570
         H            0.148517355652     1.801394657176    -0.085746322943     1.007825032230
         H            1.660124401215    -0.585484396820    -0.958472870284     1.007825032230
         F            4.585210683823     0.000000000000     0.000000000000    18.998403162730

  Charge       = -1
  Multiplicity = 1
  Basis Set: AUG-CC-PVTZ
    Blend: AUG-CC-PVTZ
  Basis Set: (AUG-CC-PVTZ AUX)
    Blend: AUG-CC-PVTZ-JKFIT

    Orbital Energies [Eh]
    ---------------------

    Doubly Occupied:

       1A    -25.873580     2A    -20.332622     3A     -1.133104
       4A     -1.092375     5A     -0.458367     6A     -0.362748
       7A     -0.280766     8A     -0.227494     9A     -0.225217
      10A     -0.212104

  @DF-RHF Final Energy:  -175.52289692591933

   => Energetics <=

    Nuclear Repulsion Energy =             29.2047344747855853
    One-Electron Energy =                -309.0585085091469750
    Two-Electron Energy =                 104.3308771084420528
    Total Energy =                       -175.5228969259193263
 Dipole X            :        -46.4489102           43.0755379           -3.3733723
 Dipole Y            :         -0.8436551            1.2159103            0.3722552
 Dipole Z            :          0.7487992           -1.0442192           -0.2954200
 Magnitude           :                                                    3.4066827
  Basis Set: (AUG-CC-PVTZ AUX)
    Blend: AUG-CC-PVTZ-RI
	 Reference Energy          =    -175.5228969259193263 [Eh]
	 Singles Energy            =      -0.0000000000000000 [Eh]
	 Same-Spin Energy          =      -0.1534053647076664 [Eh]
	 Opposite-Spin Energy      =      -0.4462150238169607 [Eh]
	 Correlation Energy        =      -0.5996203885246271 [Eh]
	 Total Energy              =    -176.1225173144439395 [Eh]

	 ================> DF-SCS-MP2 Energies <==================
	-----------------------------------------------------------
	 SCS Same-Spin Scale       =       0.3333333333333333 [-]
	 SCS Opposite-Spin Scale   =       1.2000000000000000 [-]
	 SCS Same-Spin Energy      =      -0.0511351215692221 [Eh]
	 SCS Opposite-Spin Energy  =      -0.5354580285803527 [Eh]
	 SCS Correlation Energy    =      -0.5865931501495749 [Eh]
	 SCS Total Energy          =    -176.1094900760689086 [Eh]
	-----------------------------------------------------------

*** Psi4 exiting successfully. Buy a developer a beer!
