                               Psi4 1.9 release

  ==> Input File <==

--------------------------------------------------------------------------
MEMORY 60 GB

molecule dimer {
0 1
O      0.000000     0.000000     0.000000
H      0.289581     0.897287    -0.167189
H      0.779120    -0.561815    -0.449825
--
-1 1
F      2.426389     0.000000     0.000000

units ang
no_reorient
no_com
symmetry c1
}

set {
basis        aug-cc-pVTZ
scf_type     df
}

energy("mp2", bsse_type="cp")
--------------------------------------------------------------------------

                               Psi4 1.9 release
    Molecular point group: c1
  Charge       = -1
  Multiplicity = 1
  Basis Set: AUG-CC-PVTZ
    Blend: AUG-CC-PVTZ
  Basis Set: (AUG-CC-PVTZ AUX)
    Blend: AUG-CC-PVTZ-JKFIT
  @DF-RHF Final Energy:   -99.45088428988639
    Total Energy =                        -99.4508842898864032
 Dipole X            :        -45.8530961           41.2668962           -4.5862000
 Dipole Y            :          0.0002398            0.0000000            0.0002398
 Dipole Z            :          0.0001544            0.0000000            0.0001544
 Magnitude           :                                                    4.5862000
  Basis Set: (AUG-CC-PVTZ AUX)
    Blend: AUG-CC-PVTZ-RI
	 Reference Energy          =     -99.4508842898863890 [Eh]
	 Singles Energy            =      -0.0000000000000000 [Eh]
	 Same-Spin Energy          =      -0.0817015550757358 [Eh]
	 Opposite-Spin Energy      =      -0.2273289488456398 [Eh]
	 Correlation Energy        =      -0.3090305039213757 [Eh]
	 Total Energy              =     -99.7599147938077664 [Eh]
	 SCS Total Energy          =     -99.7509128801930700 [Eh]
                               Psi4 1.9 release
    Molecular point group: c1
  Multiplicity = 1
  Basis Set: AUG-CC-PVTZ
    Blend: AUG-CC-PVTZ
  Basis Set: (AUG-CC-PVTZ AUX)
    Blend: AUG-CC-PVTZ-JKFIT
  @DF-RHF Final Energy:   -76.04859952187327
    Total Energy =                        -76.0485995218732853
  Basis Set: (AUG-CC-PVTZ AUX)
	 Singles Energy            =      -0.0000000000000000 [Eh]
	 Same-Spin Energy          =      -0.0692910475229117 [Eh]
	 Opposite-Spin Energy      =      -0.2184428327405286 [Eh]
	 Correlation Energy        =      -0.2877338802634403 [Eh]
	 Total Energy              =     -76.3363334021367166 [Eh]
	 SCS Total Energy          =     -76.3338279370028800 [Eh]
                               Psi4 1.9 release
    Molecular point group: c1

    Geometry (in Bohr), charge = -1, multiplicity = 1:

       Center              X                  Y                   Z               Mass
    ------------   -----------------  -----------------  -----------------  -----------------
         O            0.000000000000     0.000000000000     0.000000000000    15.994914619570
         H            0.547228781136     1.695626685934    -0.315941421189     1.007825032230
         H            1.472323418867    -1.061676483174    -0.850046054384     1.007825032230
         F            4.585210683823     0.000000000000     0.000000000000    18.998403162730

  Charge       = -1
  Multiplicity = 1
  Basis Set: AUG-CC-PVTZ
    Blend: AUG-CC-PVTZ
  Basis Set: (AUG-CC-PVTZ AUX)
    Blend: AUG-CC-PVTZ-JKFIT

    Orbital Energies [Eh]
    ---------------------

    Doubly Occupied:

       1A    -25.866201     2A    -20.338420     3A     -1.126010
       4A     -1.093976     5A     -0.460371     6A     -0.365319
       7A     -0.284104     8A     -0.219714     9A     -0.218071
      10A     -0.207612

  @DF-RHF Final Energy:  -175.51831483876666

   => Energetics <=

    Nuclear Repulsion Energy =             29.1522052358109605
    One-Electron Energy =                -308.9814416280667047
    Two-Electron Energy =                 104.3109215534890524
    Total Energy =                       -175.5183148387666847
 Dipole X            :        -46.6859646           43.2864484           -3.3995162
 Dipole Y            :         -0.4358886            0.6339502            0.1980616
 Dipole Z            :          0.8286145           -1.1659875           -0.3373730
 Magnitude           :                                                    3.4219526
  Basis Set: (AUG-CC-PVTZ AUX)
    Blend: AUG-CC-PVTZ-RI
	 Reference Energy          =    -175.5183148387666563 [Eh]
	 Singles Energy            =      -0.0000000000000000 [Eh]
	 Same-Spin Energy          =      -0.1530326300601395 [Eh]
	 Opposite-Spin Energy      =      -0.4459447659932444 [Eh]
	 Correlation Energy        =      -0.5989773960533840 [Eh]
	 Total Energy              =    -176.1172922348200416 [Eh]

	 ================> DF-SCS-MP2 Energies <==================
	-----------------------------------------------------------
	 SCS Same-Spin Scale       =       0.3333333333333333 [-]
	 SCS Opposite-Spin Scale   =       1.2000000000000000 [-]
	 SCS Same-Spin Energy      =      -0.0510108766867132 [Eh]
	 SCS Opposite-Spin Energy  =      -0.5351337191918932 [Eh]
	 SCS Correlation Energy    =      -0.5861445958786065 [Eh]
	 SCS Total Energy          =    -176.1044594346452641 [Eh]
	-----------------------------------------------------------

*** Psi4 exiting successfully. Buy a developer a beer!
