                               Psi4 1.9 release

  ==> Input File <==

--------------------------------------------------------------------------
MEMORY 60 GB

molecule dimer {
0 1
O      0.000000     0.000000     0.000000
H     -0.344710     0.870919     0.199018
H      0.894961     0.238886    -0.516706
--
-1 1
F      2.426389     0.000000     0.000000

units ang
no_reorient
no_com
symmetry c1
}

set {
basis        aug-cc-pVTZ
scf_type     df
}

energy("mp2", bsse_type="cp")
--------------------------------------------------------------------------

                               Psi4 1.9 release
    Molecular point group: c1
  Charge       = -1
  Multiplicity = 1
  Basis Set: AUG-CC-PVTZ
    Blend: AUG-CC-PVTZ
  Basis Set: (AUG-CC-PVTZ AUX)
    Blend: AUG-CC-PVTZ-JKFIT
  @DF-RHF Final Energy:   -99.45088826893085
    Total Energy =                        -99.4508882689308535
 Dipole X            :        -45.8525340           41.2668962           -4.5856379
 Dipole Y            :         -0.0001405            0.0000000           -0.0001405
 Dipole Z            :          0.0004089            0.0000000            0.0004089
 Magnitude           :                                                    4.5856379
  Basis Set: (AUG-CC-PVTZ AUX)
    Blend: AUG-CC-PVTZ-RI
	 Reference Energy          =     -99.4508882689308535 [Eh]
	 Singles Energy            =      -0.0000000000000000 [Eh]
	 Same-Spin Energy          =      -0.0817051094692420 [Eh]
	 Opposite-Spin Energy      =      -0.2275341086659297 [Eh]
	 Correlation Energy        =      -0.3092392181351717 [Eh]
	 Total Energy              =     -99.7601274870660291 [Eh]
	 SCS Total Energy          =     -99.7511642358197150 [Eh]
                               Psi4 1.9 release
    Molecular point group: c1
  Multiplicity = 1
  Basis Set: AUG-CC-PVTZ
    Blend: AUG-CC-PVTZ
  Basis Set: (AUG-CC-PVTZ AUX)
    Blend: AUG-CC-PVTZ-JKFIT
  @DF-RHF Final Energy:   -76.04861046105616
    Total Energy =                        -76.0486104610561711
  Basis Set: (AUG-CC-PVTZ AUX)
	 Singles Energy            =      -0.0000000000000000 [Eh]
	 Same-Spin Energy          =      -0.0692991896854126 [Eh]
	 Opposite-Spin Energy      =      -0.2185306054424947 [Eh]
	 Correlation Energy        =      -0.2878297951279072 [Eh]
	 Total Energy              =     -76.3364402561840620 [Eh]
	 SCS Total Energy          =     -76.3339469174822938 [Eh]
                               Psi4 1.9 release
    Molecular point group: c1

    Geometry (in Bohr), charge = -1, multiplicity = 1:

       Center              X                  Y                   Z               Mass
    ------------   -----------------  -----------------  -----------------  -----------------
         O            0.000000000000     0.000000000000     0.000000000000    15.994914619570
         H           -0.651407492707     1.645798387458     0.376089514036     1.007825032230
         H            1.691231182966     0.451429115206    -0.976432827381     1.007825032230
         F            4.585210683823     0.000000000000     0.000000000000    18.998403162730

  Charge       = -1
  Multiplicity = 1
  Basis Set: AUG-CC-PVTZ
    Blend: AUG-CC-PVTZ
  Basis Set: (AUG-CC-PVTZ AUX)
    Blend: AUG-CC-PVTZ-JKFIT

    Orbital Energies [Eh]
    ---------------------

    Doubly Occupied:

       1A    -25.870626     2A    -20.337458     3A     -1.130600
       4A     -1.096448     5A     -0.461915     6A     -0.360957
       7A     -0.283287     8A     -0.224100     9A     -0.222240
      10A     -0.211813

  @DF-RHF Final Energy:  -175.51989863861360

   => Energetics <=

    Nuclear Repulsion Energy =             29.0039432854788757
    One-Electron Energy =                -308.6487971566777446
    Two-Electron Energy =                 104.1249552325852363
    Total Energy =                       -175.5198986386135971
 Dipole X            :        -45.9197060           42.3067198           -3.6129862
 Dipole Y            :         -1.4646800            2.0972275            0.6325475
 Dipole Z            :          0.4441000           -0.6003433           -0.1562433
 Magnitude           :                                                    3.6712664
  Basis Set: (AUG-CC-PVTZ AUX)
    Blend: AUG-CC-PVTZ-RI
	 Reference Energy          =    -175.5198986386135971 [Eh]
	 Singles Energy            =      -0.0000000000000000 [Eh]
	 Same-Spin Energy          =      -0.1537607268183944 [Eh]
	 Opposite-Spin Energy      =      -0.4469016545512731 [Eh]
	 Correlation Energy        =      -0.6006623813696674 [Eh]
	 Total Energy              =    -176.1205610199832563 [Eh]

	 ================> DF-SCS-MP2 Energies <==================
	-----------------------------------------------------------
	 SCS Same-Spin Scale       =       0.3333333333333333 [-]
	 SCS Opposite-Spin Scale   =       1.2000000000000000 [-]
	 SCS Same-Spin Energy      =      -0.0512535756061315 [Eh]
	 SCS Opposite-Spin Energy  =      -0.5362819854615276 [Eh]
	 SCS Correlation Energy    =      -0.5875355610676590 [Eh]
	 SCS Total Energy          =    -176.1074341996812507 [Eh]
	-----------------------------------------------------------

*** Psi4 exiting successfully. Buy a developer a beer!
