                               Psi4 1.9 release

  ==> Input File <==

--------------------------------------------------------------------------
MEMORY 60 GB

molecule dimer {
0 1
O      0.000000     0.000000     0.000000
H     -0.137753     0.944263     0.079531
H      0.918011    -0.036721    -0.530014
--
-1 1
F      2.426389     0.000000     0.000000

units ang
no_reorient
no_com
symmetry c1
}

set {
basis        aug-cc-pVTZ
scf_type     df
}

energy("mp2", bsse_type="cp")
--------------------------------------------------------------------------

                               Psi4 1.9 release
    Molecular point group: c1
  Charge       = -1
  Multiplicity = 1
  Basis Set: AUG-CC-PVTZ
    Blend: AUG-CC-PVTZ
  Basis Set: (AUG-CC-PVTZ AUX)
    Blend: AUG-CC-PVTZ-JKFIT
  @DF-RHF Final Energy:   -99.45089194437807
    Total Energy =                        -99.4508919443780712
 Dipole X            :        -45.8525670           41.2668962           -4.5856708
 Dipole Y            :         -0.0001392            0.0000000           -0.0001392
 Dipole Z            :          0.0005429            0.0000000            0.0005429
 Magnitude           :                                                    4.5856708
  Basis Set: (AUG-CC-PVTZ AUX)
    Blend: AUG-CC-PVTZ-RI
	 Reference Energy          =     -99.4508919443780712 [Eh]
	 Singles Energy            =      -0.0000000000000000 [Eh]
	 Same-Spin Energy          =      -0.0817100344727693 [Eh]
	 Opposite-Spin Energy      =      -0.2276150243607467 [Eh]
	 Correlation Energy        =      -0.3093250588335159 [Eh]
	 Total Energy              =     -99.7602170032115936 [Eh]
	 SCS Total Energy          =     -99.7512666517685602 [Eh]
                               Psi4 1.9 release
    Molecular point group: c1
  Multiplicity = 1
  Basis Set: AUG-CC-PVTZ
    Blend: AUG-CC-PVTZ
  Basis Set: (AUG-CC-PVTZ AUX)
    Blend: AUG-CC-PVTZ-JKFIT
  @DF-RHF Final Energy:   -76.04861182627239
    Total Energy =                        -76.0486118262724062
  Basis Set: (AUG-CC-PVTZ AUX)
	 Singles Energy            =      -0.0000000000000000 [Eh]
	 Same-Spin Energy          =      -0.0693012436960772 [Eh]
	 Opposite-Spin Energy      =      -0.2185669939419833 [Eh]
	 Correlation Energy        =      -0.2878682376380605 [Eh]
	 Total Energy              =     -76.3364800639104573 [Eh]
	 SCS Total Energy          =     -76.3339926335681298 [Eh]
                               Psi4 1.9 release
    Molecular point group: c1

    Geometry (in Bohr), charge = -1, multiplicity = 1:

       Center              X                  Y                   Z               Mass
    ------------   -----------------  -----------------  -----------------  -----------------
         O            0.000000000000     0.000000000000     0.000000000000    15.994914619570
         H           -0.260315442960     1.784398460403     0.150291808484     1.007825032230
         H            1.734789370158    -0.069392633053    -1.001581302658     1.007825032230
         F            4.585210683823     0.000000000000     0.000000000000    18.998403162730

  Charge       = -1
  Multiplicity = 1
  Basis Set: AUG-CC-PVTZ
    Blend: AUG-CC-PVTZ
  Basis Set: (AUG-CC-PVTZ AUX)
    Blend: AUG-CC-PVTZ-JKFIT

    Orbital Energies [Eh]
    ---------------------

    Doubly Occupied:

       1A    -25.876312     2A    -20.331324     3A     -1.136214
       4A     -1.092591     5A     -0.458778     6A     -0.360720
       7A     -0.280058     8A     -0.230333     9A     -0.227904
      10A     -0.214412

  @DF-RHF Final Energy:  -175.52448655162081

   => Energetics <=

    Nuclear Repulsion Energy =             29.1734617908600740
    One-Electron Energy =                -308.9786000625128963
    Two-Electron Energy =                 104.2806517200320116
    Total Energy =                       -175.5244865516208108
 Dipole X            :        -46.1736215           42.7413701           -3.4322514
 Dipole Y            :         -1.1956898            1.7150058            0.5193160
 Dipole Z            :          0.6181635           -0.8512895           -0.2331260
 Magnitude           :                                                    3.4791359
  Basis Set: (AUG-CC-PVTZ AUX)
    Blend: AUG-CC-PVTZ-RI
	 Reference Energy          =    -175.5244865516208108 [Eh]
	 Singles Energy            =      -0.0000000000000000 [Eh]
	 Same-Spin Energy          =      -0.1536612297674959 [Eh]
	 Opposite-Spin Energy      =      -0.4465128014645717 [Eh]
	 Correlation Energy        =      -0.6001740312320676 [Eh]
	 Total Energy              =    -176.1246605828528686 [Eh]

	 ================> DF-SCS-MP2 Energies <==================
	-----------------------------------------------------------
	 SCS Same-Spin Scale       =       0.3333333333333333 [-]
	 SCS Opposite-Spin Scale   =       1.2000000000000000 [-]
	 SCS Same-Spin Energy      =      -0.0512204099224986 [Eh]
	 SCS Opposite-Spin Energy  =      -0.5358153617574860 [Eh]
	 SCS Correlation Energy    =      -0.5870357716799847 [Eh]
	 SCS Total Energy          =    -176.1115223233007896 [Eh]
	-----------------------------------------------------------

*** Psi4 exiting successfully. Buy a developer a beer!
