                               Psi4 1.9 release

  ==> Input File <==

--------------------------------------------------------------------------
MEMORY 60 GB

molecule dimer {
0 1
O      0.000000     0.000000     0.000000
H     -0.777074     0.334379     0.448644
H      0.486546     0.899651    -0.280908
--
-1 1
F      2.426389     0.000000     0.000000

units ang
no_reorient
no_com
symmetry c1
}

set {
basis        aug-cc-pVTZ
scf_type     df
}

energy("mp2", bsse_type="cp")
--------------------------------------------------------------------------

                               Psi4 1.9 release
    Molecular point group: c1
  Charge       = -1
  Multiplicity = 1
  Basis Set: AUG-CC-PVTZ
    Blend: AUG-CC-PVTZ
  Basis Set: (AUG-CC-PVTZ AUX)
    Blend: AUG-CC-PVTZ-JKFIT
  @DF-RHF Final Energy:   -99.45086849270015
    Total Energy =                        -99.4508684927001525
 Dipole X            :        -45.8524018           41.2668962           -4.5855056
 Dipole Y            :         -0.0000308            0.0000000           -0.0000308
 Dipole Z            :         -0.0000260            0.0000000           -0.0000260
 Magnitude           :                                                    4.5855056
  Basis Set: (AUG-CC-PVTZ AUX)
    Blend: AUG-CC-PVTZ-RI
	 Reference Energy          =     -99.4508684927001525 [Eh]
	 Singles Energy            =      -0.0000000000000000 [Eh]
	 Same-Spin Energy          =      -0.0816584693704900 [Eh]
	 Opposite-Spin Energy      =      -0.2269058391595602 [Eh]
	 Correlation Energy        =      -0.3085643085300501 [Eh]
	 Total Energy              =     -99.7594328012302043 [Eh]
	 SCS Total Energy          =     -99.7503749894817844 [Eh]
                               Psi4 1.9 release
    Molecular point group: c1
  Multiplicity = 1
  Basis Set: AUG-CC-PVTZ
    Blend: AUG-CC-PVTZ
  Basis Set: (AUG-CC-PVTZ AUX)
    Blend: AUG-CC-PVTZ-JKFIT
  @DF-RHF Final Energy:   -76.04859924017440
    Total Energy =                        -76.0485992401743971
  Basis Set: (AUG-CC-PVTZ AUX)
	 Singles Energy            =      -0.0000000000000000 [Eh]
	 Same-Spin Energy          =      -0.0692850658780262 [Eh]
	 Opposite-Spin Energy      =      -0.2183990812309284 [Eh]
	 Correlation Energy        =      -0.2876841471089546 [Eh]
	 Total Energy              =     -76.3362833872833448 [Eh]
	 SCS Total Energy          =     -76.3337731596108569 [Eh]
                               Psi4 1.9 release
    Molecular point group: c1

    Geometry (in Bohr), charge = -1, multiplicity = 1:

       Center              X                  Y                   Z               Mass
    ------------   -----------------  -----------------  -----------------  -----------------
         O            0.000000000000     0.000000000000     0.000000000000    15.994914619570
         H           -1.468457039214     0.631884732104     0.847814287830     1.007825032230
         H            0.919438687437     1.700093998494    -0.530839186450     1.007825032230
         F            4.585210683823     0.000000000000     0.000000000000    18.998403162730

  Charge       = -1
  Multiplicity = 1
  Basis Set: AUG-CC-PVTZ
    Blend: AUG-CC-PVTZ
  Basis Set: (AUG-CC-PVTZ AUX)
    Blend: AUG-CC-PVTZ-JKFIT

    Orbital Energies [Eh]
    ---------------------

    Doubly Occupied:

       1A    -25.831900     2A    -20.373645     3A     -1.131273
       4A     -1.078652     5A     -0.481377     6A     -0.375944
       7A     -0.305699     8A     -0.182972     9A     -0.182480
      10A     -0.179967

  @DF-RHF Final Energy:  -175.48879254631774

   => Energetics <=

    Nuclear Repulsion Energy =             28.1259720321896758
    One-Electron Energy =                -306.9817122315855045
    Two-Electron Energy =                 103.3669476530780855
    Total Energy =                       -175.4887925463177396
 Dipole X            :        -45.1772843           40.7178778           -4.4594065
 Dipole Y            :         -1.6314223            2.3319787            0.7005565
 Dipole Z            :         -0.1971538            0.3169751            0.1198213
 Magnitude           :                                                    4.5156886
  Basis Set: (AUG-CC-PVTZ AUX)
    Blend: AUG-CC-PVTZ-RI
	 Reference Energy          =    -175.4887925463177396 [Eh]
	 Singles Energy            =      -0.0000000000000000 [Eh]
	 Same-Spin Energy          =      -0.1531105103807881 [Eh]
	 Opposite-Spin Energy      =      -0.4476463122834641 [Eh]
	 Correlation Energy        =      -0.6007568226642521 [Eh]
	 Total Energy              =    -176.0895493689820057 [Eh]

	 ================> DF-SCS-MP2 Energies <==================
	-----------------------------------------------------------
	 SCS Same-Spin Scale       =       0.3333333333333333 [-]
	 SCS Opposite-Spin Scale   =       1.2000000000000000 [-]
	 SCS Same-Spin Energy      =      -0.0510368367935960 [Eh]
	 SCS Opposite-Spin Energy  =      -0.5371755747401569 [Eh]
	 SCS Correlation Energy    =      -0.5882124115337529 [Eh]
	 SCS Total Energy          =    -176.0770049578515000 [Eh]
	-----------------------------------------------------------

*** Psi4 exiting successfully. Buy a developer a beer!
