                               Psi4 1.9 release

  ==> Input File <==

--------------------------------------------------------------------------
MEMORY 60 GB

molecule dimer {
0 1
O      0.000000     0.000000     0.000000
H     -0.675646     0.555220     0.390085
H      0.671619     0.723587    -0.387759
--
-1 1
F      2.426389     0.000000     0.000000

units ang
no_reorient
no_com
symmetry c1
}

set {
basis        aug-cc-pVTZ
scf_type     df
}

energy("mp2", bsse_type="cp")
--------------------------------------------------------------------------

                               Psi4 1.9 release
    Molecular point group: c1
  Charge       = -1
  Multiplicity = 1
  Basis Set: AUG-CC-PVTZ
    Blend: AUG-CC-PVTZ
  Basis Set: (AUG-CC-PVTZ AUX)
    Blend: AUG-CC-PVTZ-JKFIT
  @DF-RHF Final Energy:   -99.45087430605567
    Total Energy =                        -99.4508743060556810
 Dipole X            :        -45.8525077           41.2668962           -4.5856116
 Dipole Y            :          0.0000198            0.0000000            0.0000198
 Dipole Z            :          0.0000900            0.0000000            0.0000900
 Magnitude           :                                                    4.5856116
  Basis Set: (AUG-CC-PVTZ AUX)
    Blend: AUG-CC-PVTZ-RI
	 Reference Energy          =     -99.4508743060556668 [Eh]
	 Singles Energy            =      -0.0000000000000000 [Eh]
	 Same-Spin Energy          =      -0.0816754926290429 [Eh]
	 Opposite-Spin Energy      =      -0.2270850385648538 [Eh]
	 Correlation Energy        =      -0.3087605311938967 [Eh]
	 Total Energy              =     -99.7596348372495640 [Eh]
	 SCS Total Energy          =     -99.7506015165431705 [Eh]
                               Psi4 1.9 release
    Molecular point group: c1
  Multiplicity = 1
  Basis Set: AUG-CC-PVTZ
    Blend: AUG-CC-PVTZ
  Basis Set: (AUG-CC-PVTZ AUX)
    Blend: AUG-CC-PVTZ-JKFIT
  @DF-RHF Final Energy:   -76.04860037488525
    Total Energy =                        -76.0486003748852539
  Basis Set: (AUG-CC-PVTZ AUX)
	 Singles Energy            =      -0.0000000000000000 [Eh]
	 Same-Spin Energy          =      -0.0692878578224070 [Eh]
	 Opposite-Spin Energy      =      -0.2184323283202868 [Eh]
	 Correlation Energy        =      -0.2877201861426938 [Eh]
	 Total Energy              =     -76.3363205610279465 [Eh]
	 SCS Total Energy          =     -76.3338151214770733 [Eh]
                               Psi4 1.9 release
    Molecular point group: c1

    Geometry (in Bohr), charge = -1, multiplicity = 1:

       Center              X                  Y                   Z               Mass
    ------------   -----------------  -----------------  -----------------  -----------------
         O            0.000000000000     0.000000000000     0.000000000000    15.994914619570
         H           -1.276785897761     1.049213739377     0.737153815649     1.007825032230
         H            1.269175970654     1.367381257942    -0.732758312681     1.007825032230
         F            4.585210683823     0.000000000000     0.000000000000    18.998403162730

  Charge       = -1
  Multiplicity = 1
  Basis Set: AUG-CC-PVTZ
    Blend: AUG-CC-PVTZ
  Basis Set: (AUG-CC-PVTZ AUX)
    Blend: AUG-CC-PVTZ-JKFIT

    Orbital Energies [Eh]
    ---------------------

    Doubly Occupied:

       1A    -25.843968     2A    -20.362645     3A     -1.124586
       4A     -1.090447     5A     -0.474467     6A     -0.370481
       7A     -0.298507     8A     -0.195668     9A     -0.194873
      10A     -0.191587

  @DF-RHF Final Energy:  -175.49894110665389

   => Energetics <=

    Nuclear Repulsion Energy =             28.4113596176002723
    One-Electron Energy =                -307.5261418524974601
    Two-Electron Energy =                 103.6158411282433178
    Total Energy =                       -175.4989411066538594
 Dipole X            :        -45.4472726           41.2592862           -4.1879864
 Dipole Y            :         -1.6866178            2.4165950            0.7299772
 Dipole Z            :          0.0211185            0.0043955            0.0255140
 Magnitude           :                                                    4.2512054
  Basis Set: (AUG-CC-PVTZ AUX)
    Blend: AUG-CC-PVTZ-RI
	 Reference Energy          =    -175.4989411066538878 [Eh]
	 Singles Energy            =      -0.0000000000000000 [Eh]
	 Same-Spin Energy          =      -0.1533790855370191 [Eh]
	 Opposite-Spin Energy      =      -0.4475136068825256 [Eh]
	 Correlation Energy        =      -0.6008926924195447 [Eh]
	 Total Energy              =    -176.0998337990734228 [Eh]

	 ================> DF-SCS-MP2 Energies <==================
	-----------------------------------------------------------
	 SCS Same-Spin Scale       =       0.3333333333333333 [-]
	 SCS Opposite-Spin Scale   =       1.2000000000000000 [-]
	 SCS Same-Spin Energy      =      -0.0511263618456730 [Eh]
	 SCS Opposite-Spin Energy  =      -0.5370163282590307 [Eh]
	 SCS Correlation Energy    =      -0.5881426901047037 [Eh]
	 SCS Total Energy          =    -176.0870837967586056 [Eh]
	-----------------------------------------------------------

*** Psi4 exiting successfully. Buy a developer a beer!
