                               Psi4 1.9 release

  ==> Input File <==

--------------------------------------------------------------------------
MEMORY 60 GB

molecule dimer {
0 1
O      0.000000     0.000000     0.000000
H      0.480835     0.780169    -0.277610
H      0.626645    -0.775519    -0.361794
--
-1 1
F      2.426389     0.000000     0.000000

units ang
no_reorient
no_com
symmetry c1
}

set {
basis        aug-cc-pVTZ
scf_type     df
}

energy("mp2", bsse_type="cp")
--------------------------------------------------------------------------

                               Psi4 1.9 release
    Molecular point group: c1
  Charge       = -1
  Multiplicity = 1
  Basis Set: AUG-CC-PVTZ
    Blend: AUG-CC-PVTZ
  Basis Set: (AUG-CC-PVTZ AUX)
    Blend: AUG-CC-PVTZ-JKFIT
  @DF-RHF Final Energy:   -99.45088779465847
    Total Energy =                        -99.4508877946584704
 Dipole X            :        -45.8530485           41.2668962           -4.5861523
 Dipole Y            :          0.0000538            0.0000000            0.0000538
 Dipole Z            :         -0.0000604            0.0000000           -0.0000604
 Magnitude           :                                                    4.5861523
  Basis Set: (AUG-CC-PVTZ AUX)
    Blend: AUG-CC-PVTZ-RI
	 Reference Energy          =     -99.4508877946584704 [Eh]
	 Singles Energy            =      -0.0000000000000000 [Eh]
	 Same-Spin Energy          =      -0.0816956713321524 [Eh]
	 Opposite-Spin Energy      =      -0.2271714187837198 [Eh]
	 Correlation Energy        =      -0.3088670901158722 [Eh]
	 Total Energy              =     -99.7597548847743383 [Eh]
	 SCS Total Energy          =     -99.7507253876429871 [Eh]
                               Psi4 1.9 release
    Molecular point group: c1
  Multiplicity = 1
  Basis Set: AUG-CC-PVTZ
    Blend: AUG-CC-PVTZ
  Basis Set: (AUG-CC-PVTZ AUX)
    Blend: AUG-CC-PVTZ-JKFIT
  @DF-RHF Final Energy:   -76.04859716266643
    Total Energy =                        -76.0485971626664252
  Basis Set: (AUG-CC-PVTZ AUX)
	 Singles Energy            =      -0.0000000000000000 [Eh]
	 Same-Spin Energy          =      -0.0692889400871846 [Eh]
	 Opposite-Spin Energy      =      -0.2184172358071464 [Eh]
	 Correlation Energy        =      -0.2877061758943310 [Eh]
	 Total Energy              =     -76.3363033385607537 [Eh]
	 SCS Total Energy          =     -76.3337941589973923 [Eh]
                               Psi4 1.9 release
    Molecular point group: c1

    Geometry (in Bohr), charge = -1, multiplicity = 1:

       Center              X                  Y                   Z               Mass
    ------------   -----------------  -----------------  -----------------  -----------------
         O            0.000000000000     0.000000000000     0.000000000000    15.994914619570
         H            0.908646461535     1.474305741572    -0.524606869688     1.007825032230
         H            1.184187427888    -1.465518515089    -0.683691573834     1.007825032230
         F            4.585210683823     0.000000000000     0.000000000000    18.998403162730

  Charge       = -1
  Multiplicity = 1
  Basis Set: AUG-CC-PVTZ
    Blend: AUG-CC-PVTZ
  Basis Set: (AUG-CC-PVTZ AUX)
    Blend: AUG-CC-PVTZ-JKFIT

    Orbital Energies [Eh]
    ---------------------

    Doubly Occupied:

       1A    -25.860327     2A    -20.343810     3A     -1.121844
       4A     -1.094578     5A     -0.463031     6A     -0.367123
       7A     -0.287482     8A     -0.213576     9A     -0.212533
      10A     -0.204338

  @DF-RHF Final Energy:  -175.51499863484449

   => Energetics <=

    Nuclear Repulsion Energy =             29.0954036490133703
    One-Electron Energy =                -308.8835216007153690
    Two-Electron Energy =                 104.2731193168575317
    Total Energy =                       -175.5149986348444884
 Dipole X            :        -46.8064184           43.3597300           -3.4466884
 Dipole Y            :          0.0001272            0.0087872            0.0089145
 Dipole Z            :          0.8558012           -1.2082984           -0.3524972
 Magnitude           :                                                    3.4646781
  Basis Set: (AUG-CC-PVTZ AUX)
    Blend: AUG-CC-PVTZ-RI
	 Reference Energy          =    -175.5149986348444884 [Eh]
	 Singles Energy            =      -0.0000000000000000 [Eh]
	 Same-Spin Energy          =      -0.1526859168830683 [Eh]
	 Opposite-Spin Energy      =      -0.4457216859466479 [Eh]
	 Correlation Energy        =      -0.5984076028297163 [Eh]
	 Total Energy              =    -176.1134062376742122 [Eh]

	 ================> DF-SCS-MP2 Energies <==================
	-----------------------------------------------------------
	 SCS Same-Spin Scale       =       0.3333333333333333 [-]
	 SCS Opposite-Spin Scale   =       1.2000000000000000 [-]
	 SCS Same-Spin Energy      =      -0.0508953056276894 [Eh]
	 SCS Opposite-Spin Energy  =      -0.5348660231359774 [Eh]
	 SCS Correlation Energy    =      -0.5857613287636668 [Eh]
	 SCS Total Energy          =    -176.1007599636081693 [Eh]
	-----------------------------------------------------------

*** Psi4 exiting successfully. Buy a developer a beer!
