                               Psi4 1.9 release

  ==> Input File <==

--------------------------------------------------------------------------
MEMORY 60 GB

molecule dimer {
0 1
O      0.000000     0.000000     0.000000
H      0.639321     0.609884    -0.369112
H      0.431465    -0.936372    -0.249106
--
-1 1
F      2.426389     0.000000     0.000000

units ang
no_reorient
no_com
symmetry c1
}

set {
basis        aug-cc-pVTZ
scf_type     df
}

energy("mp2", bsse_type="cp")
--------------------------------------------------------------------------

                               Psi4 1.9 release
    Molecular point group: c1
  Charge       = -1
  Multiplicity = 1
  Basis Set: AUG-CC-PVTZ
    Blend: AUG-CC-PVTZ
  Basis Set: (AUG-CC-PVTZ AUX)
    Blend: AUG-CC-PVTZ-JKFIT
  @DF-RHF Final Energy:   -99.45088547034891
    Total Energy =                        -99.4508854703489078
 Dipole X            :        -45.8530556           41.2668962           -4.5861595
 Dipole Y            :         -0.0002360            0.0000000           -0.0002360
 Dipole Z            :          0.0000426            0.0000000            0.0000426
 Magnitude           :                                                    4.5861595
  Basis Set: (AUG-CC-PVTZ AUX)
    Blend: AUG-CC-PVTZ-RI
	 Reference Energy          =     -99.4508854703489078 [Eh]
	 Singles Energy            =      -0.0000000000000000 [Eh]
	 Same-Spin Energy          =      -0.0816954448091313 [Eh]
	 Opposite-Spin Energy      =      -0.2272154132036690 [Eh]
	 Correlation Energy        =      -0.3089108580128003 [Eh]
	 Total Energy              =     -99.7597963283617020 [Eh]
	 SCS Total Energy          =     -99.7507757811296898 [Eh]
                               Psi4 1.9 release
    Molecular point group: c1
  Multiplicity = 1
  Basis Set: AUG-CC-PVTZ
    Blend: AUG-CC-PVTZ
  Basis Set: (AUG-CC-PVTZ AUX)
    Blend: AUG-CC-PVTZ-JKFIT
  @DF-RHF Final Energy:   -76.04860055905559
    Total Energy =                        -76.0486005590555862
  Basis Set: (AUG-CC-PVTZ AUX)
	 Singles Energy            =      -0.0000000000000000 [Eh]
	 Same-Spin Energy          =      -0.0692906672508457 [Eh]
	 Opposite-Spin Energy      =      -0.2184259659325959 [Eh]
	 Correlation Energy        =      -0.2877166331834416 [Eh]
	 Total Energy              =     -76.3363171922390222 [Eh]
	 SCS Total Energy          =     -76.3338086072583195 [Eh]
                               Psi4 1.9 release
    Molecular point group: c1

    Geometry (in Bohr), charge = -1, multiplicity = 1:

       Center              X                  Y                   Z               Mass
    ------------   -----------------  -----------------  -----------------  -----------------
         O            0.000000000000     0.000000000000     0.000000000000    15.994914619570
         H            1.208141596254     1.152513728299    -0.697520589620     1.007825032230
         H            0.815350682721    -1.769486631547    -0.470742116208     1.007825032230
         F            4.585210683823     0.000000000000     0.000000000000    18.998403162730

  Charge       = -1
  Multiplicity = 1
  Basis Set: AUG-CC-PVTZ
    Blend: AUG-CC-PVTZ
  Basis Set: (AUG-CC-PVTZ AUX)
    Blend: AUG-CC-PVTZ-JKFIT

    Orbital Energies [Eh]
    ---------------------

    Doubly Occupied:

       1A    -25.859465     2A    -20.345883     3A     -1.122096
       4A     -1.094694     5A     -0.464652     6A     -0.367347
       7A     -0.288976     8A     -0.212807     9A     -0.211985
      10A     -0.204488

  @DF-RHF Final Energy:  -175.51483890346509

   => Energetics <=

    Nuclear Repulsion Energy =             29.0759518831942145
    One-Electron Energy =                -308.8367945172041686
    Two-Electron Energy =                 104.2460037305448708
    Total Energy =                       -175.5148389034650904
 Dipole X            :        -46.7684562           43.2903884           -3.4780678
 Dipole Y            :          0.4392024           -0.6169729           -0.1777705
 Dipole Z            :          0.8300335           -1.1682627           -0.3382292
 Magnitude           :                                                    3.4989937
  Basis Set: (AUG-CC-PVTZ AUX)
    Blend: AUG-CC-PVTZ-RI
	 Reference Energy          =    -175.5148389034650904 [Eh]
	 Singles Energy            =      -0.0000000000000000 [Eh]
	 Same-Spin Energy          =      -0.1525516582363466 [Eh]
	 Opposite-Spin Energy      =      -0.4457188222192681 [Eh]
	 Correlation Energy        =      -0.5982704804556147 [Eh]
	 Total Energy              =    -176.1131093839207153 [Eh]

	 ================> DF-SCS-MP2 Energies <==================
	-----------------------------------------------------------
	 SCS Same-Spin Scale       =       0.3333333333333333 [-]
	 SCS Opposite-Spin Scale   =       1.2000000000000000 [-]
	 SCS Same-Spin Energy      =      -0.0508505527454488 [Eh]
	 SCS Opposite-Spin Energy  =      -0.5348625866631217 [Eh]
	 SCS Correlation Energy    =      -0.5857131394085705 [Eh]
	 SCS Total Energy          =    -176.1005520428736588 [Eh]
	-----------------------------------------------------------

*** Psi4 exiting successfully. Buy a developer a beer!
