                               Psi4 1.9 release

  ==> Input File <==

--------------------------------------------------------------------------
MEMORY 60 GB

molecule dimer {
0 1
O      0.000000     0.000000     0.000000
H     -0.528175     0.738224     0.304942
H      0.810922     0.498213    -0.468186
--
-1 1
F      2.426389     0.000000     0.000000

units ang
no_reorient
no_com
symmetry c1
}

set {
basis        aug-cc-pVTZ
scf_type     df
}

energy("mp2", bsse_type="cp")
--------------------------------------------------------------------------

                               Psi4 1.9 release
    Molecular point group: c1
  Charge       = -1
  Multiplicity = 1
  Basis Set: AUG-CC-PVTZ
    Blend: AUG-CC-PVTZ
  Basis Set: (AUG-CC-PVTZ AUX)
    Blend: AUG-CC-PVTZ-JKFIT
  @DF-RHF Final Energy:   -99.45087968340997
    Total Energy =                        -99.4508796834099655
 Dipole X            :        -45.8525889           41.2668962           -4.5856927
 Dipole Y            :         -0.0000301            0.0000000           -0.0000301
 Dipole Z            :          0.0002087            0.0000000            0.0002087
 Magnitude           :                                                    4.5856927
  Basis Set: (AUG-CC-PVTZ AUX)
    Blend: AUG-CC-PVTZ-RI
	 Reference Energy          =     -99.4508796834099655 [Eh]
	 Singles Energy            =      -0.0000000000000000 [Eh]
	 Same-Spin Energy          =      -0.0816931540667693 [Eh]
	 Opposite-Spin Energy      =      -0.2273273121441119 [Eh]
	 Correlation Energy        =      -0.3090204662108812 [Eh]
	 Total Energy              =     -99.7599001496208473 [Eh]
	 SCS Total Energy          =     -99.7509035093384853 [Eh]
                               Psi4 1.9 release
    Molecular point group: c1
  Multiplicity = 1
  Basis Set: AUG-CC-PVTZ
    Blend: AUG-CC-PVTZ
  Basis Set: (AUG-CC-PVTZ AUX)
    Blend: AUG-CC-PVTZ-JKFIT
  @DF-RHF Final Energy:   -76.04860418760514
    Total Energy =                        -76.0486041876051502
  Basis Set: (AUG-CC-PVTZ AUX)
	 Singles Energy            =      -0.0000000000000000 [Eh]
	 Same-Spin Energy          =      -0.0692929721461456 [Eh]
	 Opposite-Spin Energy      =      -0.2184702780461076 [Eh]
	 Correlation Energy        =      -0.2877632501922531 [Eh]
	 Total Energy              =     -76.3363674377973922 [Eh]
	 SCS Total Energy          =     -76.3338661786425092 [Eh]
                               Psi4 1.9 release
    Molecular point group: c1

    Geometry (in Bohr), charge = -1, multiplicity = 1:

       Center              X                  Y                   Z               Mass
    ------------   -----------------  -----------------  -----------------  -----------------
         O            0.000000000000     0.000000000000     0.000000000000    15.994914619570
         H           -0.998106096314     1.395041179240     0.576256864149     1.007825032230
         H            1.532420489109     0.941486122143    -0.884743315774     1.007825032230
         F            4.585210683823     0.000000000000     0.000000000000    18.998403162730

  Charge       = -1
  Multiplicity = 1
  Basis Set: AUG-CC-PVTZ
    Blend: AUG-CC-PVTZ
  Basis Set: (AUG-CC-PVTZ AUX)
    Blend: AUG-CC-PVTZ-JKFIT

    Orbital Energies [Eh]
    ---------------------

    Doubly Occupied:

       1A    -25.858177     2A    -20.349402     3A     -1.122270
       4A     -1.099122     5A     -0.467494     6A     -0.364643
       7A     -0.290214     8A     -0.210732     9A     -0.209488
      10A     -0.203414

  @DF-RHF Final Energy:  -175.51017412854398

   => Energetics <=

    Nuclear Repulsion Energy =             28.7242318940216634
    One-Electron Energy =                -308.1188991612843324
    Two-Electron Energy =                 103.8844931387186961
    Total Energy =                       -175.5101741285439516
 Dipole X            :        -45.6888359           41.8012105           -3.8876254
 Dipole Y            :         -1.6310524            2.3365273            0.7054749
 Dipole Z            :          0.2398653           -0.3084865           -0.0686211
 Magnitude           :                                                    3.9517129
  Basis Set: (AUG-CC-PVTZ AUX)
    Blend: AUG-CC-PVTZ-RI
	 Reference Energy          =    -175.5101741285439800 [Eh]
	 Singles Energy            =      -0.0000000000000000 [Eh]
	 Same-Spin Energy          =      -0.1536541465248424 [Eh]
	 Opposite-Spin Energy      =      -0.4472884813708686 [Eh]
	 Correlation Energy        =      -0.6009426278957110 [Eh]
	 Total Energy              =    -176.1111167564396851 [Eh]

	 ================> DF-SCS-MP2 Energies <==================
	-----------------------------------------------------------
	 SCS Same-Spin Scale       =       0.3333333333333333 [-]
	 SCS Opposite-Spin Scale   =       1.2000000000000000 [-]
	 SCS Same-Spin Energy      =      -0.0512180488416141 [Eh]
	 SCS Opposite-Spin Energy  =      -0.5367461776450423 [Eh]
	 SCS Correlation Energy    =      -0.5879642264866564 [Eh]
	 SCS Total Energy          =    -176.0981383550306418 [Eh]
	-----------------------------------------------------------

*** Psi4 exiting successfully. Buy a developer a beer!
