                               Psi4 1.9 release

  ==> Input File <==

--------------------------------------------------------------------------
MEMORY 60 GB

molecule dimer {
0 1
O      0.000000     0.000000     0.000000
H      0.152206     0.941808    -0.087876
H      0.796212    -0.362740    -0.459693
--
-1 1
Cl     3.070352     0.000000     0.000000

units ang
no_reorient
no_com
symmetry c1
}

set {
basis        aug-cc-pVTZ
scf_type     df
}

energy("mp2", bsse_type="cp")
--------------------------------------------------------------------------

                               Psi4 1.9 release
    Molecular point group: c1
  Charge       = -1
  Multiplicity = 1
  Basis Set: AUG-CC-PVTZ
    Blend: AUG-CC-PVTZ
  Basis Set: (AUG-CC-PVTZ AUX)
    Blend: AUG-CC-PVTZ-JKFIT
  @DF-RHF Final Energy:  -459.57350203208449
    Total Energy =                       -459.5735020320844910
 Dipole X            :       -104.4384796           98.6361146           -5.8023650
 Dipole Y            :         -0.0000307            0.0000000           -0.0000307
 Dipole Z            :          0.0001380            0.0000000            0.0001380
 Magnitude           :                                                    5.8023650
  Basis Set: (AUG-CC-PVTZ AUX)
    Blend: AUG-CC-PVTZ-RI
	 Reference Energy          =    -459.5735020320844910 [Eh]
	 Singles Energy            =      -0.0000000000000000 [Eh]
	 Same-Spin Energy          =      -0.0625308653258006 [Eh]
	 Opposite-Spin Energy      =      -0.1797588192976805 [Eh]
	 Correlation Energy        =      -0.2422896846234810 [Eh]
	 Total Energy              =    -459.8157917167079631 [Eh]
	 SCS Total Energy          =    -459.8100562370169655 [Eh]
                               Psi4 1.9 release
    Molecular point group: c1
  Multiplicity = 1
  Basis Set: AUG-CC-PVTZ
    Blend: AUG-CC-PVTZ
  Basis Set: (AUG-CC-PVTZ AUX)
    Blend: AUG-CC-PVTZ-JKFIT
  @DF-RHF Final Energy:   -76.05823370437709
    Total Energy =                        -76.0582337043771020
  Basis Set: (AUG-CC-PVTZ AUX)
	 Singles Energy            =      -0.0000000000000000 [Eh]
	 Same-Spin Energy          =      -0.0687178475434736 [Eh]
	 Opposite-Spin Energy      =      -0.2164441236048678 [Eh]
	 Correlation Energy        =      -0.2851619711483414 [Eh]
	 Total Energy              =     -76.3433956755254286 [Eh]
	 SCS Total Energy          =     -76.3408726018840866 [Eh]
                               Psi4 1.9 release
    Molecular point group: c1

    Geometry (in Bohr), charge = -1, multiplicity = 1:

       Center              X                  Y                   Z               Mass
    ------------   -----------------  -----------------  -----------------  -----------------
         O            0.000000000000     0.000000000000     0.000000000000    15.994914619570
         H            0.287627654651     1.779759182765    -0.166061573001     1.007825032230
         H            1.504622617803    -0.685479254749    -0.868693871790     1.007825032230
         CL           5.802124388752     0.000000000000     0.000000000000    34.968852682000

  Charge       = -1
  Multiplicity = 1
  Basis Set: AUG-CC-PVTZ
    Blend: AUG-CC-PVTZ
  Basis Set: (AUG-CC-PVTZ AUX)
    Blend: AUG-CC-PVTZ-JKFIT

    Orbital Energies [Eh]
    ---------------------

    Doubly Occupied:

       1A   -104.522869     2A    -20.384868     3A    -10.247216
       4A     -7.713295     5A     -7.713255     6A     -7.713219
       7A     -1.165784     8A     -0.755645     9A     -0.521575
      10A     -0.413313    11A     -0.330019    12A     -0.172416
      13A     -0.170371    14A     -0.168576

  @DF-RHF Final Energy:  -535.64413615370574

   => Energetics <=

    Nuclear Repulsion Energy =             39.2574879025297960
    One-Electron Energy =                -825.8184050602108073
    Two-Electron Energy =                 250.9167810039752453
    Total Energy =                       -535.6441361537058583
 Dipole X            :       -105.2415593          100.4283649           -4.8131945
 Dipole Y            :         -0.7395256            1.0942799            0.3547543
 Dipole Z            :          0.7716925           -1.0347554           -0.2630630
 Magnitude           :                                                    4.8334143
  Basis Set: (AUG-CC-PVTZ AUX)
    Blend: AUG-CC-PVTZ-RI
	 Reference Energy          =    -535.6441361537057446 [Eh]
	 Singles Energy            =      -0.0000000000000000 [Eh]
	 Same-Spin Energy          =      -0.1335069237504067 [Eh]
	 Opposite-Spin Energy      =      -0.3977747735179106 [Eh]
	 Correlation Energy        =      -0.5312816972683173 [Eh]
	 Total Energy              =    -536.1754178509740996 [Eh]

	 ================> DF-SCS-MP2 Energies <==================
	-----------------------------------------------------------
	 SCS Same-Spin Scale       =       0.3333333333333333 [-]
	 SCS Opposite-Spin Scale   =       1.2000000000000000 [-]
	 SCS Same-Spin Energy      =      -0.0445023079168022 [Eh]
	 SCS Opposite-Spin Energy  =      -0.4773297282214927 [Eh]
	 SCS Correlation Energy    =      -0.5218320361382949 [Eh]
	 SCS Total Energy          =    -536.1659681898440795 [Eh]
	-----------------------------------------------------------

*** Psi4 exiting successfully. Buy a developer a beer!
