                               Psi4 1.9 release

  ==> Input File <==

--------------------------------------------------------------------------
MEMORY 60 GB

molecule dimer {
0 1
O      0.000000     0.000000     0.000000
H      0.539629     0.727754    -0.311555
H      0.532469    -0.773835    -0.307421
--
-1 1
Cl     3.070352     0.000000     0.000000

units ang
no_reorient
no_com
symmetry c1
}

set {
basis        aug-cc-pVTZ
scf_type     df
}

energy("mp2", bsse_type="cp")
--------------------------------------------------------------------------

                               Psi4 1.9 release
    Molecular point group: c1
  Charge       = -1
  Multiplicity = 1
  Basis Set: AUG-CC-PVTZ
    Blend: AUG-CC-PVTZ
  Basis Set: (AUG-CC-PVTZ AUX)
    Blend: AUG-CC-PVTZ-JKFIT
  @DF-RHF Final Energy:  -459.57349809633735
    Total Energy =                       -459.5734980963373459
 Dipole X            :       -104.4381223           98.6361146           -5.8020077
 Dipole Y            :          0.0000100            0.0000000            0.0000100
 Dipole Z            :          0.0001862            0.0000000            0.0001862
 Magnitude           :                                                    5.8020077
  Basis Set: (AUG-CC-PVTZ AUX)
    Blend: AUG-CC-PVTZ-RI
	 Reference Energy          =    -459.5734980963373459 [Eh]
	 Singles Energy            =      -0.0000000000000000 [Eh]
	 Same-Spin Energy          =      -0.0624994929710431 [Eh]
	 Opposite-Spin Energy      =      -0.1795880464460910 [Eh]
	 Correlation Energy        =      -0.2420875394171342 [Eh]
	 Total Energy              =    -459.8155856357544735 [Eh]
	 SCS Total Energy          =    -459.8098369163963639 [Eh]
                               Psi4 1.9 release
    Molecular point group: c1
  Multiplicity = 1
  Basis Set: AUG-CC-PVTZ
    Blend: AUG-CC-PVTZ
  Basis Set: (AUG-CC-PVTZ AUX)
    Blend: AUG-CC-PVTZ-JKFIT
  @DF-RHF Final Energy:   -76.05822252480212
    Total Energy =                        -76.0582225248021189
  Basis Set: (AUG-CC-PVTZ AUX)
	 Singles Energy            =      -0.0000000000000000 [Eh]
	 Same-Spin Energy          =      -0.0687105182781484 [Eh]
	 Opposite-Spin Energy      =      -0.2163614157744238 [Eh]
	 Correlation Energy        =      -0.2850719340525721 [Eh]
	 Total Energy              =     -76.3432944588546860 [Eh]
	 SCS Total Energy          =     -76.3407597298241427 [Eh]
                               Psi4 1.9 release
    Molecular point group: c1

    Geometry (in Bohr), charge = -1, multiplicity = 1:

       Center              X                  Y                   Z               Mass
    ------------   -----------------  -----------------  -----------------  -----------------
         O            0.000000000000     0.000000000000     0.000000000000    15.994914619570
         H            1.019751019355     1.375255746706    -0.588753623017     1.007825032230
         H            1.006220580296    -1.462336216294    -0.580941495214     1.007825032230
         CL           5.802124388752     0.000000000000     0.000000000000    34.968852682000

  Charge       = -1
  Multiplicity = 1
  Basis Set: AUG-CC-PVTZ
    Blend: AUG-CC-PVTZ
  Basis Set: (AUG-CC-PVTZ AUX)
    Blend: AUG-CC-PVTZ-JKFIT

    Orbital Energies [Eh]
    ---------------------

    Doubly Occupied:

       1A   -104.521344     2A    -20.387579     3A    -10.245641
       4A     -7.711701     5A     -7.711694     6A     -7.711647
       7A     -1.167375     8A     -0.753324     9A     -0.523395
      10A     -0.415436    11A     -0.332202    12A     -0.169665
      13A     -0.169296    14A     -0.167077

  @DF-RHF Final Energy:  -535.64331003583163

   => Energetics <=

    Nuclear Repulsion Energy =             39.2547438916098912
    One-Electron Energy =                -825.8213533337270746
    Two-Electron Energy =                 250.9232994062855937
    Total Energy =                       -535.6433100358315187
 Dipole X            :       -105.4547320          100.6620862           -4.7926458
 Dipole Y            :          0.0632533           -0.0870805           -0.0238271
 Dipole Z            :          0.8519112           -1.1696951           -0.3177839
 Magnitude           :                                                    4.8032289
  Basis Set: (AUG-CC-PVTZ AUX)
    Blend: AUG-CC-PVTZ-RI
	 Reference Energy          =    -535.6433100358316324 [Eh]
	 Singles Energy            =      -0.0000000000000000 [Eh]
	 Same-Spin Energy          =      -0.1331581528485501 [Eh]
	 Opposite-Spin Energy      =      -0.3972869214921954 [Eh]
	 Correlation Energy        =      -0.5304450743407455 [Eh]
	 Total Energy              =    -536.1737551101723511 [Eh]

	 ================> DF-SCS-MP2 Energies <==================
	-----------------------------------------------------------
	 SCS Same-Spin Scale       =       0.3333333333333333 [-]
	 SCS Opposite-Spin Scale   =       1.2000000000000000 [-]
	 SCS Same-Spin Energy      =      -0.0443860509495167 [Eh]
	 SCS Opposite-Spin Energy  =      -0.4767443057906344 [Eh]
	 SCS Correlation Energy    =      -0.5211303567401512 [Eh]
	 SCS Total Energy          =    -536.1644403925718052 [Eh]
	-----------------------------------------------------------

*** Psi4 exiting successfully. Buy a developer a beer!
