                               Psi4 1.9 release

  ==> Input File <==

--------------------------------------------------------------------------
MEMORY 60 GB

molecule dimer {
0 1
O      0.000000     0.000000     0.000000
H     -0.064081     0.955205     0.036997
H      0.850388    -0.112425    -0.490971
--
-1 1
Cl     3.070352     0.000000     0.000000

units ang
no_reorient
no_com
symmetry c1
}

set {
basis        aug-cc-pVTZ
scf_type     df
}

energy("mp2", bsse_type="cp")
--------------------------------------------------------------------------

                               Psi4 1.9 release
    Molecular point group: c1
  Charge       = -1
  Multiplicity = 1
  Basis Set: AUG-CC-PVTZ
    Blend: AUG-CC-PVTZ
  Basis Set: (AUG-CC-PVTZ AUX)
    Blend: AUG-CC-PVTZ-JKFIT
  @DF-RHF Final Energy:  -459.57350273127798
    Total Energy =                       -459.5735027312780403
 Dipole X            :       -104.4385810           98.6361146           -5.8024664
 Dipole Y            :         -0.0000876            0.0000000           -0.0000876
 Dipole Z            :          0.0001000            0.0000000            0.0001000
 Magnitude           :                                                    5.8024664
  Basis Set: (AUG-CC-PVTZ AUX)
    Blend: AUG-CC-PVTZ-RI
	 Reference Energy          =    -459.5735027312779835 [Eh]
	 Singles Energy            =      -0.0000000000000000 [Eh]
	 Same-Spin Energy          =      -0.0625483862541489 [Eh]
	 Opposite-Spin Energy      =      -0.1798509231933554 [Eh]
	 Correlation Energy        =      -0.2423993094475043 [Eh]
	 Total Energy              =    -459.8159020407254616 [Eh]
	 SCS Total Energy          =    -459.8101733011947090 [Eh]
                               Psi4 1.9 release
    Molecular point group: c1
  Multiplicity = 1
  Basis Set: AUG-CC-PVTZ
    Blend: AUG-CC-PVTZ
  Basis Set: (AUG-CC-PVTZ AUX)
    Blend: AUG-CC-PVTZ-JKFIT
  @DF-RHF Final Energy:   -76.05824002690142
    Total Energy =                        -76.0582400269014300
  Basis Set: (AUG-CC-PVTZ AUX)
	 Singles Energy            =      -0.0000000000000000 [Eh]
	 Same-Spin Energy          =      -0.0687229434710417 [Eh]
	 Opposite-Spin Energy      =      -0.2165000182264808 [Eh]
	 Correlation Energy        =      -0.2852229616975225 [Eh]
	 Total Energy              =     -76.3434629885989438 [Eh]
	 SCS Total Energy          =     -76.3409476965968707 [Eh]
                               Psi4 1.9 release
    Molecular point group: c1

    Geometry (in Bohr), charge = -1, multiplicity = 1:

       Center              X                  Y                   Z               Mass
    ------------   -----------------  -----------------  -----------------  -----------------
         O            0.000000000000     0.000000000000     0.000000000000    15.994914619570
         H           -0.121095539845     1.805075843668     0.069914197464     1.007825032230
         H            1.607000420376    -0.212452459655    -0.927800725542     1.007825032230
         CL           5.802124388752     0.000000000000     0.000000000000    34.968852682000

  Charge       = -1
  Multiplicity = 1
  Basis Set: AUG-CC-PVTZ
    Blend: AUG-CC-PVTZ
  Basis Set: (AUG-CC-PVTZ AUX)
    Blend: AUG-CC-PVTZ-JKFIT

    Orbital Energies [Eh]
    ---------------------

    Doubly Occupied:

       1A   -104.522757     2A    -20.384679     3A    -10.247121
       4A     -7.713206     5A     -7.713156     6A     -7.713122
       7A     -1.165966     8A     -0.755966     9A     -0.521436
      10A     -0.412583    11A     -0.329736    12A     -0.172929
      13A     -0.170117    14A     -0.168464

  @DF-RHF Final Energy:  -535.64374081413246

   => Energetics <=

    Nuclear Repulsion Energy =             39.1912055954732494
    One-Electron Energy =                -825.6874191208632965
    Two-Electron Energy =                 250.8524727112576045
    Total Energy =                       -535.6437408141324568
 Dipole X            :       -105.0121412          100.1220195           -4.8901217
 Dipole Y            :         -1.0955831            1.5926234            0.4970403
 Dipole Z            :          0.6575648           -0.8578865           -0.2003217
 Magnitude           :                                                    4.9193971
  Basis Set: (AUG-CC-PVTZ AUX)
    Blend: AUG-CC-PVTZ-RI
	 Reference Energy          =    -535.6437408141324568 [Eh]
	 Singles Energy            =      -0.0000000000000000 [Eh]
	 Same-Spin Energy          =      -0.1337120568706265 [Eh]
	 Opposite-Spin Energy      =      -0.3981275468723515 [Eh]
	 Correlation Energy        =      -0.5318396037429780 [Eh]
	 Total Energy              =    -536.1755804178753806 [Eh]

	 ================> DF-SCS-MP2 Energies <==================
	-----------------------------------------------------------
	 SCS Same-Spin Scale       =       0.3333333333333333 [-]
	 SCS Opposite-Spin Scale   =       1.2000000000000000 [-]
	 SCS Same-Spin Energy      =      -0.0445706856235422 [Eh]
	 SCS Opposite-Spin Energy  =      -0.4777530562468217 [Eh]
	 SCS Correlation Energy    =      -0.5223237418703639 [Eh]
	 SCS Total Energy          =    -536.1660645560027660 [Eh]
	-----------------------------------------------------------

*** Psi4 exiting successfully. Buy a developer a beer!
