                               Psi4 1.9 release

  ==> Input File <==

--------------------------------------------------------------------------
MEMORY 60 GB

molecule dimer {
0 1
O      0.000000     0.000000     0.000000
H     -0.276001     0.903506     0.159349
H      0.846611     0.145551    -0.488791
--
-1 1
Cl     3.070352     0.000000     0.000000

units ang
no_reorient
no_com
symmetry c1
}

set {
basis        aug-cc-pVTZ
scf_type     df
}

energy("mp2", bsse_type="cp")
--------------------------------------------------------------------------

                               Psi4 1.9 release
    Molecular point group: c1
  Charge       = -1
  Multiplicity = 1
  Basis Set: AUG-CC-PVTZ
    Blend: AUG-CC-PVTZ
  Basis Set: (AUG-CC-PVTZ AUX)
    Blend: AUG-CC-PVTZ-JKFIT
  @DF-RHF Final Energy:  -459.57350255338019
    Total Energy =                       -459.5735025533801945
 Dipole X            :       -104.4385410           98.6361146           -5.8024264
 Dipole Y            :         -0.0001509            0.0000000           -0.0001509
 Dipole Z            :          0.0000309            0.0000000            0.0000309
 Magnitude           :                                                    5.8024264
  Basis Set: (AUG-CC-PVTZ AUX)
    Blend: AUG-CC-PVTZ-RI
	 Reference Energy          =    -459.5735025533801945 [Eh]
	 Singles Energy            =      -0.0000000000000000 [Eh]
	 Same-Spin Energy          =      -0.0625470091553761 [Eh]
	 Opposite-Spin Energy      =      -0.1798427868637319 [Eh]
	 Correlation Energy        =      -0.2423897960191081 [Eh]
	 Total Energy              =    -459.8158923493992916 [Eh]
	 SCS Total Energy          =    -459.8101629006684448 [Eh]
                               Psi4 1.9 release
    Molecular point group: c1
  Multiplicity = 1
  Basis Set: AUG-CC-PVTZ
    Blend: AUG-CC-PVTZ
  Basis Set: (AUG-CC-PVTZ AUX)
    Blend: AUG-CC-PVTZ-JKFIT
  @DF-RHF Final Energy:   -76.05823980417051
    Total Energy =                        -76.0582398041705261
  Basis Set: (AUG-CC-PVTZ AUX)
	 Singles Energy            =      -0.0000000000000000 [Eh]
	 Same-Spin Energy          =      -0.0687232122287070 [Eh]
	 Opposite-Spin Energy      =      -0.2164942101147783 [Eh]
	 Correlation Energy        =      -0.2852174223434853 [Eh]
	 Total Energy              =     -76.3434572265139906 [Eh]
	 SCS Total Energy          =     -76.3409405937178178 [Eh]
                               Psi4 1.9 release
    Molecular point group: c1

    Geometry (in Bohr), charge = -1, multiplicity = 1:

       Center              X                  Y                   Z               Mass
    ------------   -----------------  -----------------  -----------------  -----------------
         O            0.000000000000     0.000000000000     0.000000000000    15.994914619570
         H           -0.521566300352     1.707378892708     0.301125968366     1.007825032230
         H            1.599862924800     0.275051527287    -0.923681122589     1.007825032230
         CL           5.802124388752     0.000000000000     0.000000000000    34.968852682000

  Charge       = -1
  Multiplicity = 1
  Basis Set: AUG-CC-PVTZ
    Blend: AUG-CC-PVTZ
  Basis Set: (AUG-CC-PVTZ AUX)
    Blend: AUG-CC-PVTZ-JKFIT

    Orbital Energies [Eh]
    ---------------------

    Doubly Occupied:

       1A   -104.520543     2A    -20.387483     3A    -10.244870
       4A     -7.710958     5A     -7.710902     6A     -7.710869
       7A     -1.168414     8A     -0.753589     9A     -0.523258
      10A     -0.413612    11A     -0.331717    12A     -0.170835
      13A     -0.167667    14A     -0.166119

  @DF-RHF Final Energy:  -535.64159657563891

   => Energetics <=

    Nuclear Repulsion Energy =             39.0297877834781133
    One-Electron Energy =                -825.3811008343664071
    Two-Electron Energy =                 250.7097164752493939
    Total Energy =                       -535.6415965756389141
 Dipole X            :       -104.7571112           99.7144112           -5.0427000
 Dipole Y            :         -1.3844294            1.9824304            0.5980010
 Dipole Z            :          0.4963455           -0.6225552           -0.1262096
 Magnitude           :                                                    5.0796021
  Basis Set: (AUG-CC-PVTZ AUX)
    Blend: AUG-CC-PVTZ-RI
	 Reference Energy          =    -535.6415965756389141 [Eh]
	 Singles Energy            =      -0.0000000000000000 [Eh]
	 Same-Spin Energy          =      -0.1337605171446537 [Eh]
	 Opposite-Spin Energy      =      -0.3983015309960826 [Eh]
	 Correlation Energy        =      -0.5320620481407362 [Eh]
	 Total Energy              =    -536.1736586237796018 [Eh]

	 ================> DF-SCS-MP2 Energies <==================
	-----------------------------------------------------------
	 SCS Same-Spin Scale       =       0.3333333333333333 [-]
	 SCS Opposite-Spin Scale   =       1.2000000000000000 [-]
	 SCS Same-Spin Energy      =      -0.0445868390482179 [Eh]
	 SCS Opposite-Spin Energy  =      -0.4779618371952991 [Eh]
	 SCS Correlation Energy    =      -0.5225486762435170 [Eh]
	 SCS Total Energy          =    -536.1641452518824735 [Eh]
	-----------------------------------------------------------

*** Psi4 exiting successfully. Buy a developer a beer!
