                               Psi4 1.9 release

  ==> Input File <==

--------------------------------------------------------------------------
MEMORY 60 GB

molecule dimer {
0 1
O      0.000000     0.000000     0.000000
H      0.358120     0.864229    -0.206761
H      0.687776    -0.588334    -0.397088
--
-1 1
Cl     3.070352     0.000000     0.000000

units ang
no_reorient
no_com
symmetry c1
}

set {
basis        aug-cc-pVTZ
scf_type     df
}

energy("mp2", bsse_type="cp")
--------------------------------------------------------------------------

                               Psi4 1.9 release
    Molecular point group: c1
  Charge       = -1
  Multiplicity = 1
  Basis Set: AUG-CC-PVTZ
    Blend: AUG-CC-PVTZ
  Basis Set: (AUG-CC-PVTZ AUX)
    Blend: AUG-CC-PVTZ-JKFIT
  @DF-RHF Final Energy:  -459.57349954469265
    Total Energy =                       -459.5734995446926519
 Dipole X            :       -104.4382443           98.6361146           -5.8021297
 Dipole Y            :         -0.0000349            0.0000000           -0.0000349
 Dipole Z            :          0.0001646            0.0000000            0.0001646
 Magnitude           :                                                    5.8021297
  Basis Set: (AUG-CC-PVTZ AUX)
    Blend: AUG-CC-PVTZ-RI
	 Reference Energy          =    -459.5734995446926519 [Eh]
	 Singles Energy            =      -0.0000000000000000 [Eh]
	 Same-Spin Energy          =      -0.0625089962278410 [Eh]
	 Opposite-Spin Energy      =      -0.1796410870130988 [Eh]
	 Correlation Energy        =      -0.2421500832409399 [Eh]
	 Total Energy              =    -459.8156496279335670 [Eh]
	 SCS Total Energy          =    -459.8099051811843196 [Eh]
                               Psi4 1.9 release
    Molecular point group: c1
  Multiplicity = 1
  Basis Set: AUG-CC-PVTZ
    Blend: AUG-CC-PVTZ
  Basis Set: (AUG-CC-PVTZ AUX)
    Blend: AUG-CC-PVTZ-JKFIT
  @DF-RHF Final Energy:   -76.05822555223938
    Total Energy =                        -76.0582255522393780
  Basis Set: (AUG-CC-PVTZ AUX)
	 Singles Energy            =      -0.0000000000000000 [Eh]
	 Same-Spin Energy          =      -0.0687123626168059 [Eh]
	 Opposite-Spin Energy      =      -0.2163831329951608 [Eh]
	 Correlation Energy        =      -0.2850954956119667 [Eh]
	 Total Energy              =     -76.3433210478513473 [Eh]
	 SCS Total Energy          =     -76.3407894327058330 [Eh]
                               Psi4 1.9 release
    Molecular point group: c1

    Geometry (in Bohr), charge = -1, multiplicity = 1:

       Center              X                  Y                   Z               Mass
    ------------   -----------------  -----------------  -----------------  -----------------
         O            0.000000000000     0.000000000000     0.000000000000    15.994914619570
         H            0.676748720049     1.633156119678    -0.390721663426     1.007825032230
         H            1.299708275663    -1.111790130295    -0.750387567706     1.007825032230
         CL           5.802124388752     0.000000000000     0.000000000000    34.968852682000

  Charge       = -1
  Multiplicity = 1
  Basis Set: AUG-CC-PVTZ
    Blend: AUG-CC-PVTZ
  Basis Set: (AUG-CC-PVTZ AUX)
    Blend: AUG-CC-PVTZ-JKFIT

    Orbital Energies [Eh]
    ---------------------

    Doubly Occupied:

       1A   -104.521968     2A    -20.386470     3A    -10.246280
       4A     -7.712349     5A     -7.712326     6A     -7.712284
       7A     -1.166709     8A     -0.754182     9A     -0.522642
      10A     -0.414671    11A     -0.331330    12A     -0.170743
      13A     -0.169667    14A     -0.167670

  @DF-RHF Final Energy:  -535.64366898260653

   => Energetics <=

    Nuclear Repulsion Energy =             39.2646436709239808
    One-Electron Energy =                -825.8380435887022486
    Two-Electron Energy =                 250.9297309351716763
    Total Energy =                       -535.6436689826066413
 Dipole X            :       -105.4026878          100.6125716           -4.7901162
 Dipole Y            :         -0.3456232            0.5213660            0.1757428
 Dipole Z            :          0.8360112           -1.1411092           -0.3050980
 Magnitude           :                                                    4.8030389
  Basis Set: (AUG-CC-PVTZ AUX)
    Blend: AUG-CC-PVTZ-RI
	 Reference Energy          =    -535.6436689826065276 [Eh]
	 Singles Energy            =      -0.0000000000000000 [Eh]
	 Same-Spin Energy          =      -0.1332728576438242 [Eh]
	 Opposite-Spin Energy      =      -0.3974293256243129 [Eh]
	 Correlation Energy        =      -0.5307021832681370 [Eh]
	 Total Energy              =    -536.1743711658746179 [Eh]

	 ================> DF-SCS-MP2 Energies <==================
	-----------------------------------------------------------
	 SCS Same-Spin Scale       =       0.3333333333333333 [-]
	 SCS Opposite-Spin Scale   =       1.2000000000000000 [-]
	 SCS Same-Spin Energy      =      -0.0444242858812747 [Eh]
	 SCS Opposite-Spin Energy  =      -0.4769151907491754 [Eh]
	 SCS Correlation Energy    =      -0.5213394766304501 [Eh]
	 SCS Total Energy          =    -536.1650084592370149 [Eh]
	-----------------------------------------------------------

*** Psi4 exiting successfully. Buy a developer a beer!
