                               Psi4 1.9 release

  ==> Input File <==

--------------------------------------------------------------------------
MEMORY 60 GB

molecule dimer {
0 1
O      0.000000     0.000000     0.000000
H      0.684363     0.541683    -0.395117
H      0.340875    -0.906600    -0.196804
--
-1 1
Cl     3.070352     0.000000     0.000000

units ang
no_reorient
no_com
symmetry c1
}

set {
basis        aug-cc-pVTZ
scf_type     df
}

energy("mp2", bsse_type="cp")
--------------------------------------------------------------------------

                               Psi4 1.9 release
    Molecular point group: c1
  Charge       = -1
  Multiplicity = 1
  Basis Set: AUG-CC-PVTZ
    Blend: AUG-CC-PVTZ
  Basis Set: (AUG-CC-PVTZ AUX)
    Blend: AUG-CC-PVTZ-JKFIT
  @DF-RHF Final Energy:  -459.57349983366436
    Total Energy =                       -459.5734998336643571
 Dipole X            :       -104.4382746           98.6361146           -5.8021600
 Dipole Y            :          0.0000416            0.0000000            0.0000416
 Dipole Z            :          0.0001634            0.0000000            0.0001634
 Magnitude           :                                                    5.8021600
  Basis Set: (AUG-CC-PVTZ AUX)
    Blend: AUG-CC-PVTZ-RI
	 Reference Energy          =    -459.5734998336643571 [Eh]
	 Singles Energy            =      -0.0000000000000000 [Eh]
	 Same-Spin Energy          =      -0.0625101808092585 [Eh]
	 Opposite-Spin Energy      =      -0.1796464694381876 [Eh]
	 Correlation Energy        =      -0.2421566502474461 [Eh]
	 Total Energy              =    -459.8156564839118232 [Eh]
	 SCS Total Energy          =    -459.8099123239265964 [Eh]
                               Psi4 1.9 release
    Molecular point group: c1
  Multiplicity = 1
  Basis Set: AUG-CC-PVTZ
    Blend: AUG-CC-PVTZ
  Basis Set: (AUG-CC-PVTZ AUX)
    Blend: AUG-CC-PVTZ-JKFIT
  @DF-RHF Final Energy:   -76.05822735252927
    Total Energy =                        -76.0582273525292720
  Basis Set: (AUG-CC-PVTZ AUX)
	 Singles Energy            =      -0.0000000000000000 [Eh]
	 Same-Spin Energy          =      -0.0687134913855674 [Eh]
	 Opposite-Spin Energy      =      -0.2163896402025120 [Eh]
	 Correlation Energy        =      -0.2851031315880794 [Eh]
	 Total Energy              =     -76.3433304841173452 [Eh]
	 SCS Total Energy          =     -76.3407994179008114 [Eh]
                               Psi4 1.9 release
    Molecular point group: c1

    Geometry (in Bohr), charge = -1, multiplicity = 1:

       Center              X                  Y                   Z               Mass
    ------------   -----------------  -----------------  -----------------  -----------------
         O            0.000000000000     0.000000000000     0.000000000000    15.994914619570
         H            1.293258640397     1.023632516816    -0.746662917513     1.007825032230
         H            0.644160393015    -1.713225705340    -0.371905660395     1.007825032230
         CL           5.802124388752     0.000000000000     0.000000000000    34.968852682000

  Charge       = -1
  Multiplicity = 1
  Basis Set: AUG-CC-PVTZ
    Blend: AUG-CC-PVTZ
  Basis Set: (AUG-CC-PVTZ AUX)
    Blend: AUG-CC-PVTZ-JKFIT

    Orbital Energies [Eh]
    ---------------------

    Doubly Occupied:

       1A   -104.521532     2A    -20.387425     3A    -10.245843
       4A     -7.711911     5A     -7.711891     6A     -7.711849
       7A     -1.167245     8A     -0.753743     9A     -0.523319
      10A     -0.415143    11A     -0.332049    12A     -0.170434
      13A     -0.169220    14A     -0.167309

  @DF-RHF Final Energy:  -535.64342576174568

   => Energetics <=

    Nuclear Repulsion Energy =             39.2444054794617969
    One-Electron Energy =                -825.7978361487258780
    Two-Electron Energy =                 250.9100049075184984
    Total Energy =                       -535.6434257617456751
 Dipole X            :       -105.3827465          100.5735336           -4.8092129
 Dipole Y            :          0.4692234           -0.6895932           -0.2203698
 Dipole Z            :          0.8202981           -1.1185686           -0.2982705
 Magnitude           :                                                    4.8234901
  Basis Set: (AUG-CC-PVTZ AUX)
    Blend: AUG-CC-PVTZ-RI
	 Reference Energy          =    -535.6434257617456751 [Eh]
	 Singles Energy            =      -0.0000000000000000 [Eh]
	 Same-Spin Energy          =      -0.1332267665238675 [Eh]
	 Opposite-Spin Energy      =      -0.3974332995341528 [Eh]
	 Correlation Energy        =      -0.5306600660580203 [Eh]
	 Total Energy              =    -536.1740858278036512 [Eh]

	 ================> DF-SCS-MP2 Energies <==================
	-----------------------------------------------------------
	 SCS Same-Spin Scale       =       0.3333333333333333 [-]
	 SCS Opposite-Spin Scale   =       1.2000000000000000 [-]
	 SCS Same-Spin Energy      =      -0.0444089221746225 [Eh]
	 SCS Opposite-Spin Energy  =      -0.4769199594409833 [Eh]
	 SCS Correlation Energy    =      -0.5213288816156058 [Eh]
	 SCS Total Energy          =    -536.1647546433613343 [Eh]
	-----------------------------------------------------------

*** Psi4 exiting successfully. Buy a developer a beer!
