                               Psi4 1.9 release

  ==> Input File <==

--------------------------------------------------------------------------
MEMORY 60 GB

molecule dimer {
0 1
O      0.000000     0.000000     0.000000
H     -0.469111     0.790235     0.270842
H      0.785139     0.393609    -0.453300
--
-1 1
Cl     3.070352     0.000000     0.000000

units ang
no_reorient
no_com
symmetry c1
}

set {
basis        aug-cc-pVTZ
scf_type     df
}

energy("mp2", bsse_type="cp")
--------------------------------------------------------------------------

                               Psi4 1.9 release
    Molecular point group: c1
  Charge       = -1
  Multiplicity = 1
  Basis Set: AUG-CC-PVTZ
    Blend: AUG-CC-PVTZ
  Basis Set: (AUG-CC-PVTZ AUX)
    Blend: AUG-CC-PVTZ-JKFIT
  @DF-RHF Final Energy:  -459.57350112962189
    Total Energy =                       -459.5735011296218318
 Dipole X            :       -104.4384140           98.6361146           -5.8022994
 Dipole Y            :         -0.0001364            0.0000000           -0.0001364
 Dipole Z            :         -0.0000114            0.0000000           -0.0000114
 Magnitude           :                                                    5.8022994
  Basis Set: (AUG-CC-PVTZ AUX)
    Blend: AUG-CC-PVTZ-RI
	 Reference Energy          =    -459.5735011296218886 [Eh]
	 Singles Energy            =      -0.0000000000000000 [Eh]
	 Same-Spin Energy          =      -0.0625198696178642 [Eh]
	 Opposite-Spin Energy      =      -0.1797092734858112 [Eh]
	 Correlation Energy        =      -0.2422291431036754 [Eh]
	 Total Energy              =    -459.8157302727255455 [Eh]
	 SCS Total Energy          =    -459.8099922143441631 [Eh]
                               Psi4 1.9 release
    Molecular point group: c1
  Multiplicity = 1
  Basis Set: AUG-CC-PVTZ
    Blend: AUG-CC-PVTZ
  Basis Set: (AUG-CC-PVTZ AUX)
    Blend: AUG-CC-PVTZ-JKFIT
  @DF-RHF Final Energy:   -76.05823285799711
    Total Energy =                        -76.0582328579970977
  Basis Set: (AUG-CC-PVTZ AUX)
	 Singles Energy            =      -0.0000000000000000 [Eh]
	 Same-Spin Energy          =      -0.0687180818009799 [Eh]
	 Opposite-Spin Energy      =      -0.2164345022050562 [Eh]
	 Correlation Energy        =      -0.2851525840060361 [Eh]
	 Total Energy              =     -76.3433854420031537 [Eh]
	 SCS Total Energy          =     -76.3408602879101750 [Eh]
                               Psi4 1.9 release
    Molecular point group: c1

    Geometry (in Bohr), charge = -1, multiplicity = 1:

       Center              X                  Y                   Z               Mass
    ------------   -----------------  -----------------  -----------------  -----------------
         O            0.000000000000     0.000000000000     0.000000000000    15.994914619570
         H           -0.886491312440     1.493327724751     0.511817203271     1.007825032230
         H            1.483697680416     0.743813210515    -0.856612852670     1.007825032230
         CL           5.802124388752     0.000000000000     0.000000000000    34.968852682000

  Charge       = -1
  Multiplicity = 1
  Basis Set: AUG-CC-PVTZ
    Blend: AUG-CC-PVTZ
  Basis Set: (AUG-CC-PVTZ AUX)
    Blend: AUG-CC-PVTZ-JKFIT

    Orbital Energies [Eh]
    ---------------------

    Doubly Occupied:

       1A   -104.516114     2A    -20.393227     3A    -10.240359
       4A     -7.706446     5A     -7.706393     6A     -7.706356
       7A     -1.173095     8A     -0.748391     9A     -0.527101
      10A     -0.416567    11A     -0.335944    12A     -0.165905
      13A     -0.162919    14A     -0.161390

  @DF-RHF Final Energy:  -535.63754805546262

   => Energetics <=

    Nuclear Repulsion Energy =             38.7751849615489874
    One-Electron Energy =                -824.9050527278252503
    Two-Electron Energy =                 250.4923197108135469
    Total Energy =                       -535.6375480554627302
 Dipole X            :       -104.4981660           99.2333210           -5.2648450
 Dipole Y            :         -1.5776397            2.2371409            0.6595013
 Dipole Z            :          0.2983798           -0.3447956           -0.0464158
 Magnitude           :                                                    5.3061935
  Basis Set: (AUG-CC-PVTZ AUX)
    Blend: AUG-CC-PVTZ-RI
	 Reference Energy          =    -535.6375480554626165 [Eh]
	 Singles Energy            =      -0.0000000000000000 [Eh]
	 Same-Spin Energy          =      -0.1336208753984363 [Eh]
	 Opposite-Spin Energy      =      -0.3982436444994210 [Eh]
	 Correlation Energy        =      -0.5318645198978573 [Eh]
	 Total Energy              =    -536.1694125753605249 [Eh]

	 ================> DF-SCS-MP2 Energies <==================
	-----------------------------------------------------------
	 SCS Same-Spin Scale       =       0.3333333333333333 [-]
	 SCS Opposite-Spin Scale   =       1.2000000000000000 [-]
	 SCS Same-Spin Energy      =      -0.0445402917994788 [Eh]
	 SCS Opposite-Spin Energy  =      -0.4778923733993052 [Eh]
	 SCS Correlation Energy    =      -0.5224326651987840 [Eh]
	 SCS Total Energy          =    -536.1599807206614514 [Eh]
	-----------------------------------------------------------

*** Psi4 exiting successfully. Buy a developer a beer!
