                               Psi4 1.9 release

  ==> Input File <==

--------------------------------------------------------------------------
MEMORY 60 GB

molecule dimer {
0 1
O      0.000000     0.000000     0.000000
H     -0.748444     0.413522     0.432114
H      0.509513     0.794175    -0.294167
--
-1 1
Cl     3.070352     0.000000     0.000000

units ang
no_reorient
no_com
symmetry c1
}

set {
basis        aug-cc-pVTZ
scf_type     df
}

energy("mp2", bsse_type="cp")
--------------------------------------------------------------------------

                               Psi4 1.9 release
    Molecular point group: c1
  Charge       = -1
  Multiplicity = 1
  Basis Set: AUG-CC-PVTZ
    Blend: AUG-CC-PVTZ
  Basis Set: (AUG-CC-PVTZ AUX)
    Blend: AUG-CC-PVTZ-JKFIT
  @DF-RHF Final Energy:  -459.57349551365502
    Total Energy =                       -459.5734955136550184
 Dipole X            :       -104.4380363           98.6361146           -5.8019217
 Dipole Y            :         -0.0000770            0.0000000           -0.0000770
 Dipole Z            :         -0.0000002            0.0000000           -0.0000002
 Magnitude           :                                                    5.8019217
  Basis Set: (AUG-CC-PVTZ AUX)
    Blend: AUG-CC-PVTZ-RI
	 Reference Energy          =    -459.5734955136550184 [Eh]
	 Singles Energy            =      -0.0000000000000000 [Eh]
	 Same-Spin Energy          =      -0.0624442932494496 [Eh]
	 Opposite-Spin Energy      =      -0.1793334082977535 [Eh]
	 Correlation Energy        =      -0.2417777015472031 [Eh]
	 Total Energy              =    -459.8152732152022395 [Eh]
	 SCS Total Energy          =    -459.8095103680287821 [Eh]
                               Psi4 1.9 release
    Molecular point group: c1
  Multiplicity = 1
  Basis Set: AUG-CC-PVTZ
    Blend: AUG-CC-PVTZ
  Basis Set: (AUG-CC-PVTZ AUX)
    Blend: AUG-CC-PVTZ-JKFIT
  @DF-RHF Final Energy:   -76.05822158476577
    Total Energy =                        -76.0582215847657608
  Basis Set: (AUG-CC-PVTZ AUX)
	 Singles Energy            =      -0.0000000000000000 [Eh]
	 Same-Spin Energy          =      -0.0687091170348639 [Eh]
	 Opposite-Spin Energy      =      -0.2163514851732082 [Eh]
	 Correlation Energy        =      -0.2850606022080721 [Eh]
	 Total Energy              =     -76.3432821869738518 [Eh]
	 SCS Total Energy          =     -76.3407464059852430 [Eh]
                               Psi4 1.9 release
    Molecular point group: c1

    Geometry (in Bohr), charge = -1, multiplicity = 1:

       Center              X                  Y                   Z               Mass
    ------------   -----------------  -----------------  -----------------  -----------------
         O            0.000000000000     0.000000000000     0.000000000000    15.994914619570
         H           -1.414354180242     0.781443326852     0.816577114976     1.007825032230
         H            0.962840027360     1.500773245685    -0.555895065148     1.007825032230
         CL           5.802124388752     0.000000000000     0.000000000000    34.968852682000

  Charge       = -1
  Multiplicity = 1
  Basis Set: AUG-CC-PVTZ
    Blend: AUG-CC-PVTZ
  Basis Set: (AUG-CC-PVTZ AUX)
    Blend: AUG-CC-PVTZ-JKFIT

    Orbital Energies [Eh]
    ---------------------

    Doubly Occupied:

       1A   -104.504404     2A    -20.407013     3A    -10.228482
       4A     -7.694554     5A     -7.694520     6A     -7.694469
       7A     -1.184379     8A     -0.734854     9A     -0.537255
      10A     -0.424309    11A     -0.346237    12A     -0.152367
      13A     -0.150665    14A     -0.148826

  @DF-RHF Final Energy:  -535.62660722704675

   => Energetics <=

    Nuclear Repulsion Energy =             38.1566942970459806
    One-Electron Energy =                -823.7619372542969813
    Two-Electron Energy =                 249.9786357302041893
    Total Energy =                       -535.6266072270468612
 Dipole X            :       -103.9671395           98.1846005           -5.7825390
 Dipole Y            :         -1.6191597            2.2822166            0.6630569
 Dipole Z            :         -0.1409912            0.2606820            0.1196908
 Magnitude           :                                                    5.8216602
  Basis Set: (AUG-CC-PVTZ AUX)
    Blend: AUG-CC-PVTZ-RI
	 Reference Energy          =    -535.6266072270467475 [Eh]
	 Singles Energy            =      -0.0000000000000000 [Eh]
	 Same-Spin Energy          =      -0.1331377370887515 [Eh]
	 Opposite-Spin Energy      =      -0.3979210661639579 [Eh]
	 Correlation Energy        =      -0.5310588032527094 [Eh]
	 Total Energy              =    -536.1576660302994242 [Eh]

	 ================> DF-SCS-MP2 Energies <==================
	-----------------------------------------------------------
	 SCS Same-Spin Scale       =       0.3333333333333333 [-]
	 SCS Opposite-Spin Scale   =       1.2000000000000000 [-]
	 SCS Same-Spin Energy      =      -0.0443792456962505 [Eh]
	 SCS Opposite-Spin Energy  =      -0.4775052793967495 [Eh]
	 SCS Correlation Energy    =      -0.5218845250930000 [Eh]
	 SCS Total Energy          =    -536.1484917521397620 [Eh]
	-----------------------------------------------------------

*** Psi4 exiting successfully. Buy a developer a beer!
