                               Psi4 1.9 release

  ==> Input File <==

--------------------------------------------------------------------------
MEMORY 60 GB

molecule dimer {
0 1
O      0.000000     0.000000     0.000000
H     -0.630253     0.623110     0.363877
H      0.670161     0.614842    -0.386918
--
-1 1
Cl     3.070352     0.000000     0.000000

units ang
no_reorient
no_com
symmetry c1
}

set {
basis        aug-cc-pVTZ
scf_type     df
}

energy("mp2", bsse_type="cp")
--------------------------------------------------------------------------

                               Psi4 1.9 release
    Molecular point group: c1
  Charge       = -1
  Multiplicity = 1
  Basis Set: AUG-CC-PVTZ
    Blend: AUG-CC-PVTZ
  Basis Set: (AUG-CC-PVTZ AUX)
    Blend: AUG-CC-PVTZ-JKFIT
  @DF-RHF Final Energy:  -459.57349819106503
    Total Energy =                       -459.5734981910649708
 Dipole X            :       -104.4382116           98.6361146           -5.8020970
 Dipole Y            :         -0.0001068            0.0000000           -0.0001068
 Dipole Z            :         -0.0000219            0.0000000           -0.0000219
 Magnitude           :                                                    5.8020970
  Basis Set: (AUG-CC-PVTZ AUX)
    Blend: AUG-CC-PVTZ-RI
	 Reference Energy          =    -459.5734981910650276 [Eh]
	 Singles Energy            =      -0.0000000000000000 [Eh]
	 Same-Spin Energy          =      -0.0624794867989306 [Eh]
	 Opposite-Spin Energy      =      -0.1795102437633829 [Eh]
	 Correlation Energy        =      -0.2419897305623135 [Eh]
	 Total Energy              =    -459.8154879216273230 [Eh]
	 SCS Total Energy          =    -459.8097369791807409 [Eh]
                               Psi4 1.9 release
    Molecular point group: c1
  Multiplicity = 1
  Basis Set: AUG-CC-PVTZ
    Blend: AUG-CC-PVTZ
  Basis Set: (AUG-CC-PVTZ AUX)
    Blend: AUG-CC-PVTZ-JKFIT
  @DF-RHF Final Energy:   -76.05822496169235
    Total Energy =                        -76.0582249616923605
  Basis Set: (AUG-CC-PVTZ AUX)
	 Singles Energy            =      -0.0000000000000000 [Eh]
	 Same-Spin Energy          =      -0.0687121813229363 [Eh]
	 Opposite-Spin Energy      =      -0.2163813774666461 [Eh]
	 Correlation Energy        =      -0.2850935587895824 [Eh]
	 Total Energy              =     -76.3433185204819296 [Eh]
	 SCS Total Energy          =     -76.3407866750932982 [Eh]
                               Psi4 1.9 release
    Molecular point group: c1

    Geometry (in Bohr), charge = -1, multiplicity = 1:

       Center              X                  Y                   Z               Mass
    ------------   -----------------  -----------------  -----------------  -----------------
         O            0.000000000000     0.000000000000     0.000000000000    15.994914619570
         H           -1.191005559748     1.177507246034     0.687627873353     1.007825032230
         H            1.266420749963     1.161882990429    -0.731169053010     1.007825032230
         CL           5.802124388752     0.000000000000     0.000000000000    34.968852682000

  Charge       = -1
  Multiplicity = 1
  Basis Set: AUG-CC-PVTZ
    Blend: AUG-CC-PVTZ
  Basis Set: (AUG-CC-PVTZ AUX)
    Blend: AUG-CC-PVTZ-JKFIT

    Orbital Energies [Eh]
    ---------------------

    Doubly Occupied:

       1A   -104.510342     2A    -20.400333     3A    -10.234496
       4A     -7.700577     5A     -7.700532     6A     -7.700488
       7A     -1.178856     8A     -0.741638     9A     -0.532118
      10A     -0.420533    11A     -0.341231    12A     -0.159239
      13A     -0.156840    14A     -0.155217

  @DF-RHF Final Energy:  -535.63224023675980

   => Energetics <=

    Nuclear Repulsion Energy =             38.4674396632486904
    One-Electron Energy =                -824.3344804140300539
    Two-Electron Energy =                 250.2348005140215719
    Total Energy =                       -535.6322402367597988
 Dipole X            :       -104.2355952           98.7115298           -5.5240654
 Dipole Y            :         -1.6573231            2.3393902            0.6820671
 Dipole Z            :          0.0799553           -0.0435412            0.0364141
 Magnitude           :                                                    5.5661333
  Basis Set: (AUG-CC-PVTZ AUX)
    Blend: AUG-CC-PVTZ-RI
	 Reference Energy          =    -535.6322402367597988 [Eh]
	 Singles Energy            =      -0.0000000000000000 [Eh]
	 Same-Spin Energy          =      -0.1333743720134981 [Eh]
	 Opposite-Spin Energy      =      -0.3980716483655287 [Eh]
	 Correlation Energy        =      -0.5314460203790268 [Eh]
	 Total Energy              =    -536.1636862571388065 [Eh]

	 ================> DF-SCS-MP2 Energies <==================
	-----------------------------------------------------------
	 SCS Same-Spin Scale       =       0.3333333333333333 [-]
	 SCS Opposite-Spin Scale   =       1.2000000000000000 [-]
	 SCS Same-Spin Energy      =      -0.0444581240044994 [Eh]
	 SCS Opposite-Spin Energy  =      -0.4776859780386344 [Eh]
	 SCS Correlation Energy    =      -0.5221441020431338 [Eh]
	 SCS Total Energy          =    -536.1543843388029700 [Eh]
	-----------------------------------------------------------

*** Psi4 exiting successfully. Buy a developer a beer!
