                               Psi4 1.9 release

  ==> Input File <==

--------------------------------------------------------------------------
MEMORY 60 GB

molecule dimer {
0 1
O      0.000000     0.000000     0.000000
H     -0.067305     0.955172     0.038858
H      0.847397    -0.109698    -0.489245
--
-1 1
Br     3.212066     0.000000     0.000000

units ang
no_reorient
no_com
symmetry c1
}

set {
basis        aug-cc-pVTZ
scf_type     df
}

energy("mp2", bsse_type="cp")
--------------------------------------------------------------------------

                               Psi4 1.9 release
    Molecular point group: c1
  Charge       = -1
  Multiplicity = 1
  Basis Set: AUG-CC-PVTZ
    Blend: AUG-CC-PVTZ
  Basis Set: (AUG-CC-PVTZ AUX)
    Blend: AUG-CC-PVTZ-JKFIT
  @DF-RHF Final Energy: -2572.53368065314771
    Total Energy =                      -2572.5336806531477123
 Dipole X            :       -218.5174771          212.4473763           -6.0701008
 Dipole Y            :         -0.0000786            0.0000000           -0.0000786
 Dipole Z            :         -0.0001095            0.0000000           -0.0001095
 Magnitude           :                                                    6.0701008
  Basis Set: (AUG-CC-PVTZ AUX)
    Blend: AUG-CC-PVTZ-RI
	 Reference Energy          =   -2572.5336806531477123 [Eh]
	 Singles Energy            =      -0.0000000000000000 [Eh]
	 Same-Spin Energy          =      -0.0876662957306043 [Eh]
	 Opposite-Spin Energy      =      -0.2035190475170170 [Eh]
	 Correlation Energy        =      -0.2911853432476212 [Eh]
	 Total Energy              =   -2572.8248659963951468 [Eh]
	 SCS Total Energy          =   -2572.8071256087450820 [Eh]
                               Psi4 1.9 release
    Molecular point group: c1
  Multiplicity = 1
  Basis Set: AUG-CC-PVTZ
    Blend: AUG-CC-PVTZ
  Basis Set: (AUG-CC-PVTZ AUX)
    Blend: AUG-CC-PVTZ-JKFIT
  @DF-RHF Final Energy:   -76.05855711113615
    Total Energy =                        -76.0585571111361531
  Basis Set: (AUG-CC-PVTZ AUX)
	 Singles Energy            =      -0.0000000000000000 [Eh]
	 Same-Spin Energy          =      -0.0686908157504053 [Eh]
	 Opposite-Spin Energy      =      -0.2163856439645820 [Eh]
	 Correlation Energy        =      -0.2850764597149873 [Eh]
	 Total Energy              =     -76.3436335708511393 [Eh]
	 SCS Total Energy          =     -76.3411168224771188 [Eh]
                               Psi4 1.9 release
    Molecular point group: c1

    Geometry (in Bohr), charge = -1, multiplicity = 1:

       Center              X                  Y                   Z               Mass
    ------------   -----------------  -----------------  -----------------  -----------------
         O            0.000000000000     0.000000000000     0.000000000000    15.994914619570
         H           -0.127188016874     1.805013482706     0.073430977783     1.007825032230
         H            1.601348249535    -0.207299176510    -0.924539058250     1.007825032230
         BR           6.069925036895     0.000000000000     0.000000000000    78.918337600000

  Charge       = -1
  Multiplicity = 1
  Basis Set: AUG-CC-PVTZ
    Blend: AUG-CC-PVTZ
  Basis Set: (AUG-CC-PVTZ AUX)
    Blend: AUG-CC-PVTZ-JKFIT

    Orbital Energies [Eh]
    ---------------------

    Doubly Occupied:

       1A   -489.735016     2A    -64.875270     3A    -58.229766
       4A    -58.229748     5A    -58.229699     6A    -20.393203
       7A     -9.547743     8A     -7.155309     9A     -7.155130
      10A     -7.154956    11A     -2.897026    12A     -2.896996
      13A     -2.896755    14A     -2.896545    15A     -2.896503
      16A     -1.175355    17A     -0.705298    18A     -0.530845
      19A     -0.420792    20A     -0.338201    21A     -0.159168
      22A     -0.155915    23A     -0.154271

  @DF-RHF Final Energy: -2648.60168672600776

   => Energetics <=

    Nuclear Repulsion Energy =             68.2831765822333523
    One-Electron Energy =               -3836.1107040069018694
    Two-Electron Energy =                1119.2258406986611590
    Total Energy =                      -2648.6016867260073013
 Dipole X            :       -219.1078811          213.9215365           -5.1863446
 Dipole Y            :         -1.1049350            1.5977143            0.4927794
 Dipole Z            :          0.6686409           -0.8511081           -0.1824671
 Magnitude           :                                                    5.2128971
  Basis Set: (AUG-CC-PVTZ AUX)
    Blend: AUG-CC-PVTZ-RI
	 Reference Energy          =   -2648.6016867260077561 [Eh]
	 Singles Energy            =      -0.0000000000000000 [Eh]
	 Same-Spin Energy          =      -0.1589326670362833 [Eh]
	 Opposite-Spin Energy      =      -0.4219292416531328 [Eh]
	 Correlation Energy        =      -0.5808619086894162 [Eh]
	 Total Energy              =   -2649.1825486346970138 [Eh]

	 ================> DF-SCS-MP2 Energies <==================
	-----------------------------------------------------------
	 SCS Same-Spin Scale       =       0.3333333333333333 [-]
	 SCS Opposite-Spin Scale   =       1.2000000000000000 [-]
	 SCS Same-Spin Energy      =      -0.0529775556787611 [Eh]
	 SCS Opposite-Spin Energy  =      -0.5063150899837594 [Eh]
	 SCS Correlation Energy    =      -0.5592926456625205 [Eh]
	 SCS Total Energy          =   -2649.1609793716702370 [Eh]
	-----------------------------------------------------------

*** Psi4 exiting successfully. Buy a developer a beer!
