                               Psi4 1.9 release

  ==> Input File <==

--------------------------------------------------------------------------
MEMORY 60 GB

molecule dimer {
0 1
O      0.000000     0.000000     0.000000
H      0.149084     0.942740    -0.086074
H      0.793935    -0.359212    -0.458378
--
-1 1
Br     3.212066     0.000000     0.000000

units ang
no_reorient
no_com
symmetry c1
}

set {
basis        aug-cc-pVTZ
scf_type     df
}

energy("mp2", bsse_type="cp")
--------------------------------------------------------------------------

                               Psi4 1.9 release
    Molecular point group: c1
  Charge       = -1
  Multiplicity = 1
  Basis Set: AUG-CC-PVTZ
    Blend: AUG-CC-PVTZ
  Basis Set: (AUG-CC-PVTZ AUX)
    Blend: AUG-CC-PVTZ-JKFIT
  @DF-RHF Final Energy: -2572.53368003662217
    Total Energy =                      -2572.5336800366221723
 Dipole X            :       -218.5174582          212.4473763           -6.0700819
 Dipole Y            :         -0.0000874            0.0000000           -0.0000874
 Dipole Z            :         -0.0000490            0.0000000           -0.0000490
 Magnitude           :                                                    6.0700819
  Basis Set: (AUG-CC-PVTZ AUX)
    Blend: AUG-CC-PVTZ-RI
	 Reference Energy          =   -2572.5336800366221723 [Eh]
	 Singles Energy            =      -0.0000000000000000 [Eh]
	 Same-Spin Energy          =      -0.0875963612857703 [Eh]
	 Opposite-Spin Energy      =      -0.2033191162605838 [Eh]
	 Correlation Energy        =      -0.2909154775463541 [Eh]
	 Total Energy              =   -2572.8245955141683226 [Eh]
	 SCS Total Energy          =   -2572.8068617632302448 [Eh]
                               Psi4 1.9 release
    Molecular point group: c1
  Multiplicity = 1
  Basis Set: AUG-CC-PVTZ
    Blend: AUG-CC-PVTZ
  Basis Set: (AUG-CC-PVTZ AUX)
    Blend: AUG-CC-PVTZ-JKFIT
  @DF-RHF Final Energy:   -76.05855083600976
    Total Energy =                        -76.0585508360097577
  Basis Set: (AUG-CC-PVTZ AUX)
	 Singles Energy            =      -0.0000000000000000 [Eh]
	 Same-Spin Energy          =      -0.0686857546183718 [Eh]
	 Opposite-Spin Energy      =      -0.2163344046553318 [Eh]
	 Correlation Energy        =      -0.2850201592737036 [Eh]
	 Total Energy              =     -76.3435709952834571 [Eh]
	 SCS Total Energy          =     -76.3410473731356092 [Eh]
                               Psi4 1.9 release
    Molecular point group: c1

    Geometry (in Bohr), charge = -1, multiplicity = 1:

       Center              X                  Y                   Z               Mass
    ------------   -----------------  -----------------  -----------------  -----------------
         O            0.000000000000     0.000000000000     0.000000000000    15.994914619570
         H            0.281727929688     1.781520407514    -0.162656286523     1.007825032230
         H            1.500319711415    -0.678812300978    -0.866208881935     1.007825032230
         BR           6.069925036895     0.000000000000     0.000000000000    78.918337600000

  Charge       = -1
  Multiplicity = 1
  Basis Set: AUG-CC-PVTZ
    Blend: AUG-CC-PVTZ
  Basis Set: (AUG-CC-PVTZ AUX)
    Blend: AUG-CC-PVTZ-JKFIT

    Orbital Energies [Eh]
    ---------------------

    Doubly Occupied:

       1A   -489.735375     2A    -64.875629     3A    -58.230122
       4A    -58.230107     5A    -58.230057     6A    -20.393245
       7A     -9.548109     8A     -7.155646     9A     -7.155514
      10A     -7.155327    11A     -2.897371    12A     -2.897356
      13A     -2.897096    14A     -2.896940    15A     -2.896888
      16A     -1.175119    17A     -0.705260    18A     -0.530900
      19A     -0.421435    20A     -0.338368    21A     -0.158917
      22A     -0.156487    23A     -0.154695

  @DF-RHF Final Energy: -2648.60231478096011

   => Energetics <=

    Nuclear Repulsion Energy =             68.4225029033608507
    One-Electron Energy =               -3836.3777090845796920
    Two-Electron Energy =                1119.3528914002588408
    Total Energy =                      -2648.6023147809601141
 Dipole X            :       -219.3335340          214.2294239           -5.1041100
 Dipole Y            :         -0.7472399            1.1027081            0.3554682
 Dipole Z            :          0.7831416           -1.0288652           -0.2457236
 Magnitude           :                                                    5.1223702
  Basis Set: (AUG-CC-PVTZ AUX)
    Blend: AUG-CC-PVTZ-RI
	 Reference Energy          =   -2648.6023147809601141 [Eh]
	 Singles Energy            =      -0.0000000000000000 [Eh]
	 Same-Spin Energy          =      -0.1586901690023421 [Eh]
	 Opposite-Spin Energy      =      -0.4214769551223608 [Eh]
	 Correlation Energy        =      -0.5801671241247029 [Eh]
	 Total Energy              =   -2649.1824819050848419 [Eh]

	 ================> DF-SCS-MP2 Energies <==================
	-----------------------------------------------------------
	 SCS Same-Spin Scale       =       0.3333333333333333 [-]
	 SCS Opposite-Spin Scale   =       1.2000000000000000 [-]
	 SCS Same-Spin Energy      =      -0.0528967230007807 [Eh]
	 SCS Opposite-Spin Energy  =      -0.5057723461468330 [Eh]
	 SCS Correlation Energy    =      -0.5586690691476137 [Eh]
	 SCS Total Energy          =   -2649.1609838501076410 [Eh]
	-----------------------------------------------------------

*** Psi4 exiting successfully. Buy a developer a beer!
