                               Psi4 1.9 release

  ==> Input File <==

--------------------------------------------------------------------------
MEMORY 60 GB

molecule dimer {
0 1
O      0.000000     0.000000     0.000000
H      0.682727     0.544891    -0.394172
H      0.341425    -0.902246    -0.197122
--
-1 1
Br     3.212066     0.000000     0.000000

units ang
no_reorient
no_com
symmetry c1
}

set {
basis        aug-cc-pVTZ
scf_type     df
}

energy("mp2", bsse_type="cp")
--------------------------------------------------------------------------

                               Psi4 1.9 release
    Molecular point group: c1
  Charge       = -1
  Multiplicity = 1
  Basis Set: AUG-CC-PVTZ
    Blend: AUG-CC-PVTZ
  Basis Set: (AUG-CC-PVTZ AUX)
    Blend: AUG-CC-PVTZ-JKFIT
  @DF-RHF Final Energy: -2572.53367906621088
    Total Energy =                      -2572.5336790662113344
 Dipole X            :       -218.5174026          212.4473763           -6.0700263
 Dipole Y            :          0.0000605            0.0000000            0.0000605
 Dipole Z            :          0.0000088            0.0000000            0.0000088
 Magnitude           :                                                    6.0700263
  Basis Set: (AUG-CC-PVTZ AUX)
    Blend: AUG-CC-PVTZ-RI
	 Reference Energy          =   -2572.5336790662108797 [Eh]
	 Singles Energy            =      -0.0000000000000000 [Eh]
	 Same-Spin Energy          =      -0.0875012477828610 [Eh]
	 Opposite-Spin Energy      =      -0.2030604443834333 [Eh]
	 Correlation Energy        =      -0.2905616921662942 [Eh]
	 Total Energy              =   -2572.8242407583770728 [Eh]
	 SCS Total Energy          =   -2572.8065186820654162 [Eh]
                               Psi4 1.9 release
    Molecular point group: c1
  Multiplicity = 1
  Basis Set: AUG-CC-PVTZ
    Blend: AUG-CC-PVTZ
  Basis Set: (AUG-CC-PVTZ AUX)
    Blend: AUG-CC-PVTZ-JKFIT
  @DF-RHF Final Energy:   -76.05854406299663
    Total Energy =                        -76.0585440629966172
  Basis Set: (AUG-CC-PVTZ AUX)
	 Singles Energy            =      -0.0000000000000000 [Eh]
	 Same-Spin Energy          =      -0.0686812438390855 [Eh]
	 Opposite-Spin Energy      =      -0.2162831157250533 [Eh]
	 Correlation Energy        =      -0.2849643595641388 [Eh]
	 Total Energy              =     -76.3435084225607739 [Eh]
	 SCS Total Energy          =     -76.3409775498130614 [Eh]
                               Psi4 1.9 release
    Molecular point group: c1

    Geometry (in Bohr), charge = -1, multiplicity = 1:

       Center              X                  Y                   Z               Mass
    ------------   -----------------  -----------------  -----------------  -----------------
         O            0.000000000000     0.000000000000     0.000000000000    15.994914619570
         H            1.290167048455     1.029694758227    -0.744877126324     1.007825032230
         H            0.645199742384    -1.704997837790    -0.372506593302     1.007825032230
         BR           6.069925036895     0.000000000000     0.000000000000    78.918337600000

  Charge       = -1
  Multiplicity = 1
  Basis Set: AUG-CC-PVTZ
    Blend: AUG-CC-PVTZ
  Basis Set: (AUG-CC-PVTZ AUX)
    Blend: AUG-CC-PVTZ-JKFIT

    Orbital Energies [Eh]
    ---------------------

    Doubly Occupied:

       1A   -489.734474     2A    -64.874727     3A    -58.229217
       4A    -58.229207     5A    -58.229154     6A    -20.395403
       7A     -9.547215     8A     -7.154711     9A     -7.154649
      10A     -7.154440    11A     -2.896457    12A     -2.896454
      13A     -2.896163    14A     -2.896089    15A     -2.896014
      16A     -1.176390    17A     -0.703861    18A     -0.532416
      19A     -0.423095    20A     -0.340118    21A     -0.157341
      22A     -0.155887    23A     -0.153923

  @DF-RHF Final Energy: -2648.60198308660574

   => Energetics <=

    Nuclear Repulsion Energy =             68.4175310122539315
    One-Electron Energy =               -3836.3842171777159820
    Two-Electron Energy =                1119.3647030788561096
    Total Energy =                      -2648.6019830866057418
 Dipole X            :       -219.4757696          214.3827431           -5.0930266
 Dipole Y            :          0.4594022           -0.6753031           -0.2159009
 Dipole Z            :          0.8339936           -1.1173837           -0.2833901
 Magnitude           :                                                    5.1054718
  Basis Set: (AUG-CC-PVTZ AUX)
    Blend: AUG-CC-PVTZ-RI
	 Reference Energy          =   -2648.6019830866057418 [Eh]
	 Singles Energy            =      -0.0000000000000000 [Eh]
	 Same-Spin Energy          =      -0.1583537491710701 [Eh]
	 Opposite-Spin Energy      =      -0.4209837020916875 [Eh]
	 Correlation Energy        =      -0.5793374512627576 [Eh]
	 Total Energy              =   -2649.1813205378684870 [Eh]

	 ================> DF-SCS-MP2 Energies <==================
	-----------------------------------------------------------
	 SCS Same-Spin Scale       =       0.3333333333333333 [-]
	 SCS Opposite-Spin Scale   =       1.2000000000000000 [-]
	 SCS Same-Spin Energy      =      -0.0527845830570234 [Eh]
	 SCS Opposite-Spin Energy  =      -0.5051804425100249 [Eh]
	 SCS Correlation Energy    =      -0.5579650255670483 [Eh]
	 SCS Total Energy          =   -2649.1599481121729696 [Eh]
	-----------------------------------------------------------

*** Psi4 exiting successfully. Buy a developer a beer!
