                               Psi4 1.9 release

  ==> Input File <==

--------------------------------------------------------------------------
MEMORY 60 GB

molecule dimer {
0 1
O      0.000000     0.000000     0.000000
H      0.355314     0.866062    -0.205141
H      0.686367    -0.584246    -0.396274
--
-1 1
Br     3.212066     0.000000     0.000000

units ang
no_reorient
no_com
symmetry c1
}

set {
basis        aug-cc-pVTZ
scf_type     df
}

energy("mp2", bsse_type="cp")
--------------------------------------------------------------------------

                               Psi4 1.9 release
    Molecular point group: c1
  Charge       = -1
  Multiplicity = 1
  Basis Set: AUG-CC-PVTZ
    Blend: AUG-CC-PVTZ
  Basis Set: (AUG-CC-PVTZ AUX)
    Blend: AUG-CC-PVTZ-JKFIT
  @DF-RHF Final Energy: -2572.53367900106878
    Total Energy =                      -2572.5336790010687764
 Dipole X            :       -218.5174002          212.4473763           -6.0700239
 Dipole Y            :         -0.0000582            0.0000000           -0.0000582
 Dipole Z            :          0.0000106            0.0000000            0.0000106
 Magnitude           :                                                    6.0700239
  Basis Set: (AUG-CC-PVTZ AUX)
    Blend: AUG-CC-PVTZ-RI
	 Reference Energy          =   -2572.5336790010687764 [Eh]
	 Singles Energy            =      -0.0000000000000000 [Eh]
	 Same-Spin Energy          =      -0.0874956024604048 [Eh]
	 Opposite-Spin Energy      =      -0.2030477257577386 [Eh]
	 Correlation Energy        =      -0.2905433282181434 [Eh]
	 Total Energy              =   -2572.8242223292868402 [Eh]
	 SCS Total Energy          =   -2572.8065014727981179 [Eh]
                               Psi4 1.9 release
    Molecular point group: c1
  Multiplicity = 1
  Basis Set: AUG-CC-PVTZ
    Blend: AUG-CC-PVTZ
  Basis Set: (AUG-CC-PVTZ AUX)
    Blend: AUG-CC-PVTZ-JKFIT
  @DF-RHF Final Energy:   -76.05854267453670
    Total Energy =                        -76.0585426745366959
  Basis Set: (AUG-CC-PVTZ AUX)
	 Singles Energy            =      -0.0000000000000000 [Eh]
	 Same-Spin Energy          =      -0.0686803549171335 [Eh]
	 Opposite-Spin Energy      =      -0.2162784795641603 [Eh]
	 Correlation Energy        =      -0.2849588344812938 [Eh]
	 Total Energy              =     -76.3435015090179832 [Eh]
	 SCS Total Energy          =     -76.3409703016527317 [Eh]
                               Psi4 1.9 release
    Molecular point group: c1

    Geometry (in Bohr), charge = -1, multiplicity = 1:

       Center              X                  Y                   Z               Mass
    ------------   -----------------  -----------------  -----------------  -----------------
         O            0.000000000000     0.000000000000     0.000000000000    15.994914619570
         H            0.671446148541     1.636619987666    -0.387660307103     1.007825032230
         H            1.297045651552    -1.104064929894    -0.748849330640     1.007825032230
         BR           6.069925036895     0.000000000000     0.000000000000    78.918337600000

  Charge       = -1
  Multiplicity = 1
  Basis Set: AUG-CC-PVTZ
    Blend: AUG-CC-PVTZ
  Basis Set: (AUG-CC-PVTZ AUX)
    Blend: AUG-CC-PVTZ-JKFIT

    Orbital Energies [Eh]
    ---------------------

    Doubly Occupied:

       1A   -489.734819     2A    -64.875073     3A    -58.229564
       4A    -58.229552     5A    -58.229499     6A    -20.394603
       7A     -9.547564     8A     -7.155065     9A     -7.154993
      10A     -7.154785    11A     -2.896809    12A     -2.896805
      13A     -2.896516    14A     -2.896429    15A     -2.896356
      16A     -1.175929    17A     -0.704214    18A     -0.531844
      19A     -0.422690    20A     -0.339510    21A     -0.157603
      22A     -0.156241    23A     -0.154217

  @DF-RHF Final Energy: -2648.60218646361864

   => Energetics <=

    Nuclear Repulsion Energy =             68.4512035991288741
    One-Electron Energy =               -3836.4454204906123778
    Two-Electron Energy =                1119.3920304278647109
    Total Energy =                      -2648.6021864636186365
 Dipole X            :       -219.4921134          214.4158681           -5.0762453
 Dipole Y            :         -0.3533352            0.5325551            0.1792198
 Dipole Z            :          0.8476522           -1.1365096           -0.2888574
 Magnitude           :                                                    5.0876149
  Basis Set: (AUG-CC-PVTZ AUX)
    Blend: AUG-CC-PVTZ-RI
	 Reference Energy          =   -2648.6021864636186365 [Eh]
	 Singles Energy            =      -0.0000000000000000 [Eh]
	 Same-Spin Energy          =      -0.1583894613497985 [Eh]
	 Opposite-Spin Energy      =      -0.4209758721458015 [Eh]
	 Correlation Energy        =      -0.5793653334955999 [Eh]
	 Total Energy              =   -2649.1815517971140252 [Eh]

	 ================> DF-SCS-MP2 Energies <==================
	-----------------------------------------------------------
	 SCS Same-Spin Scale       =       0.3333333333333333 [-]
	 SCS Opposite-Spin Scale   =       1.2000000000000000 [-]
	 SCS Same-Spin Energy      =      -0.0527964871165995 [Eh]
	 SCS Opposite-Spin Energy  =      -0.5051710465749618 [Eh]
	 SCS Correlation Energy    =      -0.5579675336915613 [Eh]
	 SCS Total Energy          =   -2649.1601539973103172 [Eh]
	-----------------------------------------------------------

*** Psi4 exiting successfully. Buy a developer a beer!
