                               Psi4 1.9 release

  ==> Input File <==

--------------------------------------------------------------------------
MEMORY 60 GB

molecule dimer {
0 1
O      0.000000     0.000000     0.000000
H     -0.632513     0.620454     0.365181
H      0.666376     0.614329    -0.384733
--
-1 1
Br     3.212066     0.000000     0.000000

units ang
no_reorient
no_com
symmetry c1
}

set {
basis        aug-cc-pVTZ
scf_type     df
}

energy("mp2", bsse_type="cp")
--------------------------------------------------------------------------

                               Psi4 1.9 release
    Molecular point group: c1
  Charge       = -1
  Multiplicity = 1
  Basis Set: AUG-CC-PVTZ
    Blend: AUG-CC-PVTZ
  Basis Set: (AUG-CC-PVTZ AUX)
    Blend: AUG-CC-PVTZ-JKFIT
  @DF-RHF Final Energy: -2572.53367789484628
    Total Energy =                      -2572.5336778948467327
 Dipole X            :       -218.5173051          212.4473763           -6.0699288
 Dipole Y            :          0.0000792            0.0000000            0.0000792
 Dipole Z            :         -0.0000844            0.0000000           -0.0000844
 Magnitude           :                                                    6.0699288
  Basis Set: (AUG-CC-PVTZ AUX)
    Blend: AUG-CC-PVTZ-RI
	 Reference Energy          =   -2572.5336778948462779 [Eh]
	 Singles Energy            =      -0.0000000000000000 [Eh]
	 Same-Spin Energy          =      -0.0873994567336397 [Eh]
	 Opposite-Spin Energy      =      -0.2027911200504079 [Eh]
	 Correlation Energy        =      -0.2901905767840476 [Eh]
	 Total Energy              =   -2572.8238684716302487 [Eh]
	 SCS Total Energy          =   -2572.8061603911514794 [Eh]
                               Psi4 1.9 release
    Molecular point group: c1
  Multiplicity = 1
  Basis Set: AUG-CC-PVTZ
    Blend: AUG-CC-PVTZ
  Basis Set: (AUG-CC-PVTZ AUX)
    Blend: AUG-CC-PVTZ-JKFIT
  @DF-RHF Final Energy:   -76.05854080542215
    Total Energy =                        -76.0585408054221546
  Basis Set: (AUG-CC-PVTZ AUX)
	 Singles Energy            =      -0.0000000000000000 [Eh]
	 Same-Spin Energy          =      -0.0686793072850111 [Eh]
	 Opposite-Spin Energy      =      -0.2162742877096198 [Eh]
	 Correlation Energy        =      -0.2849535949946309 [Eh]
	 Total Energy              =     -76.3434944004167875 [Eh]
	 SCS Total Energy          =     -76.3409630531020298 [Eh]
                               Psi4 1.9 release
    Molecular point group: c1

    Geometry (in Bohr), charge = -1, multiplicity = 1:

       Center              X                  Y                   Z               Mass
    ------------   -----------------  -----------------  -----------------  -----------------
         O            0.000000000000     0.000000000000     0.000000000000    15.994914619570
         H           -1.195276340792     1.172488133445     0.690092076221     1.007825032230
         H            1.259268136578     1.160913560926    -0.727040001426     1.007825032230
         BR           6.069925036895     0.000000000000     0.000000000000    78.918337600000

  Charge       = -1
  Multiplicity = 1
  Basis Set: AUG-CC-PVTZ
    Blend: AUG-CC-PVTZ
  Basis Set: (AUG-CC-PVTZ AUX)
    Blend: AUG-CC-PVTZ-JKFIT

    Orbital Energies [Eh]
    ---------------------

    Doubly Occupied:

       1A   -489.723951     2A    -64.864150     3A    -58.218655
       4A    -58.218628     5A    -58.218571     6A    -20.407888
       7A     -9.536595     8A     -7.144162     9A     -7.143982
      10A     -7.143755    11A     -2.885921    12A     -2.885895
      13A     -2.885578    14A     -2.885360    15A     -2.885299
      16A     -1.187555    17A     -0.692688    18A     -0.541201
      19A     -0.428486    20A     -0.349188    21A     -0.146986
      22A     -0.144341    23A     -0.142539

  @DF-RHF Final Energy: -2648.59168602604223

   => Energetics <=

    Nuclear Repulsion Energy =             66.9314958657299854
    One-Electron Energy =               -3833.6836103423147506
    Two-Electron Energy =                1118.1604284505424403
    Total Energy =                      -2648.5916860260422254
 Dipole X            :       -218.3398878          212.5113681           -5.8285198
 Dipole Y            :         -1.6727107            2.3334017            0.6606909
 Dipole Z            :          0.0852053           -0.0369479            0.0482574
 Magnitude           :                                                    5.8660450
  Basis Set: (AUG-CC-PVTZ AUX)
    Blend: AUG-CC-PVTZ-RI
	 Reference Energy          =   -2648.5916860260422254 [Eh]
	 Singles Energy            =      -0.0000000000000000 [Eh]
	 Same-Spin Energy          =      -0.1583488633524168 [Eh]
	 Opposite-Spin Energy      =      -0.4213556908937838 [Eh]
	 Correlation Energy        =      -0.5797045542462007 [Eh]
	 Total Energy              =   -2649.1713905802885165 [Eh]

	 ================> DF-SCS-MP2 Energies <==================
	-----------------------------------------------------------
	 SCS Same-Spin Scale       =       0.3333333333333333 [-]
	 SCS Opposite-Spin Scale   =       1.2000000000000000 [-]
	 SCS Same-Spin Energy      =      -0.0527829544508056 [Eh]
	 SCS Opposite-Spin Energy  =      -0.5056268290725405 [Eh]
	 SCS Correlation Energy    =      -0.5584097835233461 [Eh]
	 SCS Total Energy          =   -2649.1500958095657552 [Eh]
	-----------------------------------------------------------

*** Psi4 exiting successfully. Buy a developer a beer!
