                               Psi4 1.9 release

  ==> Input File <==

--------------------------------------------------------------------------
MEMORY 60 GB

molecule dimer {
0 1
O      0.000000     0.000000     0.000000
H     -0.471889     0.788345     0.272445
H      0.781368     0.394244    -0.451123
--
-1 1
Br     3.212066     0.000000     0.000000

units ang
no_reorient
no_com
symmetry c1
}

set {
basis        aug-cc-pVTZ
scf_type     df
}

energy("mp2", bsse_type="cp")
--------------------------------------------------------------------------

                               Psi4 1.9 release
    Molecular point group: c1
  Charge       = -1
  Multiplicity = 1
  Basis Set: AUG-CC-PVTZ
    Blend: AUG-CC-PVTZ
  Basis Set: (AUG-CC-PVTZ AUX)
    Blend: AUG-CC-PVTZ-JKFIT
  @DF-RHF Final Energy: -2572.53367946039543
    Total Energy =                      -2572.5336794603954331
 Dipole X            :       -218.5173824          212.4473763           -6.0700062
 Dipole Y            :          0.0000272            0.0000000            0.0000272
 Dipole Z            :         -0.0001178            0.0000000           -0.0001178
 Magnitude           :                                                    6.0700062
  Basis Set: (AUG-CC-PVTZ AUX)
    Blend: AUG-CC-PVTZ-RI
	 Reference Energy          =   -2572.5336794603954331 [Eh]
	 Singles Energy            =      -0.0000000000000000 [Eh]
	 Same-Spin Energy          =      -0.0875539201135944 [Eh]
	 Opposite-Spin Energy      =      -0.2032108602661925 [Eh]
	 Correlation Energy        =      -0.2907647803797868 [Eh]
	 Total Energy              =   -2572.8244442407753922 [Eh]
	 SCS Total Energy          =   -2572.8067171327525102 [Eh]
                               Psi4 1.9 release
    Molecular point group: c1
  Multiplicity = 1
  Basis Set: AUG-CC-PVTZ
    Blend: AUG-CC-PVTZ
  Basis Set: (AUG-CC-PVTZ AUX)
    Blend: AUG-CC-PVTZ-JKFIT
  @DF-RHF Final Energy:   -76.05854907882158
    Total Energy =                        -76.0585490788215850
  Basis Set: (AUG-CC-PVTZ AUX)
	 Singles Energy            =      -0.0000000000000000 [Eh]
	 Same-Spin Energy          =      -0.0686852232065938 [Eh]
	 Opposite-Spin Energy      =      -0.2163240676954092 [Eh]
	 Correlation Energy        =      -0.2850092909020030 [Eh]
	 Total Energy              =     -76.3435583697235813 [Eh]
	 SCS Total Energy          =     -76.3410330344582775 [Eh]
                               Psi4 1.9 release
    Molecular point group: c1

    Geometry (in Bohr), charge = -1, multiplicity = 1:

       Center              X                  Y                   Z               Mass
    ------------   -----------------  -----------------  -----------------  -----------------
         O            0.000000000000     0.000000000000     0.000000000000    15.994914619570
         H           -0.891740971616     1.489756142374     0.514846434250     1.007825032230
         H            1.476571523197     0.745013186605    -0.852498918895     1.007825032230
         BR           6.069925036895     0.000000000000     0.000000000000    78.918337600000

  Charge       = -1
  Multiplicity = 1
  Basis Set: AUG-CC-PVTZ
    Blend: AUG-CC-PVTZ
  Basis Set: (AUG-CC-PVTZ AUX)
    Blend: AUG-CC-PVTZ-JKFIT

    Orbital Energies [Eh]
    ---------------------

    Doubly Occupied:

       1A   -489.729009     2A    -64.869230     3A    -58.223734
       4A    -58.223707     5A    -58.223654     6A    -20.401247
       7A     -9.541680     8A     -7.149262     9A     -7.149057
      10A     -7.148861    11A     -2.891001    12A     -2.890965
      13A     -2.890691    14A     -2.890443    15A     -2.890396
      16A     -1.182106    17A     -0.698564    18A     -0.536367
      19A     -0.424662    20A     -0.344152    21A     -0.152844
      22A     -0.149521    23A     -0.147902

  @DF-RHF Final Energy: -2648.59621528647494

   => Energetics <=

    Nuclear Repulsion Energy =             67.5006500888151919
    One-Electron Energy =               -3834.6956212997888542
    Two-Electron Energy =                1118.5987559244988461
    Total Energy =                      -2648.5962152864749442
 Dipole X            :       -218.5990884          213.0322068           -5.5668815
 Dipole Y            :         -1.5921244            2.2347693            0.6426449
 Dipole Z            :          0.3064200           -0.3376525           -0.0312325
 Magnitude           :                                                    5.6039395
  Basis Set: (AUG-CC-PVTZ AUX)
    Blend: AUG-CC-PVTZ-RI
	 Reference Energy          =   -2648.5962152864749442 [Eh]
	 Singles Energy            =      -0.0000000000000000 [Eh]
	 Same-Spin Energy          =      -0.1587238230333080 [Eh]
	 Opposite-Spin Energy      =      -0.4218026593910972 [Eh]
	 Correlation Energy        =      -0.5805264824244052 [Eh]
	 Total Energy              =   -2649.1767417688993191 [Eh]

	 ================> DF-SCS-MP2 Energies <==================
	-----------------------------------------------------------
	 SCS Same-Spin Scale       =       0.3333333333333333 [-]
	 SCS Opposite-Spin Scale   =       1.2000000000000000 [-]
	 SCS Same-Spin Energy      =      -0.0529079410111027 [Eh]
	 SCS Opposite-Spin Energy  =      -0.5061631912693166 [Eh]
	 SCS Correlation Energy    =      -0.5590711322804193 [Eh]
	 SCS Total Energy          =   -2649.1552864187551677 [Eh]
	-----------------------------------------------------------

*** Psi4 exiting successfully. Buy a developer a beer!
