                               Psi4 1.9 release

  ==> Input File <==

--------------------------------------------------------------------------
MEMORY 60 GB

molecule dimer {
0 1
O      0.000000     0.000000     0.000000
H     -0.279107     0.902511     0.161143
H      0.843111     0.147292    -0.486770
--
-1 1
Br     3.212066     0.000000     0.000000

units ang
no_reorient
no_com
symmetry c1
}

set {
basis        aug-cc-pVTZ
scf_type     df
}

energy("mp2", bsse_type="cp")
--------------------------------------------------------------------------

                               Psi4 1.9 release
    Molecular point group: c1
  Charge       = -1
  Multiplicity = 1
  Basis Set: AUG-CC-PVTZ
    Blend: AUG-CC-PVTZ
  Basis Set: (AUG-CC-PVTZ AUX)
    Blend: AUG-CC-PVTZ-JKFIT
  @DF-RHF Final Energy: -2572.53368039204406
    Total Energy =                      -2572.5336803920436068
 Dipole X            :       -218.5174365          212.4473763           -6.0700602
 Dipole Y            :         -0.0000352            0.0000000           -0.0000352
 Dipole Z            :         -0.0001306            0.0000000           -0.0001306
 Magnitude           :                                                    6.0700602
  Basis Set: (AUG-CC-PVTZ AUX)
    Blend: AUG-CC-PVTZ-RI
	 Reference Energy          =   -2572.5336803920440616 [Eh]
	 Singles Energy            =      -0.0000000000000000 [Eh]
	 Same-Spin Energy          =      -0.0876535153379896 [Eh]
	 Opposite-Spin Energy      =      -0.2034891914605085 [Eh]
	 Correlation Energy        =      -0.2911427067984980 [Eh]
	 Total Energy              =   -2572.8248230988424439 [Eh]
	 SCS Total Energy          =   -2572.8070852602427294 [Eh]
                               Psi4 1.9 release
    Molecular point group: c1
  Multiplicity = 1
  Basis Set: AUG-CC-PVTZ
    Blend: AUG-CC-PVTZ
  Basis Set: (AUG-CC-PVTZ AUX)
    Blend: AUG-CC-PVTZ-JKFIT
  @DF-RHF Final Energy:   -76.05855653141218
    Total Energy =                        -76.0585565314121652
  Basis Set: (AUG-CC-PVTZ AUX)
	 Singles Energy            =      -0.0000000000000000 [Eh]
	 Same-Spin Energy          =      -0.0686907466524074 [Eh]
	 Opposite-Spin Energy      =      -0.2163793868618908 [Eh]
	 Correlation Energy        =      -0.2850701335142982 [Eh]
	 Total Energy              =     -76.3436266649264752 [Eh]
	 SCS Total Energy          =     -76.3411087111972506 [Eh]
                               Psi4 1.9 release
    Molecular point group: c1

    Geometry (in Bohr), charge = -1, multiplicity = 1:

       Center              X                  Y                   Z               Mass
    ------------   -----------------  -----------------  -----------------  -----------------
         O            0.000000000000     0.000000000000     0.000000000000    15.994914619570
         H           -0.527435789698     1.705498615213     0.304516137035     1.007825032230
         H            1.593248883361     0.278341540471    -0.919861986089     1.007825032230
         BR           6.069925036895     0.000000000000     0.000000000000    78.918337600000

  Charge       = -1
  Multiplicity = 1
  Basis Set: AUG-CC-PVTZ
    Blend: AUG-CC-PVTZ
  Basis Set: (AUG-CC-PVTZ AUX)
    Blend: AUG-CC-PVTZ-JKFIT

    Orbital Energies [Eh]
    ---------------------

    Doubly Occupied:

       1A   -489.732919     2A    -64.873161     3A    -58.227662
       4A    -58.227638     5A    -58.227589     6A    -20.395886
       7A     -9.545624     8A     -7.153206     9A     -7.153001
      10A     -7.152826    11A     -2.894929    12A     -2.894891
      13A     -2.894647    14A     -2.894402    15A     -2.894362
      16A     -1.177692    17A     -0.703100    18A     -0.532649
      19A     -0.421819    20A     -0.340133    21A     -0.157202
      22A     -0.153618    23A     -0.152046

  @DF-RHF Final Energy: -2648.59969392460971

   => Energetics <=

    Nuclear Repulsion Energy =             67.9742550913891677
    One-Electron Energy =               -3835.5458967464774105
    Two-Electron Energy =                1118.9719477304784050
    Total Energy =                      -2648.5996939246097099
 Dipole X            :       -218.8558134          213.5131894           -5.3426240
 Dipole Y            :         -1.3964417            1.9838402            0.5873984
 Dipole Z            :          0.5063825           -0.6153458           -0.1089633
 Magnitude           :                                                    5.3759223
  Basis Set: (AUG-CC-PVTZ AUX)
    Blend: AUG-CC-PVTZ-RI
	 Reference Energy          =   -2648.5996939246097099 [Eh]
	 Singles Energy            =      -0.0000000000000000 [Eh]
	 Same-Spin Energy          =      -0.1589527132953835 [Eh]
	 Opposite-Spin Energy      =      -0.4220524166007139 [Eh]
	 Correlation Energy        =      -0.5810051298960974 [Eh]
	 Total Energy              =   -2649.1806990545060216 [Eh]

	 ================> DF-SCS-MP2 Energies <==================
	-----------------------------------------------------------
	 SCS Same-Spin Scale       =       0.3333333333333333 [-]
	 SCS Opposite-Spin Scale   =       1.2000000000000000 [-]
	 SCS Same-Spin Energy      =      -0.0529842377651278 [Eh]
	 SCS Opposite-Spin Energy  =      -0.5064628999208567 [Eh]
	 SCS Correlation Energy    =      -0.5594471376859845 [Eh]
	 SCS Total Energy          =   -2649.1591410622954754 [Eh]
	-----------------------------------------------------------

*** Psi4 exiting successfully. Buy a developer a beer!
