                               Psi4 1.9 release

  ==> Input File <==

--------------------------------------------------------------------------
MEMORY 60 GB

molecule dimer {
0 1
O      0.000000     0.000000     0.000000
H      0.537329     0.730363    -0.310227
H      0.532024    -0.769465    -0.307164
--
-1 1
Br     3.212066     0.000000     0.000000

units ang
no_reorient
no_com
symmetry c1
}

set {
basis        aug-cc-pVTZ
scf_type     df
}

energy("mp2", bsse_type="cp")
--------------------------------------------------------------------------

                               Psi4 1.9 release
    Molecular point group: c1
  Charge       = -1
  Multiplicity = 1
  Basis Set: AUG-CC-PVTZ
    Blend: AUG-CC-PVTZ
  Basis Set: (AUG-CC-PVTZ AUX)
    Blend: AUG-CC-PVTZ-JKFIT
  @DF-RHF Final Energy: -2572.53367845227422
    Total Energy =                      -2572.5336784522742164
 Dipole X            :       -218.5173716          212.4473763           -6.0699953
 Dipole Y            :          0.0000025            0.0000000            0.0000025
 Dipole Z            :          0.0000376            0.0000000            0.0000376
 Magnitude           :                                                    6.0699953
  Basis Set: (AUG-CC-PVTZ AUX)
    Blend: AUG-CC-PVTZ-RI
	 Reference Energy          =   -2572.5336784522742164 [Eh]
	 Singles Energy            =      -0.0000000000000000 [Eh]
	 Same-Spin Energy          =      -0.0874495743406924 [Eh]
	 Opposite-Spin Energy      =      -0.2029253909456101 [Eh]
	 Correlation Energy        =      -0.2903749652863025 [Eh]
	 Total Energy              =   -2572.8240534175606626 [Eh]
	 SCS Total Energy          =   -2572.8063387795223207 [Eh]
                               Psi4 1.9 release
    Molecular point group: c1
  Multiplicity = 1
  Basis Set: AUG-CC-PVTZ
    Blend: AUG-CC-PVTZ
  Basis Set: (AUG-CC-PVTZ AUX)
    Blend: AUG-CC-PVTZ-JKFIT
  @DF-RHF Final Energy:   -76.05853948244496
    Total Energy =                        -76.0585394824449565
  Basis Set: (AUG-CC-PVTZ AUX)
	 Singles Energy            =      -0.0000000000000000 [Eh]
	 Same-Spin Energy          =      -0.0686785305256300 [Eh]
	 Opposite-Spin Energy      =      -0.2162580672897362 [Eh]
	 Correlation Energy        =      -0.2849365978153662 [Eh]
	 Total Energy              =     -76.3434760802603165 [Eh]
	 SCS Total Energy          =     -76.3409420067011837 [Eh]
                               Psi4 1.9 release
    Molecular point group: c1

    Geometry (in Bohr), charge = -1, multiplicity = 1:

       Center              X                  Y                   Z               Mass
    ------------   -----------------  -----------------  -----------------  -----------------
         O            0.000000000000     0.000000000000     0.000000000000    15.994914619570
         H            1.015404649266     1.380186042168    -0.586244066722     1.007825032230
         H            1.005379652171    -1.454078113125    -0.580455835600     1.007825032230
         BR           6.069925036895     0.000000000000     0.000000000000    78.918337600000

  Charge       = -1
  Multiplicity = 1
  Basis Set: AUG-CC-PVTZ
    Blend: AUG-CC-PVTZ
  Basis Set: (AUG-CC-PVTZ AUX)
    Blend: AUG-CC-PVTZ-JKFIT

    Orbital Energies [Eh]
    ---------------------

    Doubly Occupied:

       1A   -489.734371     2A    -64.874626     3A    -58.229116
       4A    -58.229106     5A    -58.229051     6A    -20.395560
       7A     -9.547121     8A     -7.154589     9A     -7.154580
      10A     -7.154345    11A     -2.896361    12A     -2.896358
      13A     -2.896046    14A     -2.896014    15A     -2.895922
      16A     -1.176523    17A     -0.703562    18A     -0.532512
      19A     -0.423395    20A     -0.340278    21A     -0.156717
      22A     -0.156076    23A     -0.153828

  @DF-RHF Final Energy: -2648.60198500616025

   => Energetics <=

    Nuclear Repulsion Energy =             68.4399489085549106
    One-Electron Energy =               -3836.4317555264733528
    Two-Electron Energy =                1119.3898216117581796
    Total Energy =                      -2648.6019850061602483
 Dipole X            :       -219.5444730          214.4681606           -5.0763124
 Dipole Y            :          0.0542931           -0.0738921           -0.0195989
 Dipole Z            :          0.8641841           -1.1666999           -0.3025158
 Magnitude           :                                                    5.0853562
  Basis Set: (AUG-CC-PVTZ AUX)
    Blend: AUG-CC-PVTZ-RI
	 Reference Energy          =   -2648.6019850061602483 [Eh]
	 Singles Energy            =      -0.0000000000000000 [Eh]
	 Same-Spin Energy          =      -0.1582447374655382 [Eh]
	 Opposite-Spin Energy      =      -0.4207611300656576 [Eh]
	 Correlation Energy        =      -0.5790058675311958 [Eh]
	 Total Energy              =   -2649.1809908736913712 [Eh]

	 ================> DF-SCS-MP2 Energies <==================
	-----------------------------------------------------------
	 SCS Same-Spin Scale       =       0.3333333333333333 [-]
	 SCS Opposite-Spin Scale   =       1.2000000000000000 [-]
	 SCS Same-Spin Energy      =      -0.0527482458218461 [Eh]
	 SCS Opposite-Spin Energy  =      -0.5049133560787891 [Eh]
	 SCS Correlation Energy    =      -0.5576616019006351 [Eh]
	 SCS Total Energy          =   -2649.1596466080609389 [Eh]
	-----------------------------------------------------------

*** Psi4 exiting successfully. Buy a developer a beer!
