                               Psi4 1.9 release

  ==> Input File <==

--------------------------------------------------------------------------
MEMORY 60 GB

molecule dimer {
0 1
O      0.000000     0.000000     0.000000
H     -0.628905     0.369011     0.628905
H     -0.088480    -0.954754     0.088480
--
1 1
Li     1.828878     0.000000     0.000000

units ang
no_reorient
no_com
symmetry c1
}

set {
basis        aug-cc-pVTZ
scf_type     df
}

energy("mp2", bsse_type="cp")
--------------------------------------------------------------------------

                               Psi4 1.9 release
    Molecular point group: c1
  Charge       = 1
  Multiplicity = 1
  Basis Set: AUG-CC-PVTZ
    Blend: AUG-CC-PVTZ
  Basis Set: (AUG-CC-PVTZ AUX)
    Blend: AUG-CC-PVTZ-JKFIT + DEF2-UNIVERSAL-JKFIT
  @DF-RHF Final Energy:    -7.23638356309147
    Total Energy =                         -7.2363835630914739
 Dipole X            :         -6.9121765           10.3682356            3.4560591
 Dipole Y            :         -0.0000082            0.0000000           -0.0000082
 Dipole Z            :          0.0000169            0.0000000            0.0000169
 Magnitude           :                                                    3.4560591
  Basis Set: (AUG-CC-PVTZ AUX)
    Blend: AUG-CC-PVTZ-RI + DEF2-QZVPP-RI
	 Reference Energy          =      -7.2363835630914730 [Eh]
	 Singles Energy            =      -0.0000000000000000 [Eh]
	 Same-Spin Energy          =       0.0000000000000000 [Eh]
	 Opposite-Spin Energy      =      -0.0133211073508254 [Eh]
	 Correlation Energy        =      -0.0133211073508254 [Eh]
	 Total Energy              =      -7.2497046704422985 [Eh]
	 SCS Total Energy          =      -7.2523688919124636 [Eh]
                               Psi4 1.9 release
    Molecular point group: c1
  Multiplicity = 1
  Basis Set: AUG-CC-PVTZ
    Blend: AUG-CC-PVTZ
  Basis Set: (AUG-CC-PVTZ AUX)
    Blend: AUG-CC-PVTZ-JKFIT + DEF2-UNIVERSAL-JKFIT
  @DF-RHF Final Energy:   -76.06026786324702
    Total Energy =                        -76.0602678632470202
  Basis Set: (AUG-CC-PVTZ AUX)
	 Singles Energy            =      -0.0000000000000000 [Eh]
	 Same-Spin Energy          =      -0.0684799871215021 [Eh]
	 Opposite-Spin Energy      =      -0.2158954357484001 [Eh]
	 Correlation Energy        =      -0.2843754228699022 [Eh]
	 Total Energy              =     -76.3446432861169200 [Eh]
	 SCS Total Energy          =     -76.3421690485189401 [Eh]
                               Psi4 1.9 release
    Molecular point group: c1

    Geometry (in Bohr), charge = 1, multiplicity = 1:

       Center              X                  Y                   Z               Mass
    ------------   -----------------  -----------------  -----------------  -----------------
         O            0.000000000000     0.000000000000     0.000000000000    15.994914619570
         H           -1.188458208931     0.697329727281     1.188458208931     1.007825032230
         H           -0.167202967581    -1.804223577185     0.167202967581     1.007825032230
         LI           3.456078536875     0.000000000000     0.000000000000     7.016003436600

  Charge       = 1
  Multiplicity = 1
  Basis Set: AUG-CC-PVTZ
    Blend: AUG-CC-PVTZ
  Basis Set: (AUG-CC-PVTZ AUX)
    Blend: AUG-CC-PVTZ-JKFIT + DEF2-UNIVERSAL-JKFIT

    Orbital Energies [Eh]
    ---------------------

    Doubly Occupied:

       1A    -20.820036     2A     -2.710522     3A     -1.610141
       4A     -0.972088     5A     -0.858919     6A     -0.775451

  @DF-RHF Final Energy:   -83.34320177993507

   => Energetics <=

    Nuclear Repulsion Energy =             17.4431525560718974
    One-Electron Energy =                -146.0783939407556034
    Two-Electron Energy =                  45.2920396047486307
    Total Energy =                        -83.3432017799350717
 Dipole X            :         -6.4741242            9.0125744            2.5384502
 Dipole Y            :          0.6987619           -1.1068938           -0.4081319
 Dipole Z            :         -0.8310854            1.3556612            0.5245758
 Magnitude           :                                                    2.6240200
  Basis Set: (AUG-CC-PVTZ AUX)
    Blend: AUG-CC-PVTZ-RI + DEF2-QZVPP-RI
	 Reference Energy          =     -83.3432017799350717 [Eh]
	 Singles Energy            =      -0.0000000000000000 [Eh]
	 Same-Spin Energy          =      -0.0680106526820757 [Eh]
	 Opposite-Spin Energy      =      -0.2270522794898741 [Eh]
	 Correlation Energy        =      -0.2950629321719498 [Eh]
	 Total Energy              =     -83.6382647121070164 [Eh]

	 ================> DF-SCS-MP2 Energies <==================
	-----------------------------------------------------------
	 SCS Same-Spin Scale       =       0.3333333333333333 [-]
	 SCS Opposite-Spin Scale   =       1.2000000000000000 [-]
	 SCS Same-Spin Energy      =      -0.0226702175606919 [Eh]
	 SCS Opposite-Spin Energy  =      -0.2724627353878489 [Eh]
	 SCS Correlation Energy    =      -0.2951329529485408 [Eh]
	 SCS Total Energy          =     -83.6383347328836066 [Eh]
	-----------------------------------------------------------

*** Psi4 exiting successfully. Buy a developer a beer!
