                               Psi4 1.9 release

  ==> Input File <==

--------------------------------------------------------------------------
MEMORY 60 GB

molecule dimer {
0 1
O      0.000000     0.000000     0.000000
H     -0.260198     0.889835     0.260198
H     -0.539942    -0.586632     0.539942
--
1 1
Li     1.828878     0.000000     0.000000

units ang
no_reorient
no_com
symmetry c1
}

set {
basis        aug-cc-pVTZ
scf_type     df
}

energy("mp2", bsse_type="cp")
--------------------------------------------------------------------------

                               Psi4 1.9 release
    Molecular point group: c1
  Charge       = 1
  Multiplicity = 1
  Basis Set: AUG-CC-PVTZ
    Blend: AUG-CC-PVTZ
  Basis Set: (AUG-CC-PVTZ AUX)
    Blend: AUG-CC-PVTZ-JKFIT + DEF2-UNIVERSAL-JKFIT
  @DF-RHF Final Energy:    -7.23638355159810
    Total Energy =                         -7.2363835515981014
 Dipole X            :         -6.9121739           10.3682356            3.4560617
 Dipole Y            :          0.0000052            0.0000000            0.0000052
 Dipole Z            :          0.0000219            0.0000000            0.0000219
 Magnitude           :                                                    3.4560617
  Basis Set: (AUG-CC-PVTZ AUX)
    Blend: AUG-CC-PVTZ-RI + DEF2-QZVPP-RI
	 Reference Energy          =      -7.2363835515981014 [Eh]
	 Singles Energy            =      -0.0000000000000000 [Eh]
	 Same-Spin Energy          =      -0.0000000000000000 [Eh]
	 Opposite-Spin Energy      =      -0.0132556825876983 [Eh]
	 Correlation Energy        =      -0.0132556825876983 [Eh]
	 Total Energy              =      -7.2496392341857998 [Eh]
	 SCS Total Energy          =      -7.2522903707033395 [Eh]
                               Psi4 1.9 release
    Molecular point group: c1
  Multiplicity = 1
  Basis Set: AUG-CC-PVTZ
    Blend: AUG-CC-PVTZ
  Basis Set: (AUG-CC-PVTZ AUX)
    Blend: AUG-CC-PVTZ-JKFIT + DEF2-UNIVERSAL-JKFIT
  @DF-RHF Final Energy:   -76.06026764817429
    Total Energy =                        -76.0602676481742890
  Basis Set: (AUG-CC-PVTZ AUX)
	 Singles Energy            =      -0.0000000000000000 [Eh]
	 Same-Spin Energy          =      -0.0684800137735161 [Eh]
	 Opposite-Spin Energy      =      -0.2158825159429493 [Eh]
	 Correlation Energy        =      -0.2843625297164654 [Eh]
	 Total Energy              =     -76.3446301778907497 [Eh]
	 SCS Total Energy          =     -76.3421533385636621 [Eh]
                               Psi4 1.9 release
    Molecular point group: c1

    Geometry (in Bohr), charge = 1, multiplicity = 1:

       Center              X                  Y                   Z               Mass
    ------------   -----------------  -----------------  -----------------  -----------------
         O            0.000000000000     0.000000000000     0.000000000000    15.994914619570
         H           -0.491702958392     1.681544446847     0.491702958392     1.007825032230
         H           -1.020342503632    -1.108573816430     1.020342503632     1.007825032230
         LI           3.456078536875     0.000000000000     0.000000000000     7.016003436600

  Charge       = 1
  Multiplicity = 1
  Basis Set: AUG-CC-PVTZ
    Blend: AUG-CC-PVTZ
  Basis Set: (AUG-CC-PVTZ AUX)
    Blend: AUG-CC-PVTZ-JKFIT + DEF2-UNIVERSAL-JKFIT

    Orbital Energies [Eh]
    ---------------------

    Doubly Occupied:

       1A    -20.818432     2A     -2.706172     3A     -1.608224
       4A     -0.968839     5A     -0.860645     6A     -0.774086

  @DF-RHF Final Energy:   -83.34720331347114

   => Energetics <=

    Nuclear Repulsion Energy =             17.4131310502947940
    One-Electron Energy =                -146.0478720513072517
    Two-Electron Energy =                  45.2875376875413167
    Total Energy =                        -83.3472033134711410
 Dipole X            :         -6.3709920            8.8561901            2.4851981
 Dipole Y            :         -0.3613036            0.5729706            0.2116670
 Dipole Z            :         -0.9305213            1.5120455            0.5815241
 Magnitude           :                                                    2.5610902
  Basis Set: (AUG-CC-PVTZ AUX)
    Blend: AUG-CC-PVTZ-RI + DEF2-QZVPP-RI
	 Reference Energy          =     -83.3472033134711410 [Eh]
	 Singles Energy            =      -0.0000000000000000 [Eh]
	 Same-Spin Energy          =      -0.0679511508127240 [Eh]
	 Opposite-Spin Energy      =      -0.2268321235604654 [Eh]
	 Correlation Energy        =      -0.2947832743731894 [Eh]
	 Total Energy              =     -83.6419865878443289 [Eh]

	 ================> DF-SCS-MP2 Energies <==================
	-----------------------------------------------------------
	 SCS Same-Spin Scale       =       0.3333333333333333 [-]
	 SCS Opposite-Spin Scale   =       1.2000000000000000 [-]
	 SCS Same-Spin Energy      =      -0.0226503836042413 [Eh]
	 SCS Opposite-Spin Energy  =      -0.2721985482725585 [Eh]
	 SCS Correlation Energy    =      -0.2948489318767998 [Eh]
	 SCS Total Energy          =     -83.6420522453479407 [Eh]
	-----------------------------------------------------------

*** Psi4 exiting successfully. Buy a developer a beer!
