                               Psi4 1.9 release

  ==> Input File <==

--------------------------------------------------------------------------
MEMORY 60 GB

molecule dimer {
0 1
O      0.000000     0.000000     0.000000
H     -0.675010     0.126242     0.675009
H      0.089266    -0.954608    -0.089266
--
1 1
Li     1.828878     0.000000     0.000000

units ang
no_reorient
no_com
symmetry c1
}

set {
basis        aug-cc-pVTZ
scf_type     df
}

energy("mp2", bsse_type="cp")
--------------------------------------------------------------------------

                               Psi4 1.9 release
    Molecular point group: c1
  Charge       = 1
  Multiplicity = 1
  Basis Set: AUG-CC-PVTZ
    Blend: AUG-CC-PVTZ
  Basis Set: (AUG-CC-PVTZ AUX)
    Blend: AUG-CC-PVTZ-JKFIT + DEF2-UNIVERSAL-JKFIT
  @DF-RHF Final Energy:    -7.23638355307308
    Total Energy =                         -7.2363835530730833
 Dipole X            :         -6.9121787           10.3682356            3.4560569
 Dipole Y            :         -0.0000066            0.0000000           -0.0000066
 Dipole Z            :          0.0000121            0.0000000            0.0000121
 Magnitude           :                                                    3.4560569
  Basis Set: (AUG-CC-PVTZ AUX)
    Blend: AUG-CC-PVTZ-RI + DEF2-QZVPP-RI
	 Reference Energy          =      -7.2363835530730833 [Eh]
	 Singles Energy            =      -0.0000000000000000 [Eh]
	 Same-Spin Energy          =      -0.0000000000000000 [Eh]
	 Opposite-Spin Energy      =      -0.0134091162285646 [Eh]
	 Correlation Energy        =      -0.0134091162285646 [Eh]
	 Total Energy              =      -7.2497926693016481 [Eh]
	 SCS Total Energy          =      -7.2524744925473605 [Eh]
                               Psi4 1.9 release
    Molecular point group: c1
  Multiplicity = 1
  Basis Set: AUG-CC-PVTZ
    Blend: AUG-CC-PVTZ
  Basis Set: (AUG-CC-PVTZ AUX)
    Blend: AUG-CC-PVTZ-JKFIT + DEF2-UNIVERSAL-JKFIT
  @DF-RHF Final Energy:   -76.06026784471482
    Total Energy =                        -76.0602678447148008
  Basis Set: (AUG-CC-PVTZ AUX)
	 Singles Energy            =      -0.0000000000000000 [Eh]
	 Same-Spin Energy          =      -0.0684795967407077 [Eh]
	 Opposite-Spin Energy      =      -0.2159112509668562 [Eh]
	 Correlation Energy        =      -0.2843908477075639 [Eh]
	 Total Energy              =     -76.3446586924223851 [Eh]
	 SCS Total Energy          =     -76.3421878781219476 [Eh]
                               Psi4 1.9 release
    Molecular point group: c1

    Geometry (in Bohr), charge = 1, multiplicity = 1:

       Center              X                  Y                   Z               Mass
    ------------   -----------------  -----------------  -----------------  -----------------
         O            0.000000000000     0.000000000000     0.000000000000    15.994914619570
         H           -1.275584031945     0.238562805530     1.275582142219     1.007825032230
         H            0.168688292315    -1.803947677171    -0.168688292315     1.007825032230
         LI           3.456078536875     0.000000000000     0.000000000000     7.016003436600

  Charge       = 1
  Multiplicity = 1
  Basis Set: AUG-CC-PVTZ
    Blend: AUG-CC-PVTZ
  Basis Set: (AUG-CC-PVTZ AUX)
    Blend: AUG-CC-PVTZ-JKFIT + DEF2-UNIVERSAL-JKFIT

    Orbital Energies [Eh]
    ---------------------

    Doubly Occupied:

       1A    -20.822890     2A     -2.717420     3A     -1.613362
       4A     -0.977076     5A     -0.856818     6A     -0.777815

  @DF-RHF Final Energy:   -83.33657898076797

   => Energetics <=

    Nuclear Repulsion Energy =             17.4940435873106743
    One-Electron Energy =                -146.1304810861062151
    Two-Electron Energy =                  45.2998585180275768
    Total Energy =                        -83.3365789807679676
 Dipole X            :         -6.6391596            9.2613399            2.6221803
 Dipole Y            :          0.9901255           -1.5653849           -0.5752593
 Dipole Z            :         -0.6720006            1.1068938            0.4348932
 Magnitude           :                                                    2.7195376
  Basis Set: (AUG-CC-PVTZ AUX)
    Blend: AUG-CC-PVTZ-RI + DEF2-QZVPP-RI
	 Reference Energy          =     -83.3365789807679676 [Eh]
	 Singles Energy            =      -0.0000000000000000 [Eh]
	 Same-Spin Energy          =      -0.0680897228136250 [Eh]
	 Opposite-Spin Energy      =      -0.2273829764511416 [Eh]
	 Correlation Energy        =      -0.2954726992647665 [Eh]
	 Total Energy              =     -83.6320516800327312 [Eh]

	 ================> DF-SCS-MP2 Energies <==================
	-----------------------------------------------------------
	 SCS Same-Spin Scale       =       0.3333333333333333 [-]
	 SCS Opposite-Spin Scale   =       1.2000000000000000 [-]
	 SCS Same-Spin Energy      =      -0.0226965742712083 [Eh]
	 SCS Opposite-Spin Energy  =      -0.2728595717413699 [Eh]
	 SCS Correlation Energy    =      -0.2955561460125782 [Eh]
	 SCS Total Energy          =     -83.6321351267805397 [Eh]
	-----------------------------------------------------------

*** Psi4 exiting successfully. Buy a developer a beer!
