                               Psi4 1.9 release

  ==> Input File <==

--------------------------------------------------------------------------
MEMORY 60 GB

molecule dimer {
0 1
O      0.000000     0.000000     0.000000
H     -0.414183     0.764276     0.414183
H     -0.414183    -0.764276     0.414183
--
1 1
Li     1.828878     0.000000     0.000000

units ang
no_reorient
no_com
symmetry c1
}

set {
basis        aug-cc-pVTZ
scf_type     df
}

energy("mp2", bsse_type="cp")
--------------------------------------------------------------------------

                               Psi4 1.9 release
    Molecular point group: c1
  Charge       = 1
  Multiplicity = 1
  Basis Set: AUG-CC-PVTZ
    Blend: AUG-CC-PVTZ
  Basis Set: (AUG-CC-PVTZ AUX)
    Blend: AUG-CC-PVTZ-JKFIT + DEF2-UNIVERSAL-JKFIT
  @DF-RHF Final Energy:    -7.23638354204268
    Total Energy =                         -7.2363835420426810
 Dipole X            :         -6.9121729           10.3682356            3.4560627
 Dipole Y            :          0.0000000            0.0000000            0.0000000
 Dipole Z            :          0.0000239            0.0000000            0.0000239
 Magnitude           :                                                    3.4560627
  Basis Set: (AUG-CC-PVTZ AUX)
    Blend: AUG-CC-PVTZ-RI + DEF2-QZVPP-RI
	 Reference Energy          =      -7.2363835420426810 [Eh]
	 Singles Energy            =      -0.0000000000000000 [Eh]
	 Same-Spin Energy          =       0.0000000000000000 [Eh]
	 Opposite-Spin Energy      =      -0.0132314355146210 [Eh]
	 Correlation Energy        =      -0.0132314355146210 [Eh]
	 Total Energy              =      -7.2496149775573020 [Eh]
	 SCS Total Energy          =      -7.2522612646602260 [Eh]
                               Psi4 1.9 release
    Molecular point group: c1
  Multiplicity = 1
  Basis Set: AUG-CC-PVTZ
    Blend: AUG-CC-PVTZ
  Basis Set: (AUG-CC-PVTZ AUX)
    Blend: AUG-CC-PVTZ-JKFIT + DEF2-UNIVERSAL-JKFIT
  @DF-RHF Final Energy:   -76.06026748695487
    Total Energy =                        -76.0602674869548707
  Basis Set: (AUG-CC-PVTZ AUX)
	 Singles Energy            =      -0.0000000000000000 [Eh]
	 Same-Spin Energy          =      -0.0684799498033096 [Eh]
	 Opposite-Spin Energy      =      -0.2158771511125119 [Eh]
	 Correlation Energy        =      -0.2843571009158214 [Eh]
	 Total Energy              =     -76.3446245878706975 [Eh]
	 SCS Total Energy          =     -76.3421467182243276 [Eh]
                               Psi4 1.9 release
    Molecular point group: c1

    Geometry (in Bohr), charge = 1, multiplicity = 1:

       Center              X                  Y                   Z               Mass
    ------------   -----------------  -----------------  -----------------  -----------------
         O            0.000000000000     0.000000000000     0.000000000000    15.994914619570
         H           -0.782692435820     1.444272324260     0.782692435820     1.007825032230
         H           -0.782692435820    -1.444272324260     0.782692435820     1.007825032230
         LI           3.456078536875     0.000000000000     0.000000000000     7.016003436600

  Charge       = 1
  Multiplicity = 1
  Basis Set: AUG-CC-PVTZ
    Blend: AUG-CC-PVTZ
  Basis Set: (AUG-CC-PVTZ AUX)
    Blend: AUG-CC-PVTZ-JKFIT + DEF2-UNIVERSAL-JKFIT

    Orbital Energies [Eh]
    ---------------------

    Doubly Occupied:

       1A    -20.817921     2A     -2.704686     3A     -1.607590
       4A     -0.967707     5A     -0.861311     6A     -0.773643

  @DF-RHF Final Energy:   -83.34854511447494

   => Energetics <=

    Nuclear Repulsion Energy =             17.4032210401562821
    One-Electron Energy =                -146.0378157472964347
    Two-Electron Energy =                  45.2860495926651865
    Total Energy =                        -83.3485451144749447
 Dipole X            :         -6.3359179            8.8028507            2.4669328
 Dipole Y            :         -0.0000000            0.0000000           -0.0000000
 Dipole Z            :         -0.9643614            1.5653849            0.6010234
 Magnitude           :                                                    2.5390917
  Basis Set: (AUG-CC-PVTZ AUX)
    Blend: AUG-CC-PVTZ-RI + DEF2-QZVPP-RI
	 Reference Energy          =     -83.3485451144749447 [Eh]
	 Singles Energy            =      -0.0000000000000000 [Eh]
	 Same-Spin Energy          =      -0.0679289668597939 [Eh]
	 Opposite-Spin Energy      =      -0.2267541026096226 [Eh]
	 Correlation Energy        =      -0.2946830694694165 [Eh]
	 Total Energy              =     -83.6432281839443590 [Eh]

	 ================> DF-SCS-MP2 Energies <==================
	-----------------------------------------------------------
	 SCS Same-Spin Scale       =       0.3333333333333333 [-]
	 SCS Opposite-Spin Scale   =       1.2000000000000000 [-]
	 SCS Same-Spin Energy      =      -0.0226429889532646 [Eh]
	 SCS Opposite-Spin Energy  =      -0.2721049231315471 [Eh]
	 SCS Correlation Energy    =      -0.2947479120848117 [Eh]
	 SCS Total Energy          =     -83.6432930265597605 [Eh]
	-----------------------------------------------------------

*** Psi4 exiting successfully. Buy a developer a beer!
