                               Psi4 1.9 release

  ==> Input File <==

--------------------------------------------------------------------------
MEMORY 60 GB

molecule dimer {
0 1
O      0.000000     0.000000     0.000000
H     -0.675113    -0.125130     0.675113
H      0.260930    -0.889406    -0.260930
--
1 1
Li     1.828878     0.000000     0.000000

units ang
no_reorient
no_com
symmetry c1
}

set {
basis        aug-cc-pVTZ
scf_type     df
}

energy("mp2", bsse_type="cp")
--------------------------------------------------------------------------

                               Psi4 1.9 release
    Molecular point group: c1
  Charge       = 1
  Multiplicity = 1
  Basis Set: AUG-CC-PVTZ
    Blend: AUG-CC-PVTZ
  Basis Set: (AUG-CC-PVTZ AUX)
    Blend: AUG-CC-PVTZ-JKFIT + DEF2-UNIVERSAL-JKFIT
  @DF-RHF Final Energy:    -7.23638356830723
    Total Energy =                         -7.2363835683072271
 Dipole X            :         -6.9121772           10.3682356            3.4560584
 Dipole Y            :          0.0000007            0.0000000            0.0000007
 Dipole Z            :          0.0000123            0.0000000            0.0000123
 Magnitude           :                                                    3.4560584
  Basis Set: (AUG-CC-PVTZ AUX)
    Blend: AUG-CC-PVTZ-RI + DEF2-QZVPP-RI
	 Reference Energy          =      -7.2363835683072262 [Eh]
	 Singles Energy            =      -0.0000000000000000 [Eh]
	 Same-Spin Energy          =       0.0000000000000000 [Eh]
	 Opposite-Spin Energy      =      -0.0135087160652266 [Eh]
	 Correlation Energy        =      -0.0135087160652266 [Eh]
	 Total Energy              =      -7.2498922843724527 [Eh]
	 SCS Total Energy          =      -7.2525940275854985 [Eh]
                               Psi4 1.9 release
    Molecular point group: c1
  Multiplicity = 1
  Basis Set: AUG-CC-PVTZ
    Blend: AUG-CC-PVTZ
  Basis Set: (AUG-CC-PVTZ AUX)
    Blend: AUG-CC-PVTZ-JKFIT + DEF2-UNIVERSAL-JKFIT
  @DF-RHF Final Energy:   -76.06026787147557
    Total Energy =                        -76.0602678714755740
  Basis Set: (AUG-CC-PVTZ AUX)
	 Singles Energy            =      -0.0000000000000000 [Eh]
	 Same-Spin Energy          =      -0.0684793112274693 [Eh]
	 Opposite-Spin Energy      =      -0.2159318983003005 [Eh]
	 Correlation Energy        =      -0.2844112095277698 [Eh]
	 Total Energy              =     -76.3446790810033491 [Eh]
	 SCS Total Energy          =     -76.3422125865117636 [Eh]
                               Psi4 1.9 release
    Molecular point group: c1

    Geometry (in Bohr), charge = 1, multiplicity = 1:

       Center              X                  Y                   Z               Mass
    ------------   -----------------  -----------------  -----------------  -----------------
         O            0.000000000000     0.000000000000     0.000000000000    15.994914619570
         H           -1.275778673736    -0.236461430079     1.275778673736     1.007825032230
         H            0.493086237916    -1.680733754339    -0.493086237916     1.007825032230
         LI           3.456078536875     0.000000000000     0.000000000000     7.016003436600

  Charge       = 1
  Multiplicity = 1
  Basis Set: AUG-CC-PVTZ
    Blend: AUG-CC-PVTZ
  Basis Set: (AUG-CC-PVTZ AUX)
    Blend: AUG-CC-PVTZ-JKFIT + DEF2-UNIVERSAL-JKFIT

    Orbital Energies [Eh]
    ---------------------

    Doubly Occupied:

       1A    -20.827096     2A     -2.726394     3A     -1.617813
       4A     -0.983267     5A     -0.855147     6A     -0.781196

  @DF-RHF Final Energy:   -83.32730543525048

   => Energetics <=

    Nuclear Repulsion Energy =             17.5663877383588485
    One-Electron Energy =                -146.2055633037984421
    Two-Electron Energy =                  45.3118701301891065
    Total Energy =                        -83.3273054352504801
 Dipole X            :         -6.8559713            9.5855432            2.7295718
 Dipole Y            :          1.2154922           -1.9171952           -0.7017030
 Dipole Z            :         -0.4625499            0.7826924            0.3201426
 Magnitude           :                                                    2.8364486
  Basis Set: (AUG-CC-PVTZ AUX)
    Blend: AUG-CC-PVTZ-RI + DEF2-QZVPP-RI
	 Reference Energy          =     -83.3273054352504801 [Eh]
	 Singles Energy            =      -0.0000000000000000 [Eh]
	 Same-Spin Energy          =      -0.0681694554970044 [Eh]
	 Opposite-Spin Energy      =      -0.2278079759784520 [Eh]
	 Correlation Energy        =      -0.2959774314754565 [Eh]
	 Total Energy              =     -83.6232828667259298 [Eh]

	 ================> DF-SCS-MP2 Energies <==================
	-----------------------------------------------------------
	 SCS Same-Spin Scale       =       0.3333333333333333 [-]
	 SCS Opposite-Spin Scale   =       1.2000000000000000 [-]
	 SCS Same-Spin Energy      =      -0.0227231518323348 [Eh]
	 SCS Opposite-Spin Energy  =      -0.2733695711741425 [Eh]
	 SCS Correlation Energy    =      -0.2960927230064773 [Eh]
	 SCS Total Energy          =     -83.6233981582569612 [Eh]
	-----------------------------------------------------------

*** Psi4 exiting successfully. Buy a developer a beer!
