                               Psi4 1.9 release

  ==> Input File <==

--------------------------------------------------------------------------
MEMORY 60 GB

molecule dimer {
0 1
O      0.000000     0.000000     0.000000
H     -0.415830     0.760558     0.415830
H     -0.415830    -0.760558     0.415830
--
1 1
Na     2.158940     0.000000     0.000000

units ang
no_reorient
no_com
symmetry c1
}

set {
basis        aug-cc-pVTZ
scf_type     df
}

energy("mp2", bsse_type="cp")
--------------------------------------------------------------------------

                               Psi4 1.9 release
    Molecular point group: c1
  Charge       = 1
  Multiplicity = 1
  Basis Set: AUG-CC-PVTZ
    Blend: AUG-CC-PVTZ
  Basis Set: (AUG-CC-PVTZ AUX)
    Blend: AUG-CC-PVTZ-JKFIT + DEF2-UNIVERSAL-JKFIT
  @DF-RHF Final Energy:  -161.67604414609397
    Total Energy =                       -161.6760441460939433
 Dipole X            :        -40.7986342           44.8778585            4.0792243
 Dipole Y            :         -0.0000000            0.0000000           -0.0000000
 Dipole Z            :          0.0000697            0.0000000            0.0000697
 Magnitude           :                                                    4.0792243
  Basis Set: (AUG-CC-PVTZ AUX)
    Blend: AUG-CC-PVTZ-RI + DEF2-QZVPP-RI
	 Reference Energy          =    -161.6760441460939717 [Eh]
	 Singles Energy            =      -0.0000000000000000 [Eh]
	 Same-Spin Energy          =      -0.0029902615487716 [Eh]
	 Opposite-Spin Energy      =      -0.0108068303201513 [Eh]
	 Correlation Energy        =      -0.0137970918689229 [Eh]
	 Total Energy              =    -161.6898412379628951 [Eh]
	 SCS Total Energy          =    -161.6900090963277421 [Eh]
                               Psi4 1.9 release
    Molecular point group: c1
  Multiplicity = 1
  Basis Set: AUG-CC-PVTZ
    Blend: AUG-CC-PVTZ
  Basis Set: (AUG-CC-PVTZ AUX)
    Blend: AUG-CC-PVTZ-JKFIT + DEF2-UNIVERSAL-JKFIT
  @DF-RHF Final Energy:   -76.06037974631600
    Total Energy =                        -76.0603797463159879
  Basis Set: (AUG-CC-PVTZ AUX)
	 Singles Energy            =      -0.0000000000000000 [Eh]
	 Same-Spin Energy          =      -0.0684542587943949 [Eh]
	 Opposite-Spin Energy      =      -0.2157959471802219 [Eh]
	 Correlation Energy        =      -0.2842502059746168 [Eh]
	 Total Energy              =     -76.3446299522906173 [Eh]
	 SCS Total Energy          =     -76.3421529691970733 [Eh]
                               Psi4 1.9 release
    Molecular point group: c1

    Geometry (in Bohr), charge = 1, multiplicity = 1:

       Center              X                  Y                   Z               Mass
    ------------   -----------------  -----------------  -----------------  -----------------
         O            0.000000000000     0.000000000000     0.000000000000    15.994914619570
         H           -0.785804814749     1.437246322526     0.785804814749     1.007825032230
         H           -0.785804814749    -1.437246322526     0.785804814749     1.007825032230
         NA           4.079805321296     0.000000000000     0.000000000000    22.989769282000

  Charge       = 1
  Multiplicity = 1
  Basis Set: AUG-CC-PVTZ
    Blend: AUG-CC-PVTZ
  Basis Set: (AUG-CC-PVTZ AUX)
    Blend: AUG-CC-PVTZ-JKFIT + DEF2-UNIVERSAL-JKFIT

    Orbital Energies [Eh]
    ---------------------

    Doubly Occupied:

       1A    -40.697599     2A    -20.782840     3A     -3.016082
       4A     -1.740398     5A     -1.739751     6A     -1.739391
       7A     -1.571418     8A     -0.933628     9A     -0.819167
      10A     -0.736182

  @DF-RHF Final Energy:  -237.76979680469736

   => Energetics <=

    Nuclear Repulsion Energy =             35.0095885515200962
    One-Electron Energy =                -398.0058560439829876
    Two-Electron Energy =                 125.2264706877655129
    Total Energy =                       -237.7697968046973642
 Dipole X            :        -40.1115296           43.3062489            3.1947193
 Dipole Y            :         -0.0000000            0.0000000           -0.0000000
 Dipole Z            :         -0.9845761            1.5716096            0.5870335
 Magnitude           :                                                    3.2482056
  Basis Set: (AUG-CC-PVTZ AUX)
    Blend: AUG-CC-PVTZ-RI + DEF2-QZVPP-RI
	 Reference Energy          =    -237.7697968046973642 [Eh]
	 Singles Energy            =      -0.0000000000000000 [Eh]
	 Same-Spin Energy          =      -0.0710593417451383 [Eh]
	 Opposite-Spin Energy      =      -0.2247565740680986 [Eh]
	 Correlation Energy        =      -0.2958159158132369 [Eh]
	 Total Energy              =    -238.0656127205106145 [Eh]

	 ================> DF-SCS-MP2 Energies <==================
	-----------------------------------------------------------
	 SCS Same-Spin Scale       =       0.3333333333333333 [-]
	 SCS Opposite-Spin Scale   =       1.2000000000000000 [-]
	 SCS Same-Spin Energy      =      -0.0236864472483794 [Eh]
	 SCS Opposite-Spin Energy  =      -0.2697078888817183 [Eh]
	 SCS Correlation Energy    =      -0.2933943361300977 [Eh]
	 SCS Total Energy          =    -238.0631911408274561 [Eh]
	-----------------------------------------------------------

*** Psi4 exiting successfully. Buy a developer a beer!
