                               Psi4 1.9 release

  ==> Input File <==

--------------------------------------------------------------------------
MEMORY 60 GB

molecule dimer {
0 1
O      0.000000     0.000000     0.000000
H     -0.674315     0.121965     0.674315
H      0.086242    -0.953626    -0.086242
--
1 1
Na     2.158940     0.000000     0.000000

units ang
no_reorient
no_com
symmetry c1
}

set {
basis        aug-cc-pVTZ
scf_type     df
}

energy("mp2", bsse_type="cp")
--------------------------------------------------------------------------

                               Psi4 1.9 release
    Molecular point group: c1
  Charge       = 1
  Multiplicity = 1
  Basis Set: AUG-CC-PVTZ
    Blend: AUG-CC-PVTZ
  Basis Set: (AUG-CC-PVTZ AUX)
    Blend: AUG-CC-PVTZ-JKFIT + DEF2-UNIVERSAL-JKFIT
  @DF-RHF Final Energy:  -161.67604452755990
    Total Energy =                       -161.6760445275598954
 Dipole X            :        -40.7986829           44.8778585            4.0791756
 Dipole Y            :         -0.0000862            0.0000000           -0.0000862
 Dipole Z            :          0.0000429            0.0000000            0.0000429
 Magnitude           :                                                    4.0791756
  Basis Set: (AUG-CC-PVTZ AUX)
    Blend: AUG-CC-PVTZ-RI + DEF2-QZVPP-RI
	 Reference Energy          =    -161.6760445275598954 [Eh]
	 Singles Energy            =      -0.0000000000000000 [Eh]
	 Same-Spin Energy          =      -0.0029681804132999 [Eh]
	 Opposite-Spin Energy      =      -0.0107087324475127 [Eh]
	 Correlation Energy        =      -0.0136769128608126 [Eh]
	 Total Energy              =    -161.6897214404206977 [Eh]
	 SCS Total Energy          =    -161.6898843999680082 [Eh]
                               Psi4 1.9 release
    Molecular point group: c1
  Multiplicity = 1
  Basis Set: AUG-CC-PVTZ
    Blend: AUG-CC-PVTZ
  Basis Set: (AUG-CC-PVTZ AUX)
    Blend: AUG-CC-PVTZ-JKFIT + DEF2-UNIVERSAL-JKFIT
  @DF-RHF Final Energy:   -76.06037918585643
    Total Energy =                        -76.0603791858564193
  Basis Set: (AUG-CC-PVTZ AUX)
	 Singles Energy            =      -0.0000000000000000 [Eh]
	 Same-Spin Energy          =      -0.0684569132711655 [Eh]
	 Opposite-Spin Energy      =      -0.2158055804572406 [Eh]
	 Correlation Energy        =      -0.2842624937284062 [Eh]
	 Total Energy              =     -76.3446416795848393 [Eh]
	 SCS Total Energy          =     -76.3421648534955040 [Eh]
                               Psi4 1.9 release
    Molecular point group: c1

    Geometry (in Bohr), charge = 1, multiplicity = 1:

       Center              X                  Y                   Z               Mass
    ------------   -----------------  -----------------  -----------------  -----------------
         O            0.000000000000     0.000000000000     0.000000000000    15.994914619570
         H           -1.274270672288     0.230480446891     1.274270672288     1.007825032230
         H            0.162973760512    -1.802091966116    -0.162973760512     1.007825032230
         NA           4.079805321296     0.000000000000     0.000000000000    22.989769282000

  Charge       = 1
  Multiplicity = 1
  Basis Set: AUG-CC-PVTZ
    Blend: AUG-CC-PVTZ
  Basis Set: (AUG-CC-PVTZ AUX)
    Blend: AUG-CC-PVTZ-JKFIT + DEF2-UNIVERSAL-JKFIT

    Orbital Energies [Eh]
    ---------------------

    Doubly Occupied:

       1A    -40.707838     2A    -20.786910     3A     -3.025984
       4A     -1.751174     5A     -1.749188     6A     -1.749109
       7A     -1.575661     8A     -0.940047     9A     -0.817157
      10A     -0.739301

  @DF-RHF Final Energy:  -237.76046853546632

   => Energetics <=

    Nuclear Repulsion Energy =             35.2708038735176288
    One-Electron Energy =                -398.3778084236819268
    Two-Electron Energy =                 125.3465360146979606
    Total Energy =                       -237.7604685354663161
 Dipole X            :        -40.4128618           43.7665616            3.3536998
 Dipole Y            :          1.0070770           -1.5716115           -0.5645345
 Dipole Z            :         -0.6879694            1.1112969            0.4233275
 Magnitude           :                                                    3.4271282
  Basis Set: (AUG-CC-PVTZ AUX)
    Blend: AUG-CC-PVTZ-RI + DEF2-QZVPP-RI
	 Reference Energy          =    -237.7604685354663161 [Eh]
	 Singles Energy            =      -0.0000000000000000 [Eh]
	 Same-Spin Energy          =      -0.0711177578686755 [Eh]
	 Opposite-Spin Energy      =      -0.2249730425870863 [Eh]
	 Correlation Energy        =      -0.2960908004557617 [Eh]
	 Total Energy              =    -238.0565593359220884 [Eh]

	 ================> DF-SCS-MP2 Energies <==================
	-----------------------------------------------------------
	 SCS Same-Spin Scale       =       0.3333333333333333 [-]
	 SCS Opposite-Spin Scale   =       1.2000000000000000 [-]
	 SCS Same-Spin Energy      =      -0.0237059192895585 [Eh]
	 SCS Opposite-Spin Energy  =      -0.2699676511045035 [Eh]
	 SCS Correlation Energy    =      -0.2936735703940621 [Eh]
	 SCS Total Energy          =    -238.0541421058603646 [Eh]
	-----------------------------------------------------------

*** Psi4 exiting successfully. Buy a developer a beer!
