                               Psi4 1.9 release

  ==> Input File <==

--------------------------------------------------------------------------
MEMORY 60 GB

molecule dimer {
0 1
O      0.000000     0.000000     0.000000
H     -0.262470     0.886847     0.262470
H     -0.540853    -0.582438     0.540853
--
1 1
Na     2.158940     0.000000     0.000000

units ang
no_reorient
no_com
symmetry c1
}

set {
basis        aug-cc-pVTZ
scf_type     df
}

energy("mp2", bsse_type="cp")
--------------------------------------------------------------------------

                               Psi4 1.9 release
    Molecular point group: c1
  Charge       = 1
  Multiplicity = 1
  Basis Set: AUG-CC-PVTZ
    Blend: AUG-CC-PVTZ
  Basis Set: (AUG-CC-PVTZ AUX)
    Blend: AUG-CC-PVTZ-JKFIT + DEF2-UNIVERSAL-JKFIT
  @DF-RHF Final Energy:  -161.67604430290814
    Total Energy =                       -161.6760443029081671
 Dipole X            :        -40.7986479           44.8778585            4.0792106
 Dipole Y            :          0.0000294            0.0000000            0.0000294
 Dipole Z            :          0.0000689            0.0000000            0.0000689
 Magnitude           :                                                    4.0792106
  Basis Set: (AUG-CC-PVTZ AUX)
    Blend: AUG-CC-PVTZ-RI + DEF2-QZVPP-RI
	 Reference Energy          =    -161.6760443029081387 [Eh]
	 Singles Energy            =      -0.0000000000000000 [Eh]
	 Same-Spin Energy          =      -0.0029790854367644 [Eh]
	 Opposite-Spin Energy      =      -0.0107655287988450 [Eh]
	 Correlation Energy        =      -0.0137446142356094 [Eh]
	 Total Energy              =    -161.6897889171437441 [Eh]
	 SCS Total Energy          =    -161.6899559659456713 [Eh]
                               Psi4 1.9 release
    Molecular point group: c1
  Multiplicity = 1
  Basis Set: AUG-CC-PVTZ
    Blend: AUG-CC-PVTZ
  Basis Set: (AUG-CC-PVTZ AUX)
    Blend: AUG-CC-PVTZ-JKFIT + DEF2-UNIVERSAL-JKFIT
  @DF-RHF Final Energy:   -76.06037973823892
    Total Energy =                        -76.0603797382389075
  Basis Set: (AUG-CC-PVTZ AUX)
	 Singles Energy            =      -0.0000000000000000 [Eh]
	 Same-Spin Energy          =      -0.0684548617709013 [Eh]
	 Opposite-Spin Energy      =      -0.2157986524402923 [Eh]
	 Correlation Energy        =      -0.2842535142111935 [Eh]
	 Total Energy              =     -76.3446332524501088 [Eh]
	 SCS Total Energy          =     -76.3421564084242448 [Eh]
                               Psi4 1.9 release
    Molecular point group: c1

    Geometry (in Bohr), charge = 1, multiplicity = 1:

       Center              X                  Y                   Z               Mass
    ------------   -----------------  -----------------  -----------------  -----------------
         O            0.000000000000     0.000000000000     0.000000000000    15.994914619570
         H           -0.495996416149     1.675897945184     0.495996416149     1.007825032230
         H           -1.022064044132    -1.100648305059     1.022064044132     1.007825032230
         NA           4.079805321296     0.000000000000     0.000000000000    22.989769282000

  Charge       = 1
  Multiplicity = 1
  Basis Set: AUG-CC-PVTZ
    Blend: AUG-CC-PVTZ
  Basis Set: (AUG-CC-PVTZ AUX)
    Blend: AUG-CC-PVTZ-JKFIT + DEF2-UNIVERSAL-JKFIT

    Orbital Energies [Eh]
    ---------------------

    Doubly Occupied:

       1A    -40.698807     2A    -20.783276     3A     -3.017236
       4A     -1.741681     5A     -1.740812     6A     -1.740532
       7A     -1.571894     8A     -0.934394     9A     -0.818857
      10A     -0.736522

  @DF-RHF Final Energy:  -237.76876022804629

   => Energetics <=

    Nuclear Repulsion Energy =             35.0383892382339539
    One-Electron Energy =                -398.0462717205310241
    Two-Electron Energy =                 125.2391222542507734
    Total Energy =                       -237.7687602280462897
 Dipole X            :        -40.1464206           43.3597981            3.2133775
 Dipole Y            :         -0.3674811            0.5752496            0.2077686
 Dipole Z            :         -0.9502614            1.5180605            0.5677990
 Magnitude           :                                                    3.2697643
  Basis Set: (AUG-CC-PVTZ AUX)
    Blend: AUG-CC-PVTZ-RI + DEF2-QZVPP-RI
	 Reference Energy          =    -237.7687602280462897 [Eh]
	 Singles Energy            =      -0.0000000000000000 [Eh]
	 Same-Spin Energy          =      -0.0710589639001205 [Eh]
	 Opposite-Spin Energy      =      -0.2247526055003113 [Eh]
	 Correlation Energy        =      -0.2958115694004317 [Eh]
	 Total Energy              =    -238.0645717974467175 [Eh]

	 ================> DF-SCS-MP2 Energies <==================
	-----------------------------------------------------------
	 SCS Same-Spin Scale       =       0.3333333333333333 [-]
	 SCS Opposite-Spin Scale   =       1.2000000000000000 [-]
	 SCS Same-Spin Energy      =      -0.0236863213000401 [Eh]
	 SCS Opposite-Spin Energy  =      -0.2697031266003735 [Eh]
	 SCS Correlation Energy    =      -0.2933894479004137 [Eh]
	 SCS Total Energy          =    -238.0621496759466993 [Eh]
	-----------------------------------------------------------

*** Psi4 exiting successfully. Buy a developer a beer!
