                               Psi4 1.9 release

  ==> Input File <==

--------------------------------------------------------------------------
MEMORY 60 GB

molecule dimer {
0 1
O      0.000000     0.000000     0.000000
H     -0.091222     0.952699     0.091222
H     -0.629018    -0.364626     0.629018
--
1 1
Na     2.158940     0.000000     0.000000

units ang
no_reorient
no_com
symmetry c1
}

set {
basis        aug-cc-pVTZ
scf_type     df
}

energy("mp2", bsse_type="cp")
--------------------------------------------------------------------------

                               Psi4 1.9 release
    Molecular point group: c1
  Charge       = 1
  Multiplicity = 1
  Basis Set: AUG-CC-PVTZ
    Blend: AUG-CC-PVTZ
  Basis Set: (AUG-CC-PVTZ AUX)
    Blend: AUG-CC-PVTZ-JKFIT + DEF2-UNIVERSAL-JKFIT
  @DF-RHF Final Energy:  -161.67604432395751
    Total Energy =                       -161.6760443239575125
 Dipole X            :        -40.7986733           44.8778585            4.0791852
 Dipole Y            :          0.0000569            0.0000000            0.0000569
 Dipole Z            :          0.0000615            0.0000000            0.0000615
 Magnitude           :                                                    4.0791852
  Basis Set: (AUG-CC-PVTZ AUX)
    Blend: AUG-CC-PVTZ-RI + DEF2-QZVPP-RI
	 Reference Energy          =    -161.6760443239575125 [Eh]
	 Singles Energy            =      -0.0000000000000000 [Eh]
	 Same-Spin Energy          =      -0.0029523301065642 [Eh]
	 Opposite-Spin Energy      =      -0.0106725041924942 [Eh]
	 Correlation Energy        =      -0.0136248342990584 [Eh]
	 Total Energy              =    -161.6896691582565779 [Eh]
	 SCS Total Energy          =    -161.6898354390240229 [Eh]
                               Psi4 1.9 release
    Molecular point group: c1
  Multiplicity = 1
  Basis Set: AUG-CC-PVTZ
    Blend: AUG-CC-PVTZ
  Basis Set: (AUG-CC-PVTZ AUX)
    Blend: AUG-CC-PVTZ-JKFIT + DEF2-UNIVERSAL-JKFIT
  @DF-RHF Final Energy:   -76.06037953108829
    Total Energy =                        -76.0603795310882873
  Basis Set: (AUG-CC-PVTZ AUX)
	 Singles Energy            =      -0.0000000000000000 [Eh]
	 Same-Spin Energy          =      -0.0684562148348136 [Eh]
	 Opposite-Spin Energy      =      -0.2158041359533118 [Eh]
	 Correlation Energy        =      -0.2842603507881253 [Eh]
	 Total Energy              =     -76.3446398818764180 [Eh]
	 SCS Total Energy          =     -76.3421632325105293 [Eh]
                               Psi4 1.9 release
    Molecular point group: c1

    Geometry (in Bohr), charge = 1, multiplicity = 1:

       Center              X                  Y                   Z               Mass
    ------------   -----------------  -----------------  -----------------  -----------------
         O            0.000000000000     0.000000000000     0.000000000000    15.994914619570
         H           -0.172384596617     1.800340189998     0.172384596617     1.007825032230
         H           -1.188671747983    -0.689043278221     1.188671747983     1.007825032230
         NA           4.079805321296     0.000000000000     0.000000000000    22.989769282000

  Charge       = 1
  Multiplicity = 1
  Basis Set: AUG-CC-PVTZ
    Blend: AUG-CC-PVTZ
  Basis Set: (AUG-CC-PVTZ AUX)
    Blend: AUG-CC-PVTZ-JKFIT + DEF2-UNIVERSAL-JKFIT

    Orbital Energies [Eh]
    ---------------------

    Doubly Occupied:

       1A    -40.702337     2A    -20.784614     3A     -3.020622
       4A     -1.745370     5A     -1.744013     6A     -1.743868
       7A     -1.573321     8A     -0.936613     9A     -0.818067
      10A     -0.737555

  @DF-RHF Final Energy:  -237.76565342726531

   => Energetics <=

    Nuclear Repulsion Energy =             35.1252189230176555
    One-Electron Energy =                -398.1689864979813933
    Two-Electron Energy =                 125.2781141476984459
    Total Energy =                       -237.7656534272653062
 Dipole X            :        -40.2489718           43.5168022            3.2678304
 Dipole Y            :         -0.7107902            1.1112969            0.4005067
 Dipole Z            :         -0.8493806            1.3610563            0.5116757
 Magnitude           :                                                    3.3318063
  Basis Set: (AUG-CC-PVTZ AUX)
    Blend: AUG-CC-PVTZ-RI + DEF2-QZVPP-RI
	 Reference Energy          =    -237.7656534272653062 [Eh]
	 Singles Energy            =      -0.0000000000000000 [Eh]
	 Same-Spin Energy          =      -0.0710614261605252 [Eh]
	 Opposite-Spin Energy      =      -0.2247675792457013 [Eh]
	 Correlation Energy        =      -0.2958290054062265 [Eh]
	 Total Energy              =    -238.0614824326715393 [Eh]

	 ================> DF-SCS-MP2 Energies <==================
	-----------------------------------------------------------
	 SCS Same-Spin Scale       =       0.3333333333333333 [-]
	 SCS Opposite-Spin Scale   =       1.2000000000000000 [-]
	 SCS Same-Spin Energy      =      -0.0236871420535084 [Eh]
	 SCS Opposite-Spin Energy  =      -0.2697210950948415 [Eh]
	 SCS Correlation Energy    =      -0.2934082371483500 [Eh]
	 SCS Total Energy          =    -238.0590616644136617 [Eh]
	-----------------------------------------------------------

*** Psi4 exiting successfully. Buy a developer a beer!
