                               Psi4 1.9 release

  ==> Input File <==

--------------------------------------------------------------------------
MEMORY 60 GB

molecule dimer {
0 1
O      0.000000     0.000000     0.000000
H     -0.673660    -0.129007     0.673660
H      0.257830    -0.889565    -0.257830
--
1 1
Na     2.158940     0.000000     0.000000

units ang
no_reorient
no_com
symmetry c1
}

set {
basis        aug-cc-pVTZ
scf_type     df
}

energy("mp2", bsse_type="cp")
--------------------------------------------------------------------------

                               Psi4 1.9 release
    Molecular point group: c1
  Charge       = 1
  Multiplicity = 1
  Basis Set: AUG-CC-PVTZ
    Blend: AUG-CC-PVTZ
  Basis Set: (AUG-CC-PVTZ AUX)
    Blend: AUG-CC-PVTZ-JKFIT + DEF2-UNIVERSAL-JKFIT
  @DF-RHF Final Energy:  -161.67604550297472
    Total Energy =                       -161.6760455029747163
 Dipole X            :        -40.7986883           44.8778585            4.0791702
 Dipole Y            :         -0.0001170            0.0000000           -0.0001170
 Dipole Z            :          0.0000077            0.0000000            0.0000077
 Magnitude           :                                                    4.0791702
  Basis Set: (AUG-CC-PVTZ AUX)
    Blend: AUG-CC-PVTZ-RI + DEF2-QZVPP-RI
	 Reference Energy          =    -161.6760455029747163 [Eh]
	 Singles Energy            =      -0.0000000000000000 [Eh]
	 Same-Spin Energy          =      -0.0031447349967410 [Eh]
	 Opposite-Spin Energy      =      -0.0112103799795884 [Eh]
	 Correlation Energy        =      -0.0143551149763294 [Eh]
	 Total Energy              =    -161.6904006179510418 [Eh]
	 SCS Total Energy          =    -161.6905462039491397 [Eh]
                               Psi4 1.9 release
    Molecular point group: c1
  Multiplicity = 1
  Basis Set: AUG-CC-PVTZ
    Blend: AUG-CC-PVTZ
  Basis Set: (AUG-CC-PVTZ AUX)
    Blend: AUG-CC-PVTZ-JKFIT + DEF2-UNIVERSAL-JKFIT
  @DF-RHF Final Energy:   -76.06037946783243
    Total Energy =                        -76.0603794678324334
  Basis Set: (AUG-CC-PVTZ AUX)
	 Singles Energy            =      -0.0000000000000000 [Eh]
	 Same-Spin Energy          =      -0.0684558767305840 [Eh]
	 Opposite-Spin Energy      =      -0.2157995374507065 [Eh]
	 Correlation Energy        =      -0.2842554141812905 [Eh]
	 Total Energy              =     -76.3446348820137217 [Eh]
	 SCS Total Energy          =     -76.3421575383501363 [Eh]
                               Psi4 1.9 release
    Molecular point group: c1

    Geometry (in Bohr), charge = 1, multiplicity = 1:

       Center              X                  Y                   Z               Mass
    ------------   -----------------  -----------------  -----------------  -----------------
         O            0.000000000000     0.000000000000     0.000000000000    15.994914619570
         H           -1.273032901676    -0.243787898267     1.273032901676     1.007825032230
         H            0.487228086927    -1.681034220793    -0.487228086927     1.007825032230
         NA           4.079805321296     0.000000000000     0.000000000000    22.989769282000

  Charge       = 1
  Multiplicity = 1
  Basis Set: AUG-CC-PVTZ
    Blend: AUG-CC-PVTZ
  Basis Set: (AUG-CC-PVTZ AUX)
    Blend: AUG-CC-PVTZ-JKFIT + DEF2-UNIVERSAL-JKFIT

    Orbital Energies [Eh]
    ---------------------

    Doubly Occupied:

       1A    -40.714751     2A    -20.790128     3A     -3.032926
       4A     -1.758761     5A     -1.755945     6A     -1.755830
       7A     -1.578779     8A     -0.944306     9A     -0.816534
      10A     -0.741713

  @DF-RHF Final Energy:  -237.75315491173004

   => Energetics <=

    Nuclear Repulsion Energy =             35.4742324032525076
    One-Electron Energy =                -398.6754317770291323
    Two-Electron Energy =                 125.4480444620465676
    Total Energy =                       -237.7531549117300358
 Dipole X            :        -40.6275185           44.0920537            3.4645352
 Dipole Y            :          1.2357256           -1.9248221           -0.6890965
 Dipole Z            :         -0.4758085            0.7858048            0.3099963
 Magnitude           :                                                    3.5459774
  Basis Set: (AUG-CC-PVTZ AUX)
    Blend: AUG-CC-PVTZ-RI + DEF2-QZVPP-RI
	 Reference Energy          =    -237.7531549117300358 [Eh]
	 Singles Energy            =      -0.0000000000000000 [Eh]
	 Same-Spin Energy          =      -0.0713382629721261 [Eh]
	 Opposite-Spin Energy      =      -0.2256966874520631 [Eh]
	 Correlation Energy        =      -0.2970349504241893 [Eh]
	 Total Energy              =    -238.0501898621542125 [Eh]

	 ================> DF-SCS-MP2 Energies <==================
	-----------------------------------------------------------
	 SCS Same-Spin Scale       =       0.3333333333333333 [-]
	 SCS Opposite-Spin Scale   =       1.2000000000000000 [-]
	 SCS Same-Spin Energy      =      -0.0237794209907087 [Eh]
	 SCS Opposite-Spin Energy  =      -0.2708360249424758 [Eh]
	 SCS Correlation Energy    =      -0.2946154459331845 [Eh]
	 SCS Total Energy          =    -238.0477703576632109 [Eh]
	-----------------------------------------------------------

*** Psi4 exiting successfully. Buy a developer a beer!
