                               Psi4 1.9 release

  ==> Input File <==

--------------------------------------------------------------------------
MEMORY 60 GB

molecule dimer {
0 1
O      0.000000     0.000000     0.000000
H     -0.265805     0.884151     0.265805
H     -0.542788    -0.577745     0.542788
--
1 1
K      2.466222     0.000000     0.000000

units ang
no_reorient
no_com
symmetry c1
}

set {
basis        aug-cc-pVTZ
scf_type     df
}

energy("mp2", bsse_type="cp")
--------------------------------------------------------------------------

                               Psi4 1.9 release
    Molecular point group: c1
  Charge       = 1
  Multiplicity = 1
  Basis Set: AUG-CC-PVTZ
    Blend: AUG-CC-PVTZ
  Basis Set: (AUG-CC-PVTZ AUX)
    Blend: AUG-CC-PVTZ-JKFIT + DEF2-UNIVERSAL-JKFIT
  @DF-RHF Final Energy:  -599.01750885722743
    Total Energy =                       -599.0175088572273125
 Dipole X            :        -83.8891547           88.5491987            4.6600440
 Dipole Y            :          0.0000100            0.0000000            0.0000100
 Dipole Z            :          0.0000944            0.0000000            0.0000944
 Magnitude           :                                                    4.6600440
  Basis Set: (AUG-CC-PVTZ AUX)
    Blend: AUG-CC-PVTZ-RI + DEF2-QZVPP-RI
	 Reference Energy          =    -599.0175088572274262 [Eh]
	 Singles Energy            =      -0.0000000000000000 [Eh]
	 Same-Spin Energy          =      -0.0289630554179503 [Eh]
	 Opposite-Spin Energy      =      -0.0684535161511933 [Eh]
	 Correlation Energy        =      -0.0974165715691436 [Eh]
	 Total Energy              =    -599.1149254287965960 [Eh]
	 SCS Total Energy          =    -599.1093074284148088 [Eh]
                               Psi4 1.9 release
    Molecular point group: c1
  Multiplicity = 1
  Basis Set: AUG-CC-PVTZ
    Blend: AUG-CC-PVTZ
  Basis Set: (AUG-CC-PVTZ AUX)
    Blend: AUG-CC-PVTZ-JKFIT + DEF2-UNIVERSAL-JKFIT
  @DF-RHF Final Energy:   -76.06034518769675
    Total Energy =                        -76.0603451876967540
  Basis Set: (AUG-CC-PVTZ AUX)
	 Singles Energy            =      -0.0000000000000000 [Eh]
	 Same-Spin Energy          =      -0.0684306580967459 [Eh]
	 Opposite-Spin Energy      =      -0.2155482206601730 [Eh]
	 Correlation Energy        =      -0.2839788787569189 [Eh]
	 Total Energy              =     -76.3443240664536660 [Eh]
	 SCS Total Energy          =     -76.3418132718545479 [Eh]
                               Psi4 1.9 release
    Molecular point group: c1

    Geometry (in Bohr), charge = 1, multiplicity = 1:

       Center              X                  Y                   Z               Mass
    ------------   -----------------  -----------------  -----------------  -----------------
         O            0.000000000000     0.000000000000     0.000000000000    15.994914619570
         H           -0.502298652777     1.670803243550     0.502298652777     1.007825032230
         H           -1.025720664185    -1.091779820353     1.025720664185     1.007825032230
         K            4.660484144579     0.000000000000     0.000000000000    38.963706486400

  Charge       = 1
  Multiplicity = 1
  Basis Set: AUG-CC-PVTZ
    Blend: AUG-CC-PVTZ
  Basis Set: (AUG-CC-PVTZ AUX)
    Blend: AUG-CC-PVTZ-JKFIT + DEF2-UNIVERSAL-JKFIT

    Orbital Energies [Eh]
    ---------------------

    Doubly Occupied:

       1A   -133.705326     2A    -20.761072     3A    -14.662415
       4A    -11.692383     5A    -11.692351     6A    -11.692219
       7A     -1.922610     8A     -1.552601     9A     -1.131519
      10A     -1.130742    11A     -1.130212    12A     -0.911932
      13A     -0.791994    14A     -0.712219

  @DF-RHF Final Energy:  -675.09735537078382

   => Energetics <=

    Nuclear Repulsion Energy =             48.4947426333130238
    One-Electron Energy =               -1020.2050005883817221
    Two-Electron Energy =                 296.6129025842849387
    Total Energy =                       -675.0973553707838164
 Dipole X            :        -83.2629567           87.0211794            3.7582227
 Dipole Y            :         -0.3815779            0.5790234            0.1974455
 Dipole Z            :         -0.9686846            1.5280193            0.5593347
 Magnitude           :                                                    3.8047441
  Basis Set: (AUG-CC-PVTZ AUX)
    Blend: AUG-CC-PVTZ-RI + DEF2-QZVPP-RI
	 Reference Energy          =    -675.0973553707838164 [Eh]
	 Singles Energy            =      -0.0000000000000000 [Eh]
	 Same-Spin Energy          =      -0.0985821091364854 [Eh]
	 Opposite-Spin Energy      =      -0.2840535156207908 [Eh]
	 Correlation Energy        =      -0.3826356247572762 [Eh]
	 Total Energy              =    -675.4799909955411295 [Eh]

	 ================> DF-SCS-MP2 Energies <==================
	-----------------------------------------------------------
	 SCS Same-Spin Scale       =       0.3333333333333333 [-]
	 SCS Opposite-Spin Scale   =       1.2000000000000000 [-]
	 SCS Same-Spin Energy      =      -0.0328607030454951 [Eh]
	 SCS Opposite-Spin Energy  =      -0.3408642187449490 [Eh]
	 SCS Correlation Energy    =      -0.3737249217904441 [Eh]
	 SCS Total Energy          =    -675.4710802925742428 [Eh]
	-----------------------------------------------------------

*** Psi4 exiting successfully. Buy a developer a beer!
