                               Psi4 1.9 release

  ==> Input File <==

--------------------------------------------------------------------------
MEMORY 60 GB

molecule dimer {
0 1
O      0.000000     0.000000     0.000000
H     -0.630028     0.359385     0.630028
H     -0.094937    -0.951316     0.094937
--
1 1
K      2.466222     0.000000     0.000000

units ang
no_reorient
no_com
symmetry c1
}

set {
basis        aug-cc-pVTZ
scf_type     df
}

energy("mp2", bsse_type="cp")
--------------------------------------------------------------------------

                               Psi4 1.9 release
    Molecular point group: c1
  Charge       = 1
  Multiplicity = 1
  Basis Set: AUG-CC-PVTZ
    Blend: AUG-CC-PVTZ
  Basis Set: (AUG-CC-PVTZ AUX)
    Blend: AUG-CC-PVTZ-JKFIT + DEF2-UNIVERSAL-JKFIT
  @DF-RHF Final Energy:  -599.01750887400408
    Total Energy =                       -599.0175088740040792
 Dipole X            :        -83.8891447           88.5491987            4.6600541
 Dipole Y            :         -0.0000225            0.0000000           -0.0000225
 Dipole Z            :          0.0000806            0.0000000            0.0000806
 Magnitude           :                                                    4.6600541
  Basis Set: (AUG-CC-PVTZ AUX)
    Blend: AUG-CC-PVTZ-RI + DEF2-QZVPP-RI
	 Reference Energy          =    -599.0175088740040792 [Eh]
	 Singles Energy            =      -0.0000000000000000 [Eh]
	 Same-Spin Energy          =      -0.0290427503826328 [Eh]
	 Opposite-Spin Energy      =      -0.0686590316840468 [Eh]
	 Correlation Energy        =      -0.0977017820666796 [Eh]
	 Total Energy              =    -599.1152106560707580 [Eh]
	 SCS Total Energy          =    -599.1095806288191170 [Eh]
                               Psi4 1.9 release
    Molecular point group: c1
  Multiplicity = 1
  Basis Set: AUG-CC-PVTZ
    Blend: AUG-CC-PVTZ
  Basis Set: (AUG-CC-PVTZ AUX)
    Blend: AUG-CC-PVTZ-JKFIT + DEF2-UNIVERSAL-JKFIT
  @DF-RHF Final Energy:   -76.06034402169648
    Total Energy =                        -76.0603440216964799
  Basis Set: (AUG-CC-PVTZ AUX)
	 Singles Energy            =      -0.0000000000000000 [Eh]
	 Same-Spin Energy          =      -0.0684311179008193 [Eh]
	 Opposite-Spin Energy      =      -0.2155538642795742 [Eh]
	 Correlation Energy        =      -0.2839849821803934 [Eh]
	 Total Energy              =     -76.3443290038768794 [Eh]
	 SCS Total Energy          =     -76.3418190314655760 [Eh]
                               Psi4 1.9 release
    Molecular point group: c1

    Geometry (in Bohr), charge = 1, multiplicity = 1:

       Center              X                  Y                   Z               Mass
    ------------   -----------------  -----------------  -----------------  -----------------
         O            0.000000000000     0.000000000000     0.000000000000    15.994914619570
         H           -1.190580371370     0.679139223598     1.190580371370     1.007825032230
         H           -0.179404929173    -1.797726698766     0.179404929173     1.007825032230
         K            4.660484144579     0.000000000000     0.000000000000    38.963706486400

  Charge       = 1
  Multiplicity = 1
  Basis Set: AUG-CC-PVTZ
    Blend: AUG-CC-PVTZ
  Basis Set: (AUG-CC-PVTZ AUX)
    Blend: AUG-CC-PVTZ-JKFIT + DEF2-UNIVERSAL-JKFIT

    Orbital Energies [Eh]
    ---------------------

    Doubly Occupied:

       1A   -133.708089     2A    -20.762202     3A    -14.665144
       4A    -11.695119     5A    -11.695079     6A    -11.694953
       7A     -1.925261     8A     -1.553776     9A     -1.134619
      10A     -1.133188    11A     -1.132530    12A     -0.913075
      13A     -0.791904    14A     -0.712936

  @DF-RHF Final Energy:  -675.09490344844153

   => Energetics <=

    Nuclear Repulsion Energy =             48.6165831687105765
    One-Electron Energy =               -1020.3872225347851099
    Two-Electron Energy =                 296.6757359176330624
    Total Energy =                       -675.0949034484415279
 Dipole X            :        -83.3615116           87.1792134            3.8177019
 Dipole Y            :          0.7377439           -1.1185875           -0.3808436
 Dipole Z            :         -0.8632584            1.3699853            0.5067269
 Magnitude           :                                                    3.8699692
  Basis Set: (AUG-CC-PVTZ AUX)
    Blend: AUG-CC-PVTZ-RI + DEF2-QZVPP-RI
	 Reference Energy          =    -675.0949034484415279 [Eh]
	 Singles Energy            =      -0.0000000000000000 [Eh]
	 Same-Spin Energy          =      -0.0986897120266836 [Eh]
	 Opposite-Spin Energy      =      -0.2843598675137243 [Eh]
	 Correlation Energy        =      -0.3830495795404080 [Eh]
	 Total Energy              =    -675.4779530279819255 [Eh]

	 ================> DF-SCS-MP2 Energies <==================
	-----------------------------------------------------------
	 SCS Same-Spin Scale       =       0.3333333333333333 [-]
	 SCS Opposite-Spin Scale   =       1.2000000000000000 [-]
	 SCS Same-Spin Energy      =      -0.0328965706755612 [Eh]
	 SCS Opposite-Spin Energy  =      -0.3412318410164692 [Eh]
	 SCS Correlation Energy    =      -0.3741284116920304 [Eh]
	 SCS Total Energy          =    -675.4690318601335548 [Eh]
	-----------------------------------------------------------

*** Psi4 exiting successfully. Buy a developer a beer!
