                               Psi4 1.9 release

  ==> Input File <==

--------------------------------------------------------------------------
MEMORY 60 GB

molecule dimer {
0 1
O      0.000000     0.000000     0.000000
H      0.082401     0.953649    -0.082401
H     -0.674332    -0.116533     0.674332
--
1 1
K      2.466222     0.000000     0.000000

units ang
no_reorient
no_com
symmetry c1
}

set {
basis        aug-cc-pVTZ
scf_type     df
}

energy("mp2", bsse_type="cp")
--------------------------------------------------------------------------

                               Psi4 1.9 release
    Molecular point group: c1
  Charge       = 1
  Multiplicity = 1
  Basis Set: AUG-CC-PVTZ
    Blend: AUG-CC-PVTZ
  Basis Set: (AUG-CC-PVTZ AUX)
    Blend: AUG-CC-PVTZ-JKFIT + DEF2-UNIVERSAL-JKFIT
  @DF-RHF Final Energy:  -599.01750897223178
    Total Energy =                       -599.0175089722316670
 Dipole X            :        -83.8891473           88.5491987            4.6600514
 Dipole Y            :          0.0000527            0.0000000            0.0000527
 Dipole Z            :          0.0000587            0.0000000            0.0000587
 Magnitude           :                                                    4.6600514
  Basis Set: (AUG-CC-PVTZ AUX)
    Blend: AUG-CC-PVTZ-RI + DEF2-QZVPP-RI
	 Reference Energy          =    -599.0175089722317807 [Eh]
	 Singles Energy            =      -0.0000000000000000 [Eh]
	 Same-Spin Energy          =      -0.0291970305532245 [Eh]
	 Opposite-Spin Energy      =      -0.0690940347847769 [Eh]
	 Correlation Energy        =      -0.0982910653380014 [Eh]
	 Total Energy              =    -599.1158000375697839 [Eh]
	 SCS Total Energy          =    -599.1101541574912517 [Eh]
                               Psi4 1.9 release
    Molecular point group: c1
  Multiplicity = 1
  Basis Set: AUG-CC-PVTZ
    Blend: AUG-CC-PVTZ
  Basis Set: (AUG-CC-PVTZ AUX)
    Blend: AUG-CC-PVTZ-JKFIT + DEF2-UNIVERSAL-JKFIT
  @DF-RHF Final Energy:   -76.06034303190174
    Total Energy =                        -76.0603430319017377
  Basis Set: (AUG-CC-PVTZ AUX)
	 Singles Energy            =      -0.0000000000000000 [Eh]
	 Same-Spin Energy          =      -0.0684323395015318 [Eh]
	 Opposite-Spin Energy      =      -0.2155635437472938 [Eh]
	 Correlation Energy        =      -0.2839958832488256 [Eh]
	 Total Energy              =     -76.3443389151505585 [Eh]
	 SCS Total Energy          =     -76.3418300642323402 [Eh]
                               Psi4 1.9 release
    Molecular point group: c1

    Geometry (in Bohr), charge = 1, multiplicity = 1:

       Center              X                  Y                   Z               Mass
    ------------   -----------------  -----------------  -----------------  -----------------
         O            0.000000000000     0.000000000000     0.000000000000    15.994914619570
         H            0.155715322464     1.802135429817    -0.155715322464     1.007825032230
         H           -1.274302797632    -0.220215454578     1.274302797632     1.007825032230
         K            4.660484144579     0.000000000000     0.000000000000    38.963706486400

  Charge       = 1
  Multiplicity = 1
  Basis Set: AUG-CC-PVTZ
    Blend: AUG-CC-PVTZ
  Basis Set: (AUG-CC-PVTZ AUX)
    Blend: AUG-CC-PVTZ-JKFIT + DEF2-UNIVERSAL-JKFIT

    Orbital Energies [Eh]
    ---------------------

    Doubly Occupied:

       1A   -133.712379     2A    -20.764044     3A    -14.669404
       4A    -11.699393     5A    -11.699337     6A    -11.699218
       7A     -1.929476     8A     -1.555686     9A     -1.139444
      10A     -1.137144    11A     -1.136319    12A     -0.914784
      13A     -0.791891    14A     -0.714113

  @DF-RHF Final Energy:  -675.09072591639483

   => Energetics <=

    Nuclear Repulsion Energy =             48.8191488280766563
    One-Electron Energy =               -1020.6944854007222148
    Two-Electron Energy =                 296.7846106562508339
    Total Energy =                       -675.0907259163947174
 Dipole X            :        -83.5190957           87.4306113            3.9115155
 Dipole Y            :         -1.0443449            1.5819200            0.5375751
 Dipole Z            :         -0.6947146            1.1185875            0.4238729
 Magnitude           :                                                    3.9709708
  Basis Set: (AUG-CC-PVTZ AUX)
    Blend: AUG-CC-PVTZ-RI + DEF2-QZVPP-RI
	 Reference Energy          =    -675.0907259163948311 [Eh]
	 Singles Energy            =      -0.0000000000000000 [Eh]
	 Same-Spin Energy          =      -0.0988959496167237 [Eh]
	 Opposite-Spin Energy      =      -0.2849676219180735 [Eh]
	 Correlation Energy        =      -0.3838635715347972 [Eh]
	 Total Energy              =    -675.4745894879296202 [Eh]

	 ================> DF-SCS-MP2 Energies <==================
	-----------------------------------------------------------
	 SCS Same-Spin Scale       =       0.3333333333333333 [-]
	 SCS Opposite-Spin Scale   =       1.2000000000000000 [-]
	 SCS Same-Spin Energy      =      -0.0329653165389079 [Eh]
	 SCS Opposite-Spin Energy  =      -0.3419611463016881 [Eh]
	 SCS Correlation Energy    =      -0.3749264628405961 [Eh]
	 SCS Total Energy          =    -675.4656523792353937 [Eh]
	-----------------------------------------------------------

*** Psi4 exiting successfully. Buy a developer a beer!
