                               Psi4 1.9 release

  ==> Input File <==

--------------------------------------------------------------------------
MEMORY 60 GB

molecule dimer {
0 1
O      0.000000     0.000000     0.000000
H     -0.418558     0.756733     0.418558
H     -0.418558    -0.756733     0.418558
--
1 1
K      2.466222     0.000000     0.000000

units ang
no_reorient
no_com
symmetry c1
}

set {
basis        aug-cc-pVTZ
scf_type     df
}

energy("mp2", bsse_type="cp")
--------------------------------------------------------------------------

                               Psi4 1.9 release
    Molecular point group: c1
  Charge       = 1
  Multiplicity = 1
  Basis Set: AUG-CC-PVTZ
    Blend: AUG-CC-PVTZ
  Basis Set: (AUG-CC-PVTZ AUX)
    Blend: AUG-CC-PVTZ-JKFIT + DEF2-UNIVERSAL-JKFIT
  @DF-RHF Final Energy:  -599.01750886415095
    Total Energy =                       -599.0175088641508410
 Dipole X            :        -83.8891607           88.5491987            4.6600381
 Dipole Y            :          0.0000000            0.0000000            0.0000000
 Dipole Z            :          0.0001000            0.0000000            0.0001000
 Magnitude           :                                                    4.6600381
  Basis Set: (AUG-CC-PVTZ AUX)
    Blend: AUG-CC-PVTZ-RI + DEF2-QZVPP-RI
	 Reference Energy          =    -599.0175088641509547 [Eh]
	 Singles Energy            =      -0.0000000000000000 [Eh]
	 Same-Spin Energy          =      -0.0289416151139095 [Eh]
	 Opposite-Spin Energy      =      -0.0684024674888742 [Eh]
	 Correlation Energy        =      -0.0973440826027836 [Eh]
	 Total Energy              =    -599.1148529467537855 [Eh]
	 SCS Total Energy          =    -599.1092390301755586 [Eh]
                               Psi4 1.9 release
    Molecular point group: c1
  Multiplicity = 1
  Basis Set: AUG-CC-PVTZ
    Blend: AUG-CC-PVTZ
  Basis Set: (AUG-CC-PVTZ AUX)
    Blend: AUG-CC-PVTZ-JKFIT + DEF2-UNIVERSAL-JKFIT
  @DF-RHF Final Energy:   -76.06034571375200
    Total Energy =                        -76.0603457137519854
  Basis Set: (AUG-CC-PVTZ AUX)
	 Singles Energy            =      -0.0000000000000000 [Eh]
	 Same-Spin Energy          =      -0.0684306270284032 [Eh]
	 Opposite-Spin Energy      =      -0.2155469477985842 [Eh]
	 Correlation Energy        =      -0.2839775748269874 [Eh]
	 Total Energy              =     -76.3443232885789911 [Eh]
	 SCS Total Energy          =     -76.3418122601197666 [Eh]
                               Psi4 1.9 release
    Molecular point group: c1

    Geometry (in Bohr), charge = 1, multiplicity = 1:

       Center              X                  Y                   Z               Mass
    ------------   -----------------  -----------------  -----------------  -----------------
         O            0.000000000000     0.000000000000     0.000000000000    15.994914619570
         H           -0.790959987619     1.430018120096     0.790959987619     1.007825032230
         H           -0.790959987619    -1.430018120096     0.790959987619     1.007825032230
         K            4.660484144579     0.000000000000     0.000000000000    38.963706486400

  Charge       = 1
  Multiplicity = 1
  Basis Set: AUG-CC-PVTZ
    Blend: AUG-CC-PVTZ
  Basis Set: (AUG-CC-PVTZ AUX)
    Blend: AUG-CC-PVTZ-JKFIT + DEF2-UNIVERSAL-JKFIT

    Orbital Energies [Eh]
    ---------------------

    Doubly Occupied:

       1A   -133.704372     2A    -20.760695     3A    -14.661476
       4A    -11.691440     5A    -11.691411     6A    -11.691277
       7A     -1.921705     8A     -1.552207     9A     -1.130367
      10A     -1.129987    11A     -1.129441    12A     -0.911532
      13A     -0.792042    14A     -0.711980

  @DF-RHF Final Energy:  -675.09816443217028

   => Energetics <=

    Nuclear Repulsion Energy =             48.4541582624732854
    One-Electron Energy =               -1020.1447808615756685
    Two-Electron Energy =                 296.5924581669322038
    Total Energy =                       -675.0981644321702788
 Dipole X            :        -83.2294469           86.9672788            3.7378319
 Dipole Y            :         -0.0000000            0.0000000           -0.0000000
 Dipole Z            :         -1.0045487            1.5819200            0.5773712
 Magnitude           :                                                    3.7821614
  Basis Set: (AUG-CC-PVTZ AUX)
    Blend: AUG-CC-PVTZ-RI + DEF2-QZVPP-RI
	 Reference Energy          =    -675.0981644321702788 [Eh]
	 Singles Energy            =      -0.0000000000000000 [Eh]
	 Same-Spin Energy          =      -0.0985518161198450 [Eh]
	 Opposite-Spin Energy      =      -0.2839699879396331 [Eh]
	 Correlation Energy        =      -0.3825218040594781 [Eh]
	 Total Energy              =    -675.4806862362297579 [Eh]

	 ================> DF-SCS-MP2 Energies <==================
	-----------------------------------------------------------
	 SCS Same-Spin Scale       =       0.3333333333333333 [-]
	 SCS Opposite-Spin Scale   =       1.2000000000000000 [-]
	 SCS Same-Spin Energy      =      -0.0328506053732817 [Eh]
	 SCS Opposite-Spin Energy  =      -0.3407639855275598 [Eh]
	 SCS Correlation Energy    =      -0.3736145909008414 [Eh]
	 SCS Total Energy          =    -675.4717790230711216 [Eh]
	-----------------------------------------------------------

*** Psi4 exiting successfully. Buy a developer a beer!
