                               Psi4 1.9 release

  ==> Input File <==

--------------------------------------------------------------------------
MEMORY 60 GB

molecule dimer {
0 1
O      0.000000     0.000000     0.000000
H      0.392600     0.780169    -0.392600
H      0.511653    -0.775519    -0.511653
--
-1 1
F      2.426389     0.000000     0.000000

units ang
no_reorient
no_com
symmetry c1
}

set {
basis        aug-cc-pVTZ
scf_type     df
}

energy("mp2", bsse_type="cp")
--------------------------------------------------------------------------

                               Psi4 1.9 release
    Molecular point group: c1
  Charge       = -1
  Multiplicity = 1
  Basis Set: AUG-CC-PVTZ
    Blend: AUG-CC-PVTZ
  Basis Set: (AUG-CC-PVTZ AUX)
    Blend: AUG-CC-PVTZ-JKFIT
  @DF-RHF Final Energy:   -99.45088114026474
    Total Energy =                        -99.4508811402647268
 Dipole X            :        -45.8529398           41.2668962           -4.5860436
 Dipole Y            :          0.0000153            0.0000000            0.0000153
 Dipole Z            :         -0.0000545            0.0000000           -0.0000545
 Magnitude           :                                                    4.5860436
  Basis Set: (AUG-CC-PVTZ AUX)
    Blend: AUG-CC-PVTZ-RI
	 Reference Energy          =     -99.4508811402647410 [Eh]
	 Singles Energy            =      -0.0000000000000000 [Eh]
	 Same-Spin Energy          =      -0.0816786194859896 [Eh]
	 Opposite-Spin Energy      =      -0.2270240141492903 [Eh]
	 Correlation Energy        =      -0.3087026336352799 [Eh]
	 Total Energy              =     -99.7595837739000189 [Eh]
	 SCS Total Energy          =     -99.7505361637392127 [Eh]
                               Psi4 1.9 release
    Molecular point group: c1
  Multiplicity = 1
  Basis Set: AUG-CC-PVTZ
    Blend: AUG-CC-PVTZ
  Basis Set: (AUG-CC-PVTZ AUX)
    Blend: AUG-CC-PVTZ-JKFIT
  @DF-RHF Final Energy:   -76.04860348554453
    Total Energy =                        -76.0486034855445325
  Basis Set: (AUG-CC-PVTZ AUX)
	 Singles Energy            =      -0.0000000000000000 [Eh]
	 Same-Spin Energy          =      -0.0692908891526274 [Eh]
	 Opposite-Spin Energy      =      -0.2184188261298431 [Eh]
	 Correlation Energy        =      -0.2877097152824705 [Eh]
	 Total Energy              =     -76.3363132008270071 [Eh]
	 SCS Total Energy          =     -76.3338030399512206 [Eh]
                               Psi4 1.9 release
    Molecular point group: c1

    Geometry (in Bohr), charge = -1, multiplicity = 1:

       Center              X                  Y                   Z               Mass
    ------------   -----------------  -----------------  -----------------  -----------------
         O            0.000000000000     0.000000000000     0.000000000000    15.994914619570
         H            0.741906476855     1.474305741572    -0.741906476855     1.007825032230
         H            0.966884041269    -1.465518515089    -0.966884041269     1.007825032230
         F            4.585210683823     0.000000000000     0.000000000000    18.998403162730

  Charge       = -1
  Multiplicity = 1
  Basis Set: AUG-CC-PVTZ
    Blend: AUG-CC-PVTZ
  Basis Set: (AUG-CC-PVTZ AUX)
    Blend: AUG-CC-PVTZ-JKFIT

    Orbital Energies [Eh]
    ---------------------

    Doubly Occupied:

       1A    -25.850057     2A    -20.352039     3A     -1.118394
       4A     -1.092883     5A     -0.468898     6A     -0.369088
       7A     -0.294819     8A     -0.202574     9A     -0.201928
      10A     -0.193888

  @DF-RHF Final Energy:  -175.50568784141709

   => Energetics <=

    Nuclear Repulsion Energy =             28.8426720580682634
    One-Electron Energy =                -308.4075799114716574
    Two-Electron Energy =                 104.0592200119863264
    Total Energy =                       -175.5056878414170569
 Dipole X            :        -46.6199302           42.9756867           -3.6442436
 Dipole Y            :          0.0037466            0.0087872            0.0125339
 Dipole Z            :          1.2065067           -1.7087905           -0.5022838
 Magnitude           :                                                    3.6787168
  Basis Set: (AUG-CC-PVTZ AUX)
    Blend: AUG-CC-PVTZ-RI
	 Reference Energy          =    -175.5056878414170853 [Eh]
	 Singles Energy            =      -0.0000000000000000 [Eh]
	 Same-Spin Energy          =      -0.1525252088566228 [Eh]
	 Opposite-Spin Energy      =      -0.4459266183822838 [Eh]
	 Correlation Energy        =      -0.5984518272389066 [Eh]
	 Total Energy              =    -176.1041396686559892 [Eh]

	 ================> DF-SCS-MP2 Energies <==================
	-----------------------------------------------------------
	 SCS Same-Spin Scale       =       0.3333333333333333 [-]
	 SCS Opposite-Spin Scale   =       1.2000000000000000 [-]
	 SCS Same-Spin Energy      =      -0.0508417362855409 [Eh]
	 SCS Opposite-Spin Energy  =      -0.5351119420587405 [Eh]
	 SCS Correlation Energy    =      -0.5859536783442814 [Eh]
	 SCS Total Energy          =    -176.0916415197613674 [Eh]
	-----------------------------------------------------------

*** Psi4 exiting successfully. Buy a developer a beer!
