                               Psi4 1.9 release

  ==> Input File <==

--------------------------------------------------------------------------
MEMORY 60 GB

molecule dimer {
0 1
O      0.000000     0.000000     0.000000
H     -0.551663     0.555220     0.551663
H      0.548374     0.723587    -0.548374
--
-1 1
F      2.426389     0.000000     0.000000

units ang
no_reorient
no_com
symmetry c1
}

set {
basis        aug-cc-pVTZ
scf_type     df
}

energy("mp2", bsse_type="cp")
--------------------------------------------------------------------------

                               Psi4 1.9 release
    Molecular point group: c1
  Charge       = -1
  Multiplicity = 1
  Basis Set: AUG-CC-PVTZ
    Blend: AUG-CC-PVTZ
  Basis Set: (AUG-CC-PVTZ AUX)
    Blend: AUG-CC-PVTZ-JKFIT
  @DF-RHF Final Energy:   -99.45087157936896
    Total Energy =                        -99.4508715793689646
 Dipole X            :        -45.8524651           41.2668962           -4.5855689
 Dipole Y            :         -0.0000241            0.0000000           -0.0000241
 Dipole Z            :         -0.0001264            0.0000000           -0.0001264
 Magnitude           :                                                    4.5855689
  Basis Set: (AUG-CC-PVTZ AUX)
    Blend: AUG-CC-PVTZ-RI
	 Reference Energy          =     -99.4508715793689646 [Eh]
	 Singles Energy            =      -0.0000000000000000 [Eh]
	 Same-Spin Energy          =      -0.0816628762921917 [Eh]
	 Opposite-Spin Energy      =      -0.2269413387335394 [Eh]
	 Correlation Energy        =      -0.3086042150257311 [Eh]
	 Total Energy              =     -99.7594757943946888 [Eh]
	 SCS Total Energy          =     -99.7504221446132817 [Eh]
                               Psi4 1.9 release
    Molecular point group: c1
  Multiplicity = 1
  Basis Set: AUG-CC-PVTZ
    Blend: AUG-CC-PVTZ
  Basis Set: (AUG-CC-PVTZ AUX)
    Blend: AUG-CC-PVTZ-JKFIT
  @DF-RHF Final Energy:   -76.04860942389838
    Total Energy =                        -76.0486094238983696
  Basis Set: (AUG-CC-PVTZ AUX)
	 Singles Energy            =      -0.0000000000000000 [Eh]
	 Same-Spin Energy          =      -0.0692923391784633 [Eh]
	 Opposite-Spin Energy      =      -0.2184365438455236 [Eh]
	 Correlation Energy        =      -0.2877288830239868 [Eh]
	 Total Energy              =     -76.3363383069223715 [Eh]
	 SCS Total Energy          =     -76.3338307229058302 [Eh]
                               Psi4 1.9 release
    Molecular point group: c1

    Geometry (in Bohr), charge = -1, multiplicity = 1:

       Center              X                  Y                   Z               Mass
    ------------   -----------------  -----------------  -----------------  -----------------
         O            0.000000000000     0.000000000000     0.000000000000    15.994914619570
         H           -1.042491983548     1.049213739377     1.042491983548     1.007825032230
         H            1.036276674322     1.367381257942    -1.036276674322     1.007825032230
         F            4.585210683823     0.000000000000     0.000000000000    18.998403162730

  Charge       = -1
  Multiplicity = 1
  Basis Set: AUG-CC-PVTZ
    Blend: AUG-CC-PVTZ
  Basis Set: (AUG-CC-PVTZ AUX)
    Blend: AUG-CC-PVTZ-JKFIT

    Orbital Energies [Eh]
    ---------------------

    Doubly Occupied:

       1A    -25.835821     2A    -20.367217     3A     -1.126971
       4A     -1.082569     5A     -0.478413     6A     -0.373639
       7A     -0.303063     8A     -0.187132     9A     -0.186590
      10A     -0.181821

  @DF-RHF Final Energy:  -175.49124132092592

   => Energetics <=

    Nuclear Repulsion Energy =             28.2830228001815875
    One-Electron Energy =                -307.3020543761182353
    Two-Electron Energy =                 103.5277902550107285
    Total Energy =                       -175.4912413209259228
 Dipole X            :        -45.5181565           41.2606808           -4.2574757
 Dipole Y            :         -1.6848738            2.4165950            0.7317212
 Dipole Z            :          0.0252565            0.0062153            0.0314719
 Magnitude           :                                                    4.3200122
  Basis Set: (AUG-CC-PVTZ AUX)
    Blend: AUG-CC-PVTZ-RI
	 Reference Energy          =    -175.4912413209259228 [Eh]
	 Singles Energy            =      -0.0000000000000000 [Eh]
	 Same-Spin Energy          =      -0.1530920891845566 [Eh]
	 Opposite-Spin Energy      =      -0.4473521639457250 [Eh]
	 Correlation Energy        =      -0.6004442531302815 [Eh]
	 Total Energy              =    -176.0916855740562141 [Eh]

	 ================> DF-SCS-MP2 Energies <==================
	-----------------------------------------------------------
	 SCS Same-Spin Scale       =       0.3333333333333333 [-]
	 SCS Opposite-Spin Scale   =       1.2000000000000000 [-]
	 SCS Same-Spin Energy      =      -0.0510306963948522 [Eh]
	 SCS Opposite-Spin Energy  =      -0.5368225967348700 [Eh]
	 SCS Correlation Energy    =      -0.5878532931297221 [Eh]
	 SCS Total Energy          =    -176.0790946140556343 [Eh]
	-----------------------------------------------------------

*** Psi4 exiting successfully. Buy a developer a beer!
