                               Psi4 1.9 release

  ==> Input File <==

--------------------------------------------------------------------------
MEMORY 60 GB

molecule dimer {
0 1
O      0.000000     0.000000     0.000000
H      0.522003     0.609884    -0.522003
H      0.352290    -0.936372    -0.352290
--
-1 1
F      2.426389     0.000000     0.000000

units ang
no_reorient
no_com
symmetry c1
}

set {
basis        aug-cc-pVTZ
scf_type     df
}

energy("mp2", bsse_type="cp")
--------------------------------------------------------------------------

                               Psi4 1.9 release
    Molecular point group: c1
  Charge       = -1
  Multiplicity = 1
  Basis Set: AUG-CC-PVTZ
    Blend: AUG-CC-PVTZ
  Basis Set: (AUG-CC-PVTZ AUX)
    Blend: AUG-CC-PVTZ-JKFIT
  @DF-RHF Final Energy:   -99.45087989426221
    Total Energy =                        -99.4508798942622150
 Dipole X            :        -45.8529617           41.2668962           -4.5860656
 Dipole Y            :         -0.0000684            0.0000000           -0.0000684
 Dipole Z            :          0.0000198            0.0000000            0.0000198
 Magnitude           :                                                    4.5860656
  Basis Set: (AUG-CC-PVTZ AUX)
    Blend: AUG-CC-PVTZ-RI
	 Reference Energy          =     -99.4508798942622150 [Eh]
	 Singles Energy            =      -0.0000000000000000 [Eh]
	 Same-Spin Energy          =      -0.0816788083563845 [Eh]
	 Opposite-Spin Energy      =      -0.2270462947726188 [Eh]
	 Correlation Energy        =      -0.3087251031290034 [Eh]
	 Total Energy              =     -99.7596049973912216 [Eh]
	 SCS Total Energy          =     -99.7505617174414851 [Eh]
                               Psi4 1.9 release
    Molecular point group: c1
  Multiplicity = 1
  Basis Set: AUG-CC-PVTZ
    Blend: AUG-CC-PVTZ
  Basis Set: (AUG-CC-PVTZ AUX)
    Blend: AUG-CC-PVTZ-JKFIT
  @DF-RHF Final Energy:   -76.04860481696196
    Total Energy =                        -76.0486048169619551
  Basis Set: (AUG-CC-PVTZ AUX)
	 Singles Energy            =      -0.0000000000000000 [Eh]
	 Same-Spin Energy          =      -0.0692920336364726 [Eh]
	 Opposite-Spin Energy      =      -0.2184260826255387 [Eh]
	 Correlation Energy        =      -0.2877181162620113 [Eh]
	 Total Energy              =     -76.3363229332239683 [Eh]
	 SCS Total Energy          =     -76.3338134606580923 [Eh]
                               Psi4 1.9 release
    Molecular point group: c1

    Geometry (in Bohr), charge = -1, multiplicity = 1:

       Center              X                  Y                   Z               Mass
    ------------   -----------------  -----------------  -----------------  -----------------
         O            0.000000000000     0.000000000000     0.000000000000    15.994914619570
         H            0.986442706667     1.152513728299    -0.986442706667     1.007825032230
         H            0.665731616738    -1.769486631547    -0.665731616738     1.007825032230
         F            4.585210683823     0.000000000000     0.000000000000    18.998403162730

  Charge       = -1
  Multiplicity = 1
  Basis Set: AUG-CC-PVTZ
    Blend: AUG-CC-PVTZ
  Basis Set: (AUG-CC-PVTZ AUX)
    Blend: AUG-CC-PVTZ-JKFIT

    Orbital Energies [Eh]
    ---------------------

    Doubly Occupied:

       1A    -25.849469     2A    -20.353575     3A     -1.118966
       4A     -1.092566     5A     -0.470014     6A     -0.369553
       7A     -0.295887     8A     -0.202017     9A     -0.201516
      10A     -0.193826

  @DF-RHF Final Energy:  -175.50551551999465

   => Energetics <=

    Nuclear Repulsion Energy =             28.8258191499866747
    One-Electron Energy =                -308.3678926600437080
    Two-Electron Energy =                 104.0365579900623771
    Total Energy =                       -175.5055155199946739
 Dipole X            :        -46.5866517           42.9190705           -3.6675812
 Dipole Y            :          0.4425726           -0.6169729           -0.1744003
 Dipole Z            :          1.1681727           -1.6521743           -0.4840016
 Magnitude           :                                                    3.7034882
  Basis Set: (AUG-CC-PVTZ AUX)
    Blend: AUG-CC-PVTZ-RI
	 Reference Energy          =    -175.5055155199946455 [Eh]
	 Singles Energy            =      -0.0000000000000000 [Eh]
	 Same-Spin Energy          =      -0.1524402364132366 [Eh]
	 Opposite-Spin Energy      =      -0.4459330134995512 [Eh]
	 Correlation Energy        =      -0.5983732499127877 [Eh]
	 Total Energy              =    -176.1038887699074280 [Eh]

	 ================> DF-SCS-MP2 Energies <==================
	-----------------------------------------------------------
	 SCS Same-Spin Scale       =       0.3333333333333333 [-]
	 SCS Opposite-Spin Scale   =       1.2000000000000000 [-]
	 SCS Same-Spin Energy      =      -0.0508134121377455 [Eh]
	 SCS Opposite-Spin Energy  =      -0.5351196161994614 [Eh]
	 SCS Correlation Energy    =      -0.5859330283372068 [Eh]
	 SCS Total Energy          =    -176.0914485483318401 [Eh]
	-----------------------------------------------------------

*** Psi4 exiting successfully. Buy a developer a beer!
