                               Psi4 1.9 release

  ==> Input File <==

--------------------------------------------------------------------------
MEMORY 60 GB

molecule dimer {
0 1
O      0.000000     0.000000     0.000000
H     -0.431253     0.738224     0.431253
H      0.662115     0.498213    -0.662115
--
-1 1
F      2.426389     0.000000     0.000000

units ang
no_reorient
no_com
symmetry c1
}

set {
basis        aug-cc-pVTZ
scf_type     df
}

energy("mp2", bsse_type="cp")
--------------------------------------------------------------------------

                               Psi4 1.9 release
    Molecular point group: c1
  Charge       = -1
  Multiplicity = 1
  Basis Set: AUG-CC-PVTZ
    Blend: AUG-CC-PVTZ
  Basis Set: (AUG-CC-PVTZ AUX)
    Blend: AUG-CC-PVTZ-JKFIT
  @DF-RHF Final Energy:   -99.45087461253183
    Total Energy =                        -99.4508746125318339
 Dipole X            :        -45.8525784           41.2668962           -4.5856823
 Dipole Y            :         -0.0000812            0.0000000           -0.0000812
 Dipole Z            :         -0.0000941            0.0000000           -0.0000941
 Magnitude           :                                                    4.5856823
  Basis Set: (AUG-CC-PVTZ AUX)
    Blend: AUG-CC-PVTZ-RI
	 Reference Energy          =     -99.4508746125318339 [Eh]
	 Singles Energy            =      -0.0000000000000000 [Eh]
	 Same-Spin Energy          =      -0.0816742308216877 [Eh]
	 Opposite-Spin Energy      =      -0.2270487979468426 [Eh]
	 Correlation Energy        =      -0.3087230287685303 [Eh]
	 Total Energy              =     -99.7595976413003598 [Eh]
	 SCS Total Energy          =     -99.7505579136752800 [Eh]
                               Psi4 1.9 release
    Molecular point group: c1
  Multiplicity = 1
  Basis Set: AUG-CC-PVTZ
    Blend: AUG-CC-PVTZ
  Basis Set: (AUG-CC-PVTZ AUX)
    Blend: AUG-CC-PVTZ-JKFIT
  @DF-RHF Final Energy:   -76.04861163873973
    Total Energy =                        -76.0486116387397146
  Basis Set: (AUG-CC-PVTZ AUX)
	 Singles Energy            =      -0.0000000000000000 [Eh]
	 Same-Spin Energy          =      -0.0692942966346452 [Eh]
	 Opposite-Spin Energy      =      -0.2184559176026646 [Eh]
	 Correlation Energy        =      -0.2877502142373097 [Eh]
	 Total Energy              =     -76.3363618529770349 [Eh]
	 SCS Total Energy          =     -76.3338568387411414 [Eh]
                               Psi4 1.9 release
    Molecular point group: c1

    Geometry (in Bohr), charge = -1, multiplicity = 1:

       Center              X                  Y                   Z               Mass
    ------------   -----------------  -----------------  -----------------  -----------------
         O            0.000000000000     0.000000000000     0.000000000000    15.994914619570
         H           -0.814950060782     1.395041179240     0.814950060782     1.007825032230
         H            1.251216013558     0.941486122143    -1.251216013558     1.007825032230
         F            4.585210683823     0.000000000000     0.000000000000    18.998403162730

  Charge       = -1
  Multiplicity = 1
  Basis Set: AUG-CC-PVTZ
    Blend: AUG-CC-PVTZ
  Basis Set: (AUG-CC-PVTZ AUX)
    Blend: AUG-CC-PVTZ-JKFIT

    Orbital Energies [Eh]
    ---------------------

    Doubly Occupied:

       1A    -25.844247     2A    -20.359170     3A     -1.122394
       4A     -1.090367     5A     -0.473542     6A     -0.369923
       7A     -0.298330     8A     -0.196080     9A     -0.195240
      10A     -0.189133

  @DF-RHF Final Energy:  -175.49821395734267

   => Energetics <=

    Nuclear Repulsion Energy =             28.4932288263583651
    One-Electron Energy =                -307.7060332244291203
    Two-Electron Energy =                 103.7145904407281165
    Total Energy =                       -175.4982139573426707
 Dipole X            :        -45.7515895           41.7031621           -4.0484274
 Dipole Y            :         -1.6257623            2.3365273            0.7107650
 Dipole Z            :          0.3325720           -0.4362660           -0.1036940
 Magnitude           :                                                    4.1116546
  Basis Set: (AUG-CC-PVTZ AUX)
    Blend: AUG-CC-PVTZ-RI
	 Reference Energy          =    -175.4982139573426707 [Eh]
	 Singles Energy            =      -0.0000000000000000 [Eh]
	 Same-Spin Energy          =      -0.1532278450493153 [Eh]
	 Opposite-Spin Energy      =      -0.4471593426545416 [Eh]
	 Correlation Energy        =      -0.6003871877038569 [Eh]
	 Total Energy              =    -176.0986011450465298 [Eh]

	 ================> DF-SCS-MP2 Energies <==================
	-----------------------------------------------------------
	 SCS Same-Spin Scale       =       0.3333333333333333 [-]
	 SCS Opposite-Spin Scale   =       1.2000000000000000 [-]
	 SCS Same-Spin Energy      =      -0.0510759483497718 [Eh]
	 SCS Opposite-Spin Energy  =      -0.5365912111854499 [Eh]
	 SCS Correlation Energy    =      -0.5876671595352218 [Eh]
	 SCS Total Energy          =    -176.0858811168778857 [Eh]
	-----------------------------------------------------------

*** Psi4 exiting successfully. Buy a developer a beer!
