                               Psi4 1.9 release

  ==> Input File <==

--------------------------------------------------------------------------
MEMORY 60 GB

molecule dimer {
0 1
O      0.000000     0.000000     0.000000
H     -0.281454     0.870919     0.281454
H      0.730733     0.238886    -0.730733
--
-1 1
F      2.426389     0.000000     0.000000

units ang
no_reorient
no_com
symmetry c1
}

set {
basis        aug-cc-pVTZ
scf_type     df
}

energy("mp2", bsse_type="cp")
--------------------------------------------------------------------------

                               Psi4 1.9 release
    Molecular point group: c1
  Charge       = -1
  Multiplicity = 1
  Basis Set: AUG-CC-PVTZ
    Blend: AUG-CC-PVTZ
  Basis Set: (AUG-CC-PVTZ AUX)
    Blend: AUG-CC-PVTZ-JKFIT
  @DF-RHF Final Energy:   -99.45087678202543
    Total Energy =                        -99.4508767820254320
 Dipole X            :        -45.8526890           41.2668962           -4.5857928
 Dipole Y            :         -0.0002129            0.0000000           -0.0002129
 Dipole Z            :         -0.0000002            0.0000000           -0.0000002
 Magnitude           :                                                    4.5857928
  Basis Set: (AUG-CC-PVTZ AUX)
    Blend: AUG-CC-PVTZ-RI
	 Reference Energy          =     -99.4508767820254320 [Eh]
	 Singles Energy            =      -0.0000000000000000 [Eh]
	 Same-Spin Energy          =      -0.0816830689328117 [Eh]
	 Opposite-Spin Energy      =      -0.2271446517030512 [Eh]
	 Correlation Energy        =      -0.3088277206358628 [Eh]
	 Total Energy              =     -99.7597045026612932 [Eh]
	 SCS Total Energy          =     -99.7506780537133579 [Eh]
                               Psi4 1.9 release
    Molecular point group: c1
  Multiplicity = 1
  Basis Set: AUG-CC-PVTZ
    Blend: AUG-CC-PVTZ
  Basis Set: (AUG-CC-PVTZ AUX)
    Blend: AUG-CC-PVTZ-JKFIT
  @DF-RHF Final Energy:   -76.04861332339870
    Total Energy =                        -76.0486133233986834
  Basis Set: (AUG-CC-PVTZ AUX)
	 Singles Energy            =      -0.0000000000000000 [Eh]
	 Same-Spin Energy          =      -0.0692955345882241 [Eh]
	 Opposite-Spin Energy      =      -0.2184687692005773 [Eh]
	 Correlation Energy        =      -0.2877643037888014 [Eh]
	 Total Energy              =     -76.3363776271875025 [Eh]
	 SCS Total Energy          =     -76.3338743579687957 [Eh]
                               Psi4 1.9 release
    Molecular point group: c1

    Geometry (in Bohr), charge = -1, multiplicity = 1:

       Center              X                  Y                   Z               Mass
    ------------   -----------------  -----------------  -----------------  -----------------
         O            0.000000000000     0.000000000000     0.000000000000    15.994914619570
         H           -0.531870976915     1.645798387458     0.531870976915     1.007825032230
         H            1.380885240834     0.451429115206    -1.380885240834     1.007825032230
         F            4.585210683823     0.000000000000     0.000000000000    18.998403162730

  Charge       = -1
  Multiplicity = 1
  Basis Set: AUG-CC-PVTZ
    Blend: AUG-CC-PVTZ
  Basis Set: (AUG-CC-PVTZ AUX)
    Blend: AUG-CC-PVTZ-JKFIT

    Orbital Energies [Eh]
    ---------------------

    Doubly Occupied:

       1A    -25.851382     2A    -20.352122     3A     -1.120028
       4A     -1.095278     5A     -0.469559     6A     -0.367181
       7A     -0.294347     8A     -0.203693     9A     -0.202579
      10A     -0.194641

  @DF-RHF Final Energy:  -175.50402602031130

   => Energetics <=

    Nuclear Repulsion Energy =             28.6774222394841445
    One-Electron Energy =                -308.0612753497990184
    Two-Electron Energy =                 103.8798270900036016
    Total Energy =                       -175.5040260203112723
 Dipole X            :        -45.9752878           42.1159104           -3.8593773
 Dipole Y            :         -1.4570269            2.0972275            0.6402006
 Dipole Z            :          0.6187584           -0.8490143           -0.2302559
 Magnitude           :                                                    3.9188861
  Basis Set: (AUG-CC-PVTZ AUX)
    Blend: AUG-CC-PVTZ-RI
	 Reference Energy          =    -175.5040260203113007 [Eh]
	 Singles Energy            =      -0.0000000000000000 [Eh]
	 Same-Spin Energy          =      -0.1532863389870704 [Eh]
	 Opposite-Spin Energy      =      -0.4469135624217062 [Eh]
	 Correlation Energy        =      -0.6001999014087767 [Eh]
	 Total Energy              =    -176.1042259217200865 [Eh]

	 ================> DF-SCS-MP2 Energies <==================
	-----------------------------------------------------------
	 SCS Same-Spin Scale       =       0.3333333333333333 [-]
	 SCS Opposite-Spin Scale   =       1.2000000000000000 [-]
	 SCS Same-Spin Energy      =      -0.0510954463290235 [Eh]
	 SCS Opposite-Spin Energy  =      -0.5362962749060475 [Eh]
	 SCS Correlation Energy    =      -0.5873917212350710 [Eh]
	 SCS Total Energy          =    -176.0914177415463655 [Eh]
	-----------------------------------------------------------

*** Psi4 exiting successfully. Buy a developer a beer!
