                               Psi4 1.9 release

  ==> Input File <==

--------------------------------------------------------------------------
MEMORY 60 GB

molecule dimer {
0 1
O      0.000000     0.000000     0.000000
H     -0.112475     0.944263     0.112475
H      0.749553    -0.036721    -0.749553
--
-1 1
F      2.426389     0.000000     0.000000

units ang
no_reorient
no_com
symmetry c1
}

set {
basis        aug-cc-pVTZ
scf_type     df
}

energy("mp2", bsse_type="cp")
--------------------------------------------------------------------------

                               Psi4 1.9 release
    Molecular point group: c1
  Charge       = -1
  Multiplicity = 1
  Basis Set: AUG-CC-PVTZ
    Blend: AUG-CC-PVTZ
  Basis Set: (AUG-CC-PVTZ AUX)
    Blend: AUG-CC-PVTZ-JKFIT
  @DF-RHF Final Energy:   -99.45087856842731
    Total Energy =                        -99.4508785684273136
 Dipole X            :        -45.8528044           41.2668962           -4.5859082
 Dipole Y            :         -0.0002561            0.0000000           -0.0002561
 Dipole Z            :          0.0001250            0.0000000            0.0001250
 Magnitude           :                                                    4.5859082
  Basis Set: (AUG-CC-PVTZ AUX)
    Blend: AUG-CC-PVTZ-RI
	 Reference Energy          =     -99.4508785684273136 [Eh]
	 Singles Energy            =      -0.0000000000000000 [Eh]
	 Same-Spin Energy          =      -0.0816871542499623 [Eh]
	 Opposite-Spin Energy      =      -0.2271919936865597 [Eh]
	 Correlation Energy        =      -0.3088791479365219 [Eh]
	 Total Energy              =     -99.7597577163638363 [Eh]
	 SCS Total Energy          =     -99.7507380122678455 [Eh]
                               Psi4 1.9 release
    Molecular point group: c1
  Multiplicity = 1
  Basis Set: AUG-CC-PVTZ
    Blend: AUG-CC-PVTZ
  Basis Set: (AUG-CC-PVTZ AUX)
    Blend: AUG-CC-PVTZ-JKFIT
  @DF-RHF Final Energy:   -76.04861237962470
    Total Energy =                        -76.0486123796247000
  Basis Set: (AUG-CC-PVTZ AUX)
	 Singles Energy            =      -0.0000000000000000 [Eh]
	 Same-Spin Energy          =      -0.0692956294661258 [Eh]
	 Opposite-Spin Energy      =      -0.2184688042272193 [Eh]
	 Correlation Energy        =      -0.2877644336933451 [Eh]
	 Total Energy              =     -76.3363768133180400 [Eh]
	 SCS Total Energy          =     -76.3338734878527418 [Eh]
                               Psi4 1.9 release
    Molecular point group: c1

    Geometry (in Bohr), charge = -1, multiplicity = 1:

       Center              X                  Y                   Z               Mass
    ------------   -----------------  -----------------  -----------------  -----------------
         O            0.000000000000     0.000000000000     0.000000000000    15.994914619570
         H           -0.212546945961     1.784398460403     0.212546945961     1.007825032230
         H            1.416449886515    -0.069392633053    -1.416449886515     1.007825032230
         F            4.585210683823     0.000000000000     0.000000000000    18.998403162730

  Charge       = -1
  Multiplicity = 1
  Basis Set: AUG-CC-PVTZ
    Blend: AUG-CC-PVTZ
  Basis Set: (AUG-CC-PVTZ AUX)
    Blend: AUG-CC-PVTZ-JKFIT

    Orbital Energies [Eh]
    ---------------------

    Doubly Occupied:

       1A    -25.855147     2A    -20.348033     3A     -1.119761
       4A     -1.096313     5A     -0.467185     6A     -0.366181
       7A     -0.292146     8A     -0.207756     9A     -0.206497
      10A     -0.197183

  @DF-RHF Final Energy:  -175.50733308350027

   => Energetics <=

    Nuclear Repulsion Energy =             28.8022881606841530
    One-Electron Energy =                -308.3068365287514325
    Two-Electron Energy =                 103.9972152845670053
    Total Energy =                       -175.5073330835002707
 Dipole X            :        -46.1930648           42.4707991           -3.7222657
 Dipole Y            :         -1.1886704            1.7150058            0.5263354
 Dipole Z            :          0.8635631           -1.2039029           -0.3403399
 Magnitude           :                                                    3.7746685
  Basis Set: (AUG-CC-PVTZ AUX)
    Blend: AUG-CC-PVTZ-RI
	 Reference Energy          =    -175.5073330835002707 [Eh]
	 Singles Energy            =      -0.0000000000000000 [Eh]
	 Same-Spin Energy          =      -0.1532119128545494 [Eh]
	 Opposite-Spin Energy      =      -0.4466372083160655 [Eh]
	 Correlation Energy        =      -0.5998491211706150 [Eh]
	 Total Energy              =    -176.1071822046708917 [Eh]

	 ================> DF-SCS-MP2 Energies <==================
	-----------------------------------------------------------
	 SCS Same-Spin Scale       =       0.3333333333333333 [-]
	 SCS Opposite-Spin Scale   =       1.2000000000000000 [-]
	 SCS Same-Spin Energy      =      -0.0510706376181831 [Eh]
	 SCS Opposite-Spin Energy  =      -0.5359646499792786 [Eh]
	 SCS Correlation Energy    =      -0.5870352875974618 [Eh]
	 SCS Total Energy          =    -176.0943683710977439 [Eh]
	-----------------------------------------------------------

*** Psi4 exiting successfully. Buy a developer a beer!
