                               Psi4 1.9 release

  ==> Input File <==

--------------------------------------------------------------------------
MEMORY 60 GB

molecule dimer {
0 1
O      0.000000     0.000000     0.000000
H     -0.634478     0.334379     0.634478
H      0.397263     0.899651    -0.397263
--
-1 1
F      2.426389     0.000000     0.000000

units ang
no_reorient
no_com
symmetry c1
}

set {
basis        aug-cc-pVTZ
scf_type     df
}

energy("mp2", bsse_type="cp")
--------------------------------------------------------------------------

                               Psi4 1.9 release
    Molecular point group: c1
  Charge       = -1
  Multiplicity = 1
  Basis Set: AUG-CC-PVTZ
    Blend: AUG-CC-PVTZ
  Basis Set: (AUG-CC-PVTZ AUX)
    Blend: AUG-CC-PVTZ-JKFIT
  @DF-RHF Final Energy:   -99.45086598850317
    Total Energy =                        -99.4508659885031676
 Dipole X            :        -45.8524033           41.2668962           -4.5855072
 Dipole Y            :         -0.0000713            0.0000000           -0.0000713
 Dipole Z            :         -0.0001486            0.0000000           -0.0001486
 Magnitude           :                                                    4.5855072
  Basis Set: (AUG-CC-PVTZ AUX)
    Blend: AUG-CC-PVTZ-RI
	 Reference Energy          =     -99.4508659885031676 [Eh]
	 Singles Energy            =      -0.0000000000000000 [Eh]
	 Same-Spin Energy          =      -0.0816527136198144 [Eh]
	 Opposite-Spin Energy      =      -0.2268569888641005 [Eh]
	 Correlation Energy        =      -0.3085097024839150 [Eh]
	 Total Energy              =     -99.7593756909870848 [Eh]
	 SCS Total Energy          =     -99.7503119463466987 [Eh]
                               Psi4 1.9 release
    Molecular point group: c1
  Multiplicity = 1
  Basis Set: AUG-CC-PVTZ
    Blend: AUG-CC-PVTZ
  Basis Set: (AUG-CC-PVTZ AUX)
    Blend: AUG-CC-PVTZ-JKFIT
  @DF-RHF Final Energy:   -76.04860733541882
    Total Energy =                        -76.0486073354188363
  Basis Set: (AUG-CC-PVTZ AUX)
	 Singles Energy            =      -0.0000000000000000 [Eh]
	 Same-Spin Energy          =      -0.0692906516093053 [Eh]
	 Opposite-Spin Energy      =      -0.2184180623260368 [Eh]
	 Correlation Energy        =      -0.2877087139353420 [Eh]
	 Total Energy              =     -76.3363160493541670 [Eh]
	 SCS Total Energy          =     -76.3338058940798305 [Eh]
                               Psi4 1.9 release
    Molecular point group: c1

    Geometry (in Bohr), charge = -1, multiplicity = 1:

       Center              X                  Y                   Z               Mass
    ------------   -----------------  -----------------  -----------------  -----------------
         O            0.000000000000     0.000000000000     0.000000000000    15.994914619570
         H           -1.198989652628     0.631884732104     1.198989652628     1.007825032230
         H            0.750718269778     1.700093998494    -0.750718269778     1.007825032230
         F            4.585210683823     0.000000000000     0.000000000000    18.998403162730

  Charge       = -1
  Multiplicity = 1
  Basis Set: AUG-CC-PVTZ
    Blend: AUG-CC-PVTZ
  Basis Set: (AUG-CC-PVTZ AUX)
    Blend: AUG-CC-PVTZ-JKFIT

    Orbital Energies [Eh]
    ---------------------

    Doubly Occupied:

       1A    -25.828018     2A    -20.374488     3A     -1.131938
       4A     -1.074658     5A     -0.483388     6A     -0.377208
       7A     -0.307488     8A     -0.178875     9A     -0.178524
      10A     -0.174369

  @DF-RHF Final Energy:  -175.48437918994611

   => Energetics <=

    Nuclear Repulsion Energy =             28.0801952246363733
    One-Electron Energy =                -306.9112431059249957
    Two-Electron Energy =                 103.3466686913424724
    Total Energy =                       -175.4843791899461394
 Dipole X            :        -45.2750885           40.8186248           -4.4564637
 Dipole Y            :         -1.6319950            2.3319787            0.6999838
 Dipole Z            :         -0.2824953            0.4482714            0.1657761
 Magnitude           :                                                    4.5141475
  Basis Set: (AUG-CC-PVTZ AUX)
    Blend: AUG-CC-PVTZ-RI
	 Reference Energy          =    -175.4843791899461110 [Eh]
	 Singles Energy            =      -0.0000000000000000 [Eh]
	 Same-Spin Energy          =      -0.1529662829691819 [Eh]
	 Opposite-Spin Energy      =      -0.4475264095850443 [Eh]
	 Correlation Energy        =      -0.6004926925542262 [Eh]
	 Total Energy              =    -176.0848718825003232 [Eh]

	 ================> DF-SCS-MP2 Energies <==================
	-----------------------------------------------------------
	 SCS Same-Spin Scale       =       0.3333333333333333 [-]
	 SCS Opposite-Spin Scale   =       1.2000000000000000 [-]
	 SCS Same-Spin Energy      =      -0.0509887609897273 [Eh]
	 SCS Opposite-Spin Energy  =      -0.5370316915020531 [Eh]
	 SCS Correlation Energy    =      -0.5880204524917804 [Eh]
	 SCS Total Energy          =    -176.0723996424378868 [Eh]
	-----------------------------------------------------------

*** Psi4 exiting successfully. Buy a developer a beer!
