                               Psi4 1.9 release

  ==> Input File <==

--------------------------------------------------------------------------
MEMORY 60 GB

molecule dimer {
0 1
O      0.000000     0.000000     0.000000
H      0.236442     0.897287    -0.236442
H      0.636149    -0.561815    -0.636149
--
-1 1
F      2.426389     0.000000     0.000000

units ang
no_reorient
no_com
symmetry c1
}

set {
basis        aug-cc-pVTZ
scf_type     df
}

energy("mp2", bsse_type="cp")
--------------------------------------------------------------------------

                               Psi4 1.9 release
    Molecular point group: c1
  Charge       = -1
  Multiplicity = 1
  Basis Set: AUG-CC-PVTZ
    Blend: AUG-CC-PVTZ
  Basis Set: (AUG-CC-PVTZ AUX)
    Blend: AUG-CC-PVTZ-JKFIT
  @DF-RHF Final Energy:   -99.45087952131078
    Total Energy =                        -99.4508795213107817
 Dipole X            :        -45.8529878           41.2668962           -4.5860916
 Dipole Y            :          0.0000314            0.0000000            0.0000314
 Dipole Z            :          0.0000579            0.0000000            0.0000579
 Magnitude           :                                                    4.5860916
  Basis Set: (AUG-CC-PVTZ AUX)
    Blend: AUG-CC-PVTZ-RI
	 Reference Energy          =     -99.4508795213107817 [Eh]
	 Singles Energy            =      -0.0000000000000000 [Eh]
	 Same-Spin Energy          =      -0.0816825232364810 [Eh]
	 Opposite-Spin Energy      =      -0.2270871948729681 [Eh]
	 Correlation Energy        =      -0.3087697181094491 [Eh]
	 Total Energy              =     -99.7596492394202272 [Eh]
	 SCS Total Energy          =     -99.7506116629038360 [Eh]
                               Psi4 1.9 release
    Molecular point group: c1
  Multiplicity = 1
  Basis Set: AUG-CC-PVTZ
    Blend: AUG-CC-PVTZ
  Basis Set: (AUG-CC-PVTZ AUX)
    Blend: AUG-CC-PVTZ-JKFIT
  @DF-RHF Final Energy:   -76.04860496569445
    Total Energy =                        -76.0486049656944658
  Basis Set: (AUG-CC-PVTZ AUX)
	 Singles Energy            =      -0.0000000000000000 [Eh]
	 Same-Spin Energy          =      -0.0692921502861868 [Eh]
	 Opposite-Spin Energy      =      -0.2184309307920750 [Eh]
	 Correlation Energy        =      -0.2877230810782618 [Eh]
	 Total Energy              =     -76.3363280467727066 [Eh]
	 SCS Total Energy          =     -76.3338194660736775 [Eh]
                               Psi4 1.9 release
    Molecular point group: c1

    Geometry (in Bohr), charge = -1, multiplicity = 1:

       Center              X                  Y                   Z               Mass
    ------------   -----------------  -----------------  -----------------  -----------------
         O            0.000000000000     0.000000000000     0.000000000000    15.994914619570
         H            0.446810624555     1.695626685934    -0.446810624555     1.007825032230
         H            1.202147384984    -1.061676483174    -1.202147384984     1.007825032230
         F            4.585210683823     0.000000000000     0.000000000000    18.998403162730

  Charge       = -1
  Multiplicity = 1
  Basis Set: AUG-CC-PVTZ
    Blend: AUG-CC-PVTZ
  Basis Set: (AUG-CC-PVTZ AUX)
    Blend: AUG-CC-PVTZ-JKFIT

    Orbital Energies [Eh]
    ---------------------

    Doubly Occupied:

       1A    -25.852403     2A    -20.349606     3A     -1.118477
       4A     -1.094210     5A     -0.467544     6A     -0.367988
       7A     -0.293271     8A     -0.204997     9A     -0.204055
      10A     -0.195269

  @DF-RHF Final Energy:  -175.50675146379936

   => Energetics <=

    Nuclear Repulsion Energy =             28.8594214366962483
    One-Electron Energy =                -308.4367077787680955
    Two-Electron Energy =                 104.0705348782724684
    Total Energy =                       -175.5067514637993611
 Dipole X            :        -46.5492160           42.9158542           -3.6333619
 Dipole Y            :         -0.4326773            0.6339502            0.2012729
 Dipole Z            :          1.1662871           -1.6489580           -0.4826709
 Magnitude           :                                                    3.6708038
  Basis Set: (AUG-CC-PVTZ AUX)
    Blend: AUG-CC-PVTZ-RI
	 Reference Energy          =    -175.5067514637993611 [Eh]
	 Singles Energy            =      -0.0000000000000000 [Eh]
	 Same-Spin Energy          =      -0.1527454564901310 [Eh]
	 Opposite-Spin Energy      =      -0.4460989757402515 [Eh]
	 Correlation Energy        =      -0.5988444322303825 [Eh]
	 Total Energy              =    -176.1055958960297403 [Eh]

	 ================> DF-SCS-MP2 Energies <==================
	-----------------------------------------------------------
	 SCS Same-Spin Scale       =       0.3333333333333333 [-]
	 SCS Opposite-Spin Scale   =       1.2000000000000000 [-]
	 SCS Same-Spin Energy      =      -0.0509151521633770 [Eh]
	 SCS Opposite-Spin Energy  =      -0.5353187708883018 [Eh]
	 SCS Correlation Energy    =      -0.5862339230516789 [Eh]
	 SCS Total Energy          =    -176.0929853868510406 [Eh]
	-----------------------------------------------------------

*** Psi4 exiting successfully. Buy a developer a beer!
