                               Psi4 1.9 release

  ==> Input File <==

--------------------------------------------------------------------------
MEMORY 60 GB

molecule dimer {
0 1
O      0.000000     0.000000     0.000000
H      0.064170     0.953257    -0.064170
H      0.717292    -0.309825    -0.717292
--
-1 1
F      2.426389     0.000000     0.000000

units ang
no_reorient
no_com
symmetry c1
}

set {
basis        aug-cc-pVTZ
scf_type     df
}

energy("mp2", bsse_type="cp")
--------------------------------------------------------------------------

                               Psi4 1.9 release
    Molecular point group: c1
  Charge       = -1
  Multiplicity = 1
  Basis Set: AUG-CC-PVTZ
    Blend: AUG-CC-PVTZ
  Basis Set: (AUG-CC-PVTZ AUX)
    Blend: AUG-CC-PVTZ-JKFIT
  @DF-RHF Final Energy:   -99.45087863950810
    Total Energy =                        -99.4508786395080904
 Dipole X            :        -45.8529415           41.2668962           -4.5860454
 Dipole Y            :         -0.0001196            0.0000000           -0.0001196
 Dipole Z            :          0.0001646            0.0000000            0.0001646
 Magnitude           :                                                    4.5860454
  Basis Set: (AUG-CC-PVTZ AUX)
    Blend: AUG-CC-PVTZ-RI
	 Reference Energy          =     -99.4508786395081046 [Eh]
	 Singles Energy            =      -0.0000000000000000 [Eh]
	 Same-Spin Energy          =      -0.0816865921620545 [Eh]
	 Opposite-Spin Energy      =      -0.2271683062487479 [Eh]
	 Correlation Energy        =      -0.3088548984108023 [Eh]
	 Total Energy              =     -99.7597335379189047 [Eh]
	 SCS Total Energy          =     -99.7507094710606168 [Eh]
                               Psi4 1.9 release
    Molecular point group: c1
  Multiplicity = 1
  Basis Set: AUG-CC-PVTZ
    Blend: AUG-CC-PVTZ
  Basis Set: (AUG-CC-PVTZ AUX)
    Blend: AUG-CC-PVTZ-JKFIT
  @DF-RHF Final Energy:   -76.04860884557368
    Total Energy =                        -76.0486088455736819
  Basis Set: (AUG-CC-PVTZ AUX)
	 Singles Energy            =      -0.0000000000000000 [Eh]
	 Same-Spin Energy          =      -0.0692943157844809 [Eh]
	 Opposite-Spin Energy      =      -0.2184525677910629 [Eh]
	 Correlation Energy        =      -0.2877468835755438 [Eh]
	 Total Energy              =     -76.3363557291492327 [Eh]
	 SCS Total Energy          =     -76.3338500321844577 [Eh]
                               Psi4 1.9 release
    Molecular point group: c1

    Geometry (in Bohr), charge = -1, multiplicity = 1:

       Center              X                  Y                   Z               Mass
    ------------   -----------------  -----------------  -----------------  -----------------
         O            0.000000000000     0.000000000000     0.000000000000    15.994914619570
         H            0.121263725471     1.801394657176    -0.121263725471     1.007825032230
         H            1.355485431982    -0.585484396820    -1.355485431982     1.007825032230
         F            4.585210683823     0.000000000000     0.000000000000    18.998403162730

  Charge       = -1
  Multiplicity = 1
  Basis Set: AUG-CC-PVTZ
    Blend: AUG-CC-PVTZ
  Basis Set: (AUG-CC-PVTZ AUX)
    Blend: AUG-CC-PVTZ-JKFIT

    Orbital Energies [Eh]
    ---------------------

    Doubly Occupied:

       1A    -25.854952     2A    -20.347590     3A     -1.119253
       4A     -1.095576     5A     -0.466663     6A     -0.366730
       7A     -0.292007     8A     -0.207624     9A     -0.206430
      10A     -0.196938

  @DF-RHF Final Energy:  -175.50784636731260

   => Energetics <=

    Nuclear Repulsion Energy =             28.8565431459514237
    One-Electron Energy =                -308.4212506617031408
    Two-Electron Energy =                 104.0568611484391113
    Total Energy =                       -175.5078463673125952
 Dipole X            :        -46.3947280           42.7436453           -3.6510827
 Dipole Y            :         -0.8390825            1.2159103            0.3768278
 Dipole Z            :          1.0499181           -1.4767492           -0.4268310
 Magnitude           :                                                    3.6952116
  Basis Set: (AUG-CC-PVTZ AUX)
    Blend: AUG-CC-PVTZ-RI
	 Reference Energy          =    -175.5078463673125952 [Eh]
	 Singles Energy            =      -0.0000000000000000 [Eh]
	 Same-Spin Energy          =      -0.1530106470331206 [Eh]
	 Opposite-Spin Energy      =      -0.4463604617831381 [Eh]
	 Correlation Energy        =      -0.5993711088162588 [Eh]
	 Total Energy              =    -176.1072174761288522 [Eh]

	 ================> DF-SCS-MP2 Energies <==================
	-----------------------------------------------------------
	 SCS Same-Spin Scale       =       0.3333333333333333 [-]
	 SCS Opposite-Spin Scale   =       1.2000000000000000 [-]
	 SCS Same-Spin Energy      =      -0.0510035490110402 [Eh]
	 SCS Opposite-Spin Energy  =      -0.5356325541397657 [Eh]
	 SCS Correlation Energy    =      -0.5866361031508059 [Eh]
	 SCS Total Energy          =    -176.0944824704633902 [Eh]
	-----------------------------------------------------------

*** Psi4 exiting successfully. Buy a developer a beer!
