                               Psi4 1.9 release

  ==> Input File <==

--------------------------------------------------------------------------
MEMORY 60 GB

molecule dimer {
0 1
O      0.000000     0.000000     0.000000
H     -0.052322     0.955205     0.052322
H      0.694339    -0.112425    -0.694339
--
-1 1
Cl     3.070352     0.000000     0.000000

units ang
no_reorient
no_com
symmetry c1
}

set {
basis        aug-cc-pVTZ
scf_type     df
}

energy("mp2", bsse_type="cp")
--------------------------------------------------------------------------

                               Psi4 1.9 release
    Molecular point group: c1
  Charge       = -1
  Multiplicity = 1
  Basis Set: AUG-CC-PVTZ
    Blend: AUG-CC-PVTZ
  Basis Set: (AUG-CC-PVTZ AUX)
    Blend: AUG-CC-PVTZ-JKFIT
  @DF-RHF Final Energy:  -459.57349839901167
    Total Energy =                       -459.5734983990116689
 Dipole X            :       -104.4383305           98.6361146           -5.8022159
 Dipole Y            :         -0.0000310            0.0000000           -0.0000310
 Dipole Z            :          0.0002202            0.0000000            0.0002202
 Magnitude           :                                                    5.8022159
  Basis Set: (AUG-CC-PVTZ AUX)
    Blend: AUG-CC-PVTZ-RI
	 Reference Energy          =    -459.5734983990116689 [Eh]
	 Singles Energy            =      -0.0000000000000000 [Eh]
	 Same-Spin Energy          =      -0.0624842873767540 [Eh]
	 Opposite-Spin Energy      =      -0.1795409299089128 [Eh]
	 Correlation Energy        =      -0.2420252172856669 [Eh]
	 Total Energy              =    -459.8155236162973551 [Eh]
	 SCS Total Energy          =    -459.8097756106946008 [Eh]
                               Psi4 1.9 release
    Molecular point group: c1
  Multiplicity = 1
  Basis Set: AUG-CC-PVTZ
    Blend: AUG-CC-PVTZ
  Basis Set: (AUG-CC-PVTZ AUX)
    Blend: AUG-CC-PVTZ-JKFIT
  @DF-RHF Final Energy:   -76.05823365954318
    Total Energy =                        -76.0582336595431769
  Basis Set: (AUG-CC-PVTZ AUX)
	 Singles Energy            =      -0.0000000000000000 [Eh]
	 Same-Spin Energy          =      -0.0687147902230775 [Eh]
	 Opposite-Spin Energy      =      -0.2164238938325820 [Eh]
	 Correlation Energy        =      -0.2851386840556595 [Eh]
	 Total Energy              =     -76.3433723435988298 [Eh]
	 SCS Total Energy          =     -76.3408472622166414 [Eh]
                               Psi4 1.9 release
    Molecular point group: c1

    Geometry (in Bohr), charge = -1, multiplicity = 1:

       Center              X                  Y                   Z               Mass
    ------------   -----------------  -----------------  -----------------  -----------------
         O            0.000000000000     0.000000000000     0.000000000000    15.994914619570
         H           -0.098874250336     1.805075843668     0.098874250336     1.007825032230
         H            1.312110548224    -0.212452459655    -1.312110548224     1.007825032230
         CL           5.802124388752     0.000000000000     0.000000000000    34.968852682000

  Charge       = -1
  Multiplicity = 1
  Basis Set: AUG-CC-PVTZ
    Blend: AUG-CC-PVTZ
  Basis Set: (AUG-CC-PVTZ AUX)
    Blend: AUG-CC-PVTZ-JKFIT

    Orbital Energies [Eh]
    ---------------------

    Doubly Occupied:

       1A   -104.515666     2A    -20.392534     3A    -10.239907
       4A     -7.705981     5A     -7.705943     6A     -7.705896
       7A     -1.172306     8A     -0.747354     9A     -0.527505
      10A     -0.417452    11A     -0.336328    12A     -0.164429
      13A     -0.162739    14A     -0.160288

  @DF-RHF Final Energy:  -535.63700447889778

   => Energetics <=

    Nuclear Repulsion Energy =             38.8790366455021470
    One-Electron Energy =                -825.1234244265535835
    Two-Electron Energy =                 250.6073833021535791
    Total Energy =                       -535.6370044788977793
 Dipole X            :       -104.9530744           99.8493509           -5.1037235
 Dipole Y            :         -1.0983806            1.5926234            0.4942427
 Dipole Z            :          0.9068871           -1.2132363           -0.3063492
 Magnitude           :                                                    5.1367420
  Basis Set: (AUG-CC-PVTZ AUX)
    Blend: AUG-CC-PVTZ-RI
	 Reference Energy          =    -535.6370044788977793 [Eh]
	 Singles Energy            =      -0.0000000000000000 [Eh]
	 Same-Spin Energy          =      -0.1332524596743221 [Eh]
	 Opposite-Spin Energy      =      -0.3976387288696738 [Eh]
	 Correlation Energy        =      -0.5308911885439960 [Eh]
	 Total Energy              =    -536.1678956674418259 [Eh]

	 ================> DF-SCS-MP2 Energies <==================
	-----------------------------------------------------------
	 SCS Same-Spin Scale       =       0.3333333333333333 [-]
	 SCS Opposite-Spin Scale   =       1.2000000000000000 [-]
	 SCS Same-Spin Energy      =      -0.0444174865581074 [Eh]
	 SCS Opposite-Spin Energy  =      -0.4771664746436086 [Eh]
	 SCS Correlation Energy    =      -0.5215839612017159 [Eh]
	 SCS Total Energy          =    -536.1585884400994928 [Eh]
	-----------------------------------------------------------

*** Psi4 exiting successfully. Buy a developer a beer!
