                               Psi4 1.9 release

  ==> Input File <==

--------------------------------------------------------------------------
MEMORY 60 GB

molecule dimer {
0 1
O      0.000000     0.000000     0.000000
H      0.124276     0.941808    -0.124276
H      0.650104    -0.362740    -0.650104
--
-1 1
Cl     3.070352     0.000000     0.000000

units ang
no_reorient
no_com
symmetry c1
}

set {
basis        aug-cc-pVTZ
scf_type     df
}

energy("mp2", bsse_type="cp")
--------------------------------------------------------------------------

                               Psi4 1.9 release
    Molecular point group: c1
  Charge       = -1
  Multiplicity = 1
  Basis Set: AUG-CC-PVTZ
    Blend: AUG-CC-PVTZ
  Basis Set: (AUG-CC-PVTZ AUX)
    Blend: AUG-CC-PVTZ-JKFIT
  @DF-RHF Final Energy:  -459.57349855452583
    Total Energy =                       -459.5734985545258269
 Dipole X            :       -104.4382807           98.6361146           -5.8021661
 Dipole Y            :          0.0000143            0.0000000            0.0000143
 Dipole Z            :          0.0002004            0.0000000            0.0002004
 Magnitude           :                                                    5.8021661
  Basis Set: (AUG-CC-PVTZ AUX)
    Blend: AUG-CC-PVTZ-RI
	 Reference Energy          =    -459.5734985545258269 [Eh]
	 Singles Energy            =      -0.0000000000000000 [Eh]
	 Same-Spin Energy          =      -0.0624817024261858 [Eh]
	 Opposite-Spin Energy      =      -0.1795155426429777 [Eh]
	 Correlation Energy        =      -0.2419972450691635 [Eh]
	 Total Energy              =    -459.8154957995949985 [Eh]
	 SCS Total Energy          =    -459.8097444398394487 [Eh]
                               Psi4 1.9 release
    Molecular point group: c1
  Multiplicity = 1
  Basis Set: AUG-CC-PVTZ
    Blend: AUG-CC-PVTZ
  Basis Set: (AUG-CC-PVTZ AUX)
    Blend: AUG-CC-PVTZ-JKFIT
  @DF-RHF Final Energy:   -76.05822963906785
    Total Energy =                        -76.0582296390678465
  Basis Set: (AUG-CC-PVTZ AUX)
	 Singles Energy            =      -0.0000000000000000 [Eh]
	 Same-Spin Energy          =      -0.0687131255138572 [Eh]
	 Opposite-Spin Energy      =      -0.2164020888384543 [Eh]
	 Correlation Energy        =      -0.2851152143523115 [Eh]
	 Total Energy              =     -76.3433448534201631 [Eh]
	 SCS Total Energy          =     -76.3408165208452800 [Eh]
                               Psi4 1.9 release
    Molecular point group: c1

    Geometry (in Bohr), charge = -1, multiplicity = 1:

       Center              X                  Y                   Z               Mass
    ------------   -----------------  -----------------  -----------------  -----------------
         O            0.000000000000     0.000000000000     0.000000000000    15.994914619570
         H            0.234847603967     1.779759182765    -0.234847603967     1.007825032230
         H            1.228518513065    -0.685479254749    -1.228518513065     1.007825032230
         CL           5.802124388752     0.000000000000     0.000000000000    34.968852682000

  Charge       = -1
  Multiplicity = 1
  Basis Set: AUG-CC-PVTZ
    Blend: AUG-CC-PVTZ
  Basis Set: (AUG-CC-PVTZ AUX)
    Blend: AUG-CC-PVTZ-JKFIT

    Orbital Energies [Eh]
    ---------------------

    Doubly Occupied:

       1A   -104.516337     2A    -20.391899     3A    -10.240575
       4A     -7.706645     5A     -7.706616     6A     -7.706566
       7A     -1.171543     8A     -0.747898     9A     -0.527084
      10A     -0.417431    11A     -0.335953    12A     -0.164822
      13A     -0.163565    14A     -0.161007

  @DF-RHF Final Energy:  -535.63784996951870

   => Energetics <=

    Nuclear Repulsion Energy =             38.9530053301701429
    One-Electron Energy =                -825.2658292334211865
    Two-Electron Energy =                 250.6749739337322751
    Total Energy =                       -535.6378499695186974
 Dipole X            :       -105.1258250          100.0994807           -5.0263443
 Dipole Y            :         -0.7461181            1.0942799            0.3481619
 Dipole Z            :          1.0727803           -1.4633661           -0.3905858
 Magnitude           :                                                    5.0535048
  Basis Set: (AUG-CC-PVTZ AUX)
    Blend: AUG-CC-PVTZ-RI
	 Reference Energy          =    -535.6378499695186974 [Eh]
	 Singles Energy            =      -0.0000000000000000 [Eh]
	 Same-Spin Energy          =      -0.1331468548798383 [Eh]
	 Opposite-Spin Energy      =      -0.3974456444919663 [Eh]
	 Correlation Energy        =      -0.5305924993718045 [Eh]
	 Total Energy              =    -536.1684424688904755 [Eh]

	 ================> DF-SCS-MP2 Energies <==================
	-----------------------------------------------------------
	 SCS Same-Spin Scale       =       0.3333333333333333 [-]
	 SCS Opposite-Spin Scale   =       1.2000000000000000 [-]
	 SCS Same-Spin Energy      =      -0.0443822849599461 [Eh]
	 SCS Opposite-Spin Energy  =      -0.4769347733903595 [Eh]
	 SCS Correlation Energy    =      -0.5213170583503056 [Eh]
	 SCS Total Energy          =    -536.1591670278689890 [Eh]
	-----------------------------------------------------------

*** Psi4 exiting successfully. Buy a developer a beer!
