                               Psi4 1.9 release

  ==> Input File <==

--------------------------------------------------------------------------
MEMORY 60 GB

molecule dimer {
0 1
O      0.000000     0.000000     0.000000
H     -0.225353     0.903506     0.225353
H      0.691255     0.145551    -0.691255
--
-1 1
Cl     3.070352     0.000000     0.000000

units ang
no_reorient
no_com
symmetry c1
}

set {
basis        aug-cc-pVTZ
scf_type     df
}

energy("mp2", bsse_type="cp")
--------------------------------------------------------------------------

                               Psi4 1.9 release
    Molecular point group: c1
  Charge       = -1
  Multiplicity = 1
  Basis Set: AUG-CC-PVTZ
    Blend: AUG-CC-PVTZ
  Basis Set: (AUG-CC-PVTZ AUX)
    Blend: AUG-CC-PVTZ-JKFIT
  @DF-RHF Final Energy:  -459.57349779031671
    Total Energy =                       -459.5734977903167078
 Dipole X            :       -104.4382851           98.6361146           -5.8021705
 Dipole Y            :         -0.0001237            0.0000000           -0.0001237
 Dipole Z            :          0.0001975            0.0000000            0.0001975
 Magnitude           :                                                    5.8021705
  Basis Set: (AUG-CC-PVTZ AUX)
    Blend: AUG-CC-PVTZ-RI
	 Reference Energy          =    -459.5734977903167078 [Eh]
	 Singles Energy            =      -0.0000000000000000 [Eh]
	 Same-Spin Energy          =      -0.0624799688986418 [Eh]
	 Opposite-Spin Energy      =      -0.1795231071038098 [Eh]
	 Correlation Energy        =      -0.2420030760024516 [Eh]
	 Total Energy              =    -459.8155008663191552 [Eh]
	 SCS Total Energy          =    -459.8097521751408294 [Eh]
                               Psi4 1.9 release
    Molecular point group: c1
  Multiplicity = 1
  Basis Set: AUG-CC-PVTZ
    Blend: AUG-CC-PVTZ
  Basis Set: (AUG-CC-PVTZ AUX)
    Blend: AUG-CC-PVTZ-JKFIT
  @DF-RHF Final Energy:   -76.05823477418160
    Total Energy =                        -76.0582347741815852
  Basis Set: (AUG-CC-PVTZ AUX)
	 Singles Energy            =      -0.0000000000000000 [Eh]
	 Same-Spin Energy          =      -0.0687154715241788 [Eh]
	 Opposite-Spin Energy      =      -0.2164290983828435 [Eh]
	 Correlation Energy        =      -0.2851445699070222 [Eh]
	 Total Energy              =     -76.3433793440886177 [Eh]
	 SCS Total Energy          =     -76.3408548494157344 [Eh]
                               Psi4 1.9 release
    Molecular point group: c1

    Geometry (in Bohr), charge = -1, multiplicity = 1:

       Center              X                  Y                   Z               Mass
    ------------   -----------------  -----------------  -----------------  -----------------
         O            0.000000000000     0.000000000000     0.000000000000    15.994914619570
         H           -0.425855451550     1.707378892708     0.425855451550     1.007825032230
         H            1.306282632853     0.275051527287    -1.306282632853     1.007825032230
         CL           5.802124388752     0.000000000000     0.000000000000    34.968852682000

  Charge       = -1
  Multiplicity = 1
  Basis Set: AUG-CC-PVTZ
    Blend: AUG-CC-PVTZ
  Basis Set: (AUG-CC-PVTZ AUX)
    Blend: AUG-CC-PVTZ-JKFIT

    Orbital Energies [Eh]
    ---------------------

    Doubly Occupied:

       1A   -104.513760     2A    -20.394788     3A    -10.237977
       4A     -7.704053     5A     -7.704012     6A     -7.703965
       7A     -1.174320     8A     -0.745325     9A     -0.529047
      10A     -0.418421    11A     -0.337893    12A     -0.162541
      13A     -0.160657    14A     -0.158277

  @DF-RHF Final Energy:  -535.63509569489281

   => Energetics <=

    Nuclear Repulsion Energy =             38.7457250287701527
    One-Electron Energy =                -824.8715668631051585
    Two-Electron Energy =                 250.4907461394421375
    Total Energy =                       -535.6350956948929252
 Dipole X            :       -104.7463754           99.5165418           -5.2298336
 Dipole Y            :         -1.3810767            1.9824304            0.6013537
 Dipole Z            :          0.6785637           -0.8804272           -0.2018635
 Magnitude           :                                                    5.2681623
  Basis Set: (AUG-CC-PVTZ AUX)
    Blend: AUG-CC-PVTZ-RI
	 Reference Energy          =    -535.6350956948928115 [Eh]
	 Singles Energy            =      -0.0000000000000000 [Eh]
	 Same-Spin Energy          =      -0.1332856220151398 [Eh]
	 Opposite-Spin Energy      =      -0.3977696378359027 [Eh]
	 Correlation Energy        =      -0.5310552598510425 [Eh]
	 Total Energy              =    -536.1661509547438982 [Eh]

	 ================> DF-SCS-MP2 Energies <==================
	-----------------------------------------------------------
	 SCS Same-Spin Scale       =       0.3333333333333333 [-]
	 SCS Opposite-Spin Scale   =       1.2000000000000000 [-]
	 SCS Same-Spin Energy      =      -0.0444285406717133 [Eh]
	 SCS Opposite-Spin Energy  =      -0.4773235654030832 [Eh]
	 SCS Correlation Energy    =      -0.5217521060747965 [Eh]
	 SCS Total Energy          =    -536.1568478009676255 [Eh]
	-----------------------------------------------------------

*** Psi4 exiting successfully. Buy a developer a beer!
