                               Psi4 1.9 release

  ==> Input File <==

--------------------------------------------------------------------------
MEMORY 60 GB

molecule dimer {
0 1
O      0.000000     0.000000     0.000000
H     -0.514599     0.623110     0.514599
H      0.547184     0.614842    -0.547184
--
-1 1
Cl     3.070352     0.000000     0.000000

units ang
no_reorient
no_com
symmetry c1
}

set {
basis        aug-cc-pVTZ
scf_type     df
}

energy("mp2", bsse_type="cp")
--------------------------------------------------------------------------

                               Psi4 1.9 release
    Molecular point group: c1
  Charge       = -1
  Multiplicity = 1
  Basis Set: AUG-CC-PVTZ
    Blend: AUG-CC-PVTZ
  Basis Set: (AUG-CC-PVTZ AUX)
    Blend: AUG-CC-PVTZ-JKFIT
  @DF-RHF Final Energy:  -459.57349566255056
    Total Energy =                       -459.5734956625505561
 Dipole X            :       -104.4381052           98.6361146           -5.8019906
 Dipole Y            :         -0.0001826            0.0000000           -0.0001826
 Dipole Z            :          0.0000910            0.0000000            0.0000910
 Magnitude           :                                                    5.8019906
  Basis Set: (AUG-CC-PVTZ AUX)
    Blend: AUG-CC-PVTZ-RI
	 Reference Energy          =    -459.5734956625505561 [Eh]
	 Singles Energy            =      -0.0000000000000000 [Eh]
	 Same-Spin Energy          =      -0.0624482904555277 [Eh]
	 Opposite-Spin Energy      =      -0.1793565669683214 [Eh]
	 Correlation Energy        =      -0.2418048574238490 [Eh]
	 Total Energy              =    -459.8153005199744143 [Eh]
	 SCS Total Energy          =    -459.8095396397310424 [Eh]
                               Psi4 1.9 release
    Molecular point group: c1
  Multiplicity = 1
  Basis Set: AUG-CC-PVTZ
    Blend: AUG-CC-PVTZ
  Basis Set: (AUG-CC-PVTZ AUX)
    Blend: AUG-CC-PVTZ-JKFIT
  @DF-RHF Final Energy:   -76.05822908137517
    Total Energy =                        -76.0582290813751740
  Basis Set: (AUG-CC-PVTZ AUX)
	 Singles Energy            =      -0.0000000000000000 [Eh]
	 Same-Spin Energy          =      -0.0687134009862515 [Eh]
	 Opposite-Spin Energy      =      -0.2163901113979235 [Eh]
	 Correlation Energy        =      -0.2851035123841750 [Eh]
	 Total Energy              =     -76.3433325937593423 [Eh]
	 SCS Total Energy          =     -76.3408016820480952 [Eh]
                               Psi4 1.9 release
    Molecular point group: c1

    Geometry (in Bohr), charge = -1, multiplicity = 1:

       Center              X                  Y                   Z               Mass
    ------------   -----------------  -----------------  -----------------  -----------------
         O            0.000000000000     0.000000000000     0.000000000000    15.994914619570
         H           -0.972451174434     1.177507246034     0.972451174434     1.007825032230
         H            1.034027900233     1.161882990429    -1.034027900233     1.007825032230
         CL           5.802124388752     0.000000000000     0.000000000000    34.968852682000

  Charge       = -1
  Multiplicity = 1
  Basis Set: AUG-CC-PVTZ
    Blend: AUG-CC-PVTZ
  Basis Set: (AUG-CC-PVTZ AUX)
    Blend: AUG-CC-PVTZ-JKFIT

    Orbital Energies [Eh]
    ---------------------

    Doubly Occupied:

       1A   -104.506529     2A    -20.403277     3A    -10.230646
       4A     -7.696716     5A     -7.696682     6A     -7.696628
       7A     -1.181432     8A     -0.737189     9A     -0.535193
      10A     -0.422929    11A     -0.344008    12A     -0.154546
      13A     -0.153029    14A     -0.150602

  @DF-RHF Final Energy:  -535.62823609890290

   => Energetics <=

    Nuclear Repulsion Energy =             38.3316297036531566
    One-Electron Energy =                -824.1009210888238385
    Two-Electron Energy =                 250.1410552862678287
    Total Energy =                       -535.6282360989029030
 Dipole X            :       -104.2911320           98.6976913           -5.5934407
 Dipole Y            :         -1.6493087            2.3393902            0.6900815
 Dipole Z            :          0.0982793           -0.0615767            0.0367026
 Magnitude           :                                                    5.6359682
  Basis Set: (AUG-CC-PVTZ AUX)
    Blend: AUG-CC-PVTZ-RI
	 Reference Energy          =    -535.6282360989029030 [Eh]
	 Singles Energy            =      -0.0000000000000000 [Eh]
	 Same-Spin Energy          =      -0.1331138972312435 [Eh]
	 Opposite-Spin Energy      =      -0.3977748891103946 [Eh]
	 Correlation Energy        =      -0.5308887863416381 [Eh]
	 Total Energy              =    -536.1591248852445233 [Eh]

	 ================> DF-SCS-MP2 Energies <==================
	-----------------------------------------------------------
	 SCS Same-Spin Scale       =       0.3333333333333333 [-]
	 SCS Opposite-Spin Scale   =       1.2000000000000000 [-]
	 SCS Same-Spin Energy      =      -0.0443712990770812 [Eh]
	 SCS Opposite-Spin Energy  =      -0.4773298669324735 [Eh]
	 SCS Correlation Energy    =      -0.5217011660095546 [Eh]
	 SCS Total Energy          =    -536.1499372649124098 [Eh]
	-----------------------------------------------------------

*** Psi4 exiting successfully. Buy a developer a beer!
