                               Psi4 1.9 release

  ==> Input File <==

--------------------------------------------------------------------------
MEMORY 60 GB

molecule dimer {
0 1
O      0.000000     0.000000     0.000000
H      0.292404     0.864229    -0.292404
H      0.561567    -0.588334    -0.561567
--
-1 1
Cl     3.070352     0.000000     0.000000

units ang
no_reorient
no_com
symmetry c1
}

set {
basis        aug-cc-pVTZ
scf_type     df
}

energy("mp2", bsse_type="cp")
--------------------------------------------------------------------------

                               Psi4 1.9 release
    Molecular point group: c1
  Charge       = -1
  Multiplicity = 1
  Basis Set: AUG-CC-PVTZ
    Blend: AUG-CC-PVTZ
  Basis Set: (AUG-CC-PVTZ AUX)
    Blend: AUG-CC-PVTZ-JKFIT
  @DF-RHF Final Energy:  -459.57349783256984
    Total Energy =                       -459.5734978325698421
 Dipole X            :       -104.4381585           98.6361146           -5.8020438
 Dipole Y            :          0.0000064            0.0000000            0.0000064
 Dipole Z            :          0.0001763            0.0000000            0.0001763
 Magnitude           :                                                    5.8020438
  Basis Set: (AUG-CC-PVTZ AUX)
    Blend: AUG-CC-PVTZ-RI
	 Reference Energy          =    -459.5734978325698421 [Eh]
	 Singles Energy            =      -0.0000000000000000 [Eh]
	 Same-Spin Energy          =      -0.0624762346046474 [Eh]
	 Opposite-Spin Energy      =      -0.1794742515481975 [Eh]
	 Correlation Energy        =      -0.2419504861528449 [Eh]
	 Total Energy              =    -459.8154483187227015 [Eh]
	 SCS Total Energy          =    -459.8096923459625600 [Eh]
                               Psi4 1.9 release
    Molecular point group: c1
  Multiplicity = 1
  Basis Set: AUG-CC-PVTZ
    Blend: AUG-CC-PVTZ
  Basis Set: (AUG-CC-PVTZ AUX)
    Blend: AUG-CC-PVTZ-JKFIT
  @DF-RHF Final Energy:   -76.05822496547445
    Total Energy =                        -76.0582249654744658
  Basis Set: (AUG-CC-PVTZ AUX)
	 Singles Energy            =      -0.0000000000000000 [Eh]
	 Same-Spin Energy          =      -0.0687115537404313 [Eh]
	 Opposite-Spin Energy      =      -0.2163789326389230 [Eh]
	 Correlation Energy        =      -0.2850904863793542 [Eh]
	 Total Energy              =     -76.3433154518538117 [Eh]
	 SCS Total Energy          =     -76.3407835358879652 [Eh]
                               Psi4 1.9 release
    Molecular point group: c1

    Geometry (in Bohr), charge = -1, multiplicity = 1:

       Center              X                  Y                   Z               Mass
    ------------   -----------------  -----------------  -----------------  -----------------
         O            0.000000000000     0.000000000000     0.000000000000    15.994914619570
         H            0.552563477988     1.633156119678    -0.552563477988     1.007825032230
         H            1.061207831095    -1.111790130295    -1.061207831095     1.007825032230
         CL           5.802124388752     0.000000000000     0.000000000000    34.968852682000

  Charge       = -1
  Multiplicity = 1
  Basis Set: AUG-CC-PVTZ
    Blend: AUG-CC-PVTZ
  Basis Set: (AUG-CC-PVTZ AUX)
    Blend: AUG-CC-PVTZ-JKFIT

    Orbital Energies [Eh]
    ---------------------

    Doubly Occupied:

       1A   -104.516275     2A    -20.392223     3A    -10.240501
       4A     -7.706564     5A     -7.706547     6A     -7.706493
       7A     -1.171558     8A     -0.747633     9A     -0.527312
      10A     -0.417868    11A     -0.336257    12A     -0.164381
      13A     -0.163683    14A     -0.160979

  @DF-RHF Final Energy:  -535.63802543640168

   => Energetics <=

    Nuclear Repulsion Energy =             38.9818031761681709
    One-Electron Energy =                -825.3231109648680786
    Two-Electron Energy =                 250.7032823522981744
    Total Energy =                       -535.6380254364016764
 Dipole X            :       -105.2403234          100.2498859           -4.9904375
 Dipole Y            :         -0.3505833            0.5213660            0.1707827
 Dipole Z            :          1.1691331           -1.6137713           -0.4446382
 Magnitude           :                                                    5.0131164
  Basis Set: (AUG-CC-PVTZ AUX)
    Blend: AUG-CC-PVTZ-RI
	 Reference Energy          =    -535.6380254364016764 [Eh]
	 Singles Energy            =      -0.0000000000000000 [Eh]
	 Same-Spin Energy          =      -0.1330295858986944 [Eh]
	 Opposite-Spin Energy      =      -0.3972687720386405 [Eh]
	 Correlation Energy        =      -0.5302983579373348 [Eh]
	 Total Energy              =    -536.1683237943390168 [Eh]

	 ================> DF-SCS-MP2 Energies <==================
	-----------------------------------------------------------
	 SCS Same-Spin Scale       =       0.3333333333333333 [-]
	 SCS Opposite-Spin Scale   =       1.2000000000000000 [-]
	 SCS Same-Spin Energy      =      -0.0443431952995648 [Eh]
	 SCS Opposite-Spin Energy  =      -0.4767225264463685 [Eh]
	 SCS Correlation Energy    =      -0.5210657217459334 [Eh]
	 SCS Total Energy          =    -536.1590911581475893 [Eh]
	-----------------------------------------------------------

*** Psi4 exiting successfully. Buy a developer a beer!
