                               Psi4 1.9 release

  ==> Input File <==

--------------------------------------------------------------------------
MEMORY 60 GB

molecule dimer {
0 1
O      0.000000     0.000000     0.000000
H      0.558780     0.541683    -0.558780
H      0.278323    -0.906600    -0.278323
--
-1 1
Cl     3.070352     0.000000     0.000000

units ang
no_reorient
no_com
symmetry c1
}

set {
basis        aug-cc-pVTZ
scf_type     df
}

energy("mp2", bsse_type="cp")
--------------------------------------------------------------------------

                               Psi4 1.9 release
    Molecular point group: c1
  Charge       = -1
  Multiplicity = 1
  Basis Set: AUG-CC-PVTZ
    Blend: AUG-CC-PVTZ
  Basis Set: (AUG-CC-PVTZ AUX)
    Blend: AUG-CC-PVTZ-JKFIT
  @DF-RHF Final Energy:  -459.57349794662002
    Total Energy =                       -459.5734979466200798
 Dipole X            :       -104.4381781           98.6361146           -5.8020635
 Dipole Y            :         -0.0000018            0.0000000           -0.0000018
 Dipole Z            :          0.0001795            0.0000000            0.0001795
 Magnitude           :                                                    5.8020635
  Basis Set: (AUG-CC-PVTZ AUX)
    Blend: AUG-CC-PVTZ-RI
	 Reference Energy          =    -459.5734979466200230 [Eh]
	 Singles Energy            =      -0.0000000000000000 [Eh]
	 Same-Spin Energy          =      -0.0624763108354543 [Eh]
	 Opposite-Spin Energy      =      -0.1794756811793000 [Eh]
	 Correlation Energy        =      -0.2419519920147543 [Eh]
	 Total Energy              =    -459.8154499386347993 [Eh]
	 SCS Total Energy          =    -459.8096942009803456 [Eh]
                               Psi4 1.9 release
    Molecular point group: c1
  Multiplicity = 1
  Basis Set: AUG-CC-PVTZ
    Blend: AUG-CC-PVTZ
  Basis Set: (AUG-CC-PVTZ AUX)
    Blend: AUG-CC-PVTZ-JKFIT
  @DF-RHF Final Energy:   -76.05822584673066
    Total Energy =                        -76.0582258467306644
  Basis Set: (AUG-CC-PVTZ AUX)
	 Singles Energy            =      -0.0000000000000000 [Eh]
	 Same-Spin Energy          =      -0.0687119870706773 [Eh]
	 Opposite-Spin Energy      =      -0.2163817124093604 [Eh]
	 Correlation Energy        =      -0.2850936994800377 [Eh]
	 Total Energy              =     -76.3433195462107079 [Eh]
	 SCS Total Energy          =     -76.3407878973121257 [Eh]
                               Psi4 1.9 release
    Molecular point group: c1

    Geometry (in Bohr), charge = -1, multiplicity = 1:

       Center              X                  Y                   Z               Mass
    ------------   -----------------  -----------------  -----------------  -----------------
         O            0.000000000000     0.000000000000     0.000000000000    15.994914619570
         H            1.055941164383     1.023632516816    -1.055941164383     1.007825032230
         H            0.525954244416    -1.713225705340    -0.525954244416     1.007825032230
         CL           5.802124388752     0.000000000000     0.000000000000    34.968852682000

  Charge       = -1
  Multiplicity = 1
  Basis Set: AUG-CC-PVTZ
    Blend: AUG-CC-PVTZ
  Basis Set: (AUG-CC-PVTZ AUX)
    Blend: AUG-CC-PVTZ-JKFIT

    Orbital Energies [Eh]
    ---------------------

    Doubly Occupied:

       1A   -104.515988     2A    -20.392898     3A    -10.240213
       4A     -7.706277     5A     -7.706260     6A     -7.706207
       7A     -1.171929     8A     -0.747337     9A     -0.527796
      10A     -0.418232    11A     -0.336753    12A     -0.164147
      13A     -0.163380    14A     -0.160749

  @DF-RHF Final Energy:  -535.63785415950451

   => Energetics <=

    Nuclear Repulsion Energy =             38.9662778657770730
    One-Electron Energy =                -825.2919319961318934
    Two-Electron Energy =                 250.6877999708503353
    Total Energy =                       -535.6378541595045135
 Dipole X            :       -105.2223102          100.2180100           -5.0043002
 Dipole Y            :          0.4749077           -0.6895932           -0.2146855
 Dipole Z            :          1.1465326           -1.5818954           -0.4353628
 Magnitude           :                                                    5.0277879
  Basis Set: (AUG-CC-PVTZ AUX)
    Blend: AUG-CC-PVTZ-RI
	 Reference Energy          =    -535.6378541595045135 [Eh]
	 Singles Energy            =      -0.0000000000000000 [Eh]
	 Same-Spin Energy          =      -0.1329979096978706 [Eh]
	 Opposite-Spin Energy      =      -0.3972696261999668 [Eh]
	 Correlation Energy        =      -0.5302675358978374 [Eh]
	 Total Energy              =    -536.1681216954023057 [Eh]

	 ================> DF-SCS-MP2 Energies <==================
	-----------------------------------------------------------
	 SCS Same-Spin Scale       =       0.3333333333333333 [-]
	 SCS Opposite-Spin Scale   =       1.2000000000000000 [-]
	 SCS Same-Spin Energy      =      -0.0443326365659569 [Eh]
	 SCS Opposite-Spin Energy  =      -0.4767235514399601 [Eh]
	 SCS Correlation Energy    =      -0.5210561880059170 [Eh]
	 SCS Total Energy          =    -536.1589103475104139 [Eh]
	-----------------------------------------------------------

*** Psi4 exiting successfully. Buy a developer a beer!
