                               Psi4 1.9 release

  ==> Input File <==

--------------------------------------------------------------------------
MEMORY 60 GB

molecule dimer {
0 1
O      0.000000     0.000000     0.000000
H     -0.516445     0.620454     0.516444
H      0.544094     0.614329    -0.544094
--
-1 1
Br     3.212066     0.000000     0.000000

units ang
no_reorient
no_com
symmetry c1
}

set {
basis        aug-cc-pVTZ
scf_type     df
}

energy("mp2", bsse_type="cp")
--------------------------------------------------------------------------

                               Psi4 1.9 release
    Molecular point group: c1
  Charge       = -1
  Multiplicity = 1
  Basis Set: AUG-CC-PVTZ
    Blend: AUG-CC-PVTZ
  Basis Set: (AUG-CC-PVTZ AUX)
    Blend: AUG-CC-PVTZ-JKFIT
  @DF-RHF Final Energy: -2572.53367615712568
    Total Energy =                      -2572.5336761571256829
 Dipole X            :       -218.5172678          212.4473763           -6.0698915
 Dipole Y            :          0.0000209            0.0000000            0.0000209
 Dipole Z            :         -0.0000534            0.0000000           -0.0000534
 Magnitude           :                                                    6.0698915
  Basis Set: (AUG-CC-PVTZ AUX)
    Blend: AUG-CC-PVTZ-RI
	 Reference Energy          =   -2572.5336761571256829 [Eh]
	 Singles Energy            =      -0.0000000000000000 [Eh]
	 Same-Spin Energy          =      -0.0872750591519421 [Eh]
	 Opposite-Spin Energy      =      -0.2024608580276936 [Eh]
	 Correlation Energy        =      -0.2897359171796356 [Eh]
	 Total Energy              =   -2572.8234120743054518 [Eh]
	 SCS Total Energy          =   -2572.8057208731429455 [Eh]
                               Psi4 1.9 release
    Molecular point group: c1
  Multiplicity = 1
  Basis Set: AUG-CC-PVTZ
    Blend: AUG-CC-PVTZ
  Basis Set: (AUG-CC-PVTZ AUX)
    Blend: AUG-CC-PVTZ-JKFIT
  @DF-RHF Final Energy:   -76.05854311349367
    Total Energy =                        -76.0585431134936840
  Basis Set: (AUG-CC-PVTZ AUX)
	 Singles Energy            =      -0.0000000000000000 [Eh]
	 Same-Spin Energy          =      -0.0686801418252832 [Eh]
	 Opposite-Spin Energy      =      -0.2162817276126374 [Eh]
	 Correlation Energy        =      -0.2849618694379206 [Eh]
	 Total Energy              =     -76.3435049829315915 [Eh]
	 SCS Total Energy          =     -76.3409745672372679 [Eh]
                               Psi4 1.9 release
    Molecular point group: c1

    Geometry (in Bohr), charge = -1, multiplicity = 1:

       Center              X                  Y                   Z               Mass
    ------------   -----------------  -----------------  -----------------  -----------------
         O            0.000000000000     0.000000000000     0.000000000000    15.994914619570
         H           -0.975939608862     1.172488133445     0.975937719136     1.007825032230
         H            1.028188646505     1.160913560926    -1.028188646505     1.007825032230
         BR           6.069925036895     0.000000000000     0.000000000000    78.918337600000

  Charge       = -1
  Multiplicity = 1
  Basis Set: AUG-CC-PVTZ
    Blend: AUG-CC-PVTZ
  Basis Set: (AUG-CC-PVTZ AUX)
    Blend: AUG-CC-PVTZ-JKFIT

    Orbital Energies [Eh]
    ---------------------

    Doubly Occupied:

       1A   -489.720724     2A    -64.860922     3A    -58.215422
       4A    -58.215401     5A    -58.215335     6A    -20.410709
       7A     -9.533381     8A     -7.140926     9A     -7.140791
      10A     -7.140516    11A     -2.882714    12A     -2.882700
      13A     -2.882319    14A     -2.882156    15A     -2.882067
      16A     -1.190066    17A     -0.688898    18A     -0.544140
      19A     -0.430835    20A     -0.351941    21A     -0.142967
      22A     -0.141257    23A     -0.138621

  @DF-RHF Final Energy: -2648.58835185180214

   => Energetics <=

    Nuclear Repulsion Energy =             66.6891675315021928
    One-Electron Energy =               -3833.2854221615821189
    Two-Electron Energy =                1118.0079027782778667
    Total Energy =                      -2648.5883518518021447
 Dipole X            :       -218.3987504          212.4996253           -5.8991250
 Dipole Y            :         -1.6637078            2.3334017            0.6696939
 Dipole Z            :          0.1028408           -0.0522509            0.0505899
 Magnitude           :                                                    5.9372321
  Basis Set: (AUG-CC-PVTZ AUX)
    Blend: AUG-CC-PVTZ-RI
	 Reference Energy          =   -2648.5883518518021447 [Eh]
	 Singles Energy            =      -0.0000000000000000 [Eh]
	 Same-Spin Energy          =      -0.1579920662632600 [Eh]
	 Opposite-Spin Energy      =      -0.4208575117642531 [Eh]
	 Correlation Energy        =      -0.5788495780275131 [Eh]
	 Total Energy              =   -2649.1672014298296745 [Eh]

	 ================> DF-SCS-MP2 Energies <==================
	-----------------------------------------------------------
	 SCS Same-Spin Scale       =       0.3333333333333333 [-]
	 SCS Opposite-Spin Scale   =       1.2000000000000000 [-]
	 SCS Same-Spin Energy      =      -0.0526640220877533 [Eh]
	 SCS Opposite-Spin Energy  =      -0.5050290141171037 [Eh]
	 SCS Correlation Energy    =      -0.5576930362048570 [Eh]
	 SCS Total Energy          =   -2649.1460448880070544 [Eh]
	-----------------------------------------------------------

*** Psi4 exiting successfully. Buy a developer a beer!
