                               Psi4 1.9 release

  ==> Input File <==

--------------------------------------------------------------------------
MEMORY 60 GB

molecule dimer {
0 1
O      0.000000     0.000000     0.000000
H     -0.612398     0.410281     0.612398
H      0.413124     0.792548    -0.413124
--
-1 1
Br     3.212066     0.000000     0.000000

units ang
no_reorient
no_com
symmetry c1
}

set {
basis        aug-cc-pVTZ
scf_type     df
}

energy("mp2", bsse_type="cp")
--------------------------------------------------------------------------

                               Psi4 1.9 release
    Molecular point group: c1
  Charge       = -1
  Multiplicity = 1
  Basis Set: AUG-CC-PVTZ
    Blend: AUG-CC-PVTZ
  Basis Set: (AUG-CC-PVTZ AUX)
    Blend: AUG-CC-PVTZ-JKFIT
  @DF-RHF Final Energy: -2572.53367509446343
    Total Energy =                      -2572.5336750944634332
 Dipole X            :       -218.5172162          212.4473763           -6.0698399
 Dipole Y            :          0.0000246            0.0000000            0.0000246
 Dipole Z            :         -0.0000210            0.0000000           -0.0000210
 Magnitude           :                                                    6.0698399
  Basis Set: (AUG-CC-PVTZ AUX)
    Blend: AUG-CC-PVTZ-RI
	 Reference Energy          =   -2572.5336750944634332 [Eh]
	 Singles Energy            =      -0.0000000000000000 [Eh]
	 Same-Spin Energy          =      -0.0872004261458624 [Eh]
	 Opposite-Spin Energy      =      -0.2022615939864953 [Eh]
	 Correlation Energy        =      -0.2894620201323577 [Eh]
	 Total Energy              =   -2572.8231371145957382 [Eh]
	 SCS Total Energy          =   -2572.8054558159624321 [Eh]
                               Psi4 1.9 release
    Molecular point group: c1
  Multiplicity = 1
  Basis Set: AUG-CC-PVTZ
    Blend: AUG-CC-PVTZ
  Basis Set: (AUG-CC-PVTZ AUX)
    Blend: AUG-CC-PVTZ-JKFIT
  @DF-RHF Final Energy:   -76.05854129988752
    Total Energy =                        -76.0585412998875370
  Basis Set: (AUG-CC-PVTZ AUX)
	 Singles Energy            =      -0.0000000000000000 [Eh]
	 Same-Spin Energy          =      -0.0686788485308822 [Eh]
	 Opposite-Spin Energy      =      -0.2162605818268080 [Eh]
	 Correlation Energy        =      -0.2849394303576903 [Eh]
	 Total Energy              =     -76.3434807302452185 [Eh]
	 SCS Total Energy          =     -76.3409469475899840 [Eh]
                               Psi4 1.9 release
    Molecular point group: c1

    Geometry (in Bohr), charge = -1, multiplicity = 1:

       Center              X                  Y                   Z               Mass
    ------------   -----------------  -----------------  -----------------  -----------------
         O            0.000000000000     0.000000000000     0.000000000000    15.994914619570
         H           -1.157264499778     0.775318724479     1.157264499778     1.007825032230
         H            0.780691215854     1.497698661279    -0.780691215854     1.007825032230
         BR           6.069925036895     0.000000000000     0.000000000000    78.918337600000

  Charge       = -1
  Multiplicity = 1
  Basis Set: AUG-CC-PVTZ
    Blend: AUG-CC-PVTZ
  Basis Set: (AUG-CC-PVTZ AUX)
    Blend: AUG-CC-PVTZ-JKFIT

    Orbital Energies [Eh]
    ---------------------

    Doubly Occupied:

       1A   -489.716909     2A    -64.857095     3A    -58.211592
       4A    -58.211575     5A    -58.211507     6A    -20.415069
       7A     -9.529553     8A     -7.137081     9A     -7.136970
      10A     -7.136679    11A     -2.878882    12A     -2.878872
      13A     -2.878471    14A     -2.878337    15A     -2.878237
      16A     -1.193787    17A     -0.684666    18A     -0.547661
      19A     -0.433332    20A     -0.355207    21A     -0.138684
      22A     -0.137386    23A     -0.134519

  @DF-RHF Final Energy: -2648.58472016963742

   => Energetics <=

    Nuclear Repulsion Energy =             66.2578830373864065
    One-Electron Energy =               -3832.5210638758635469
    Two-Electron Energy =                1117.6784606688397616
    Total Energy =                      -2648.5847201696374213
 Dipole X            :       -218.1709401          212.0708030           -6.1001371
 Dipole Y            :         -1.6258397            2.2730174            0.6471777
 Dipole Z            :         -0.2089664            0.3765733            0.1676069
 Magnitude           :                                                    6.1366606
  Basis Set: (AUG-CC-PVTZ AUX)
    Blend: AUG-CC-PVTZ-RI
	 Reference Energy          =   -2648.5847201696374213 [Eh]
	 Singles Energy            =      -0.0000000000000000 [Eh]
	 Same-Spin Energy          =      -0.1578019502264964 [Eh]
	 Opposite-Spin Energy      =      -0.4206778356060919 [Eh]
	 Correlation Energy        =      -0.5784797858325883 [Eh]
	 Total Energy              =   -2649.1631999554701906 [Eh]

	 ================> DF-SCS-MP2 Energies <==================
	-----------------------------------------------------------
	 SCS Same-Spin Scale       =       0.3333333333333333 [-]
	 SCS Opposite-Spin Scale   =       1.2000000000000000 [-]
	 SCS Same-Spin Energy      =      -0.0526006500754988 [Eh]
	 SCS Opposite-Spin Energy  =      -0.5048134027273102 [Eh]
	 SCS Correlation Energy    =      -0.5574140528028090 [Eh]
	 SCS Total Energy          =   -2649.1421342224402906 [Eh]
	-----------------------------------------------------------

*** Psi4 exiting successfully. Buy a developer a beer!
