                               Psi4 1.9 release

  ==> Input File <==

--------------------------------------------------------------------------
MEMORY 60 GB

molecule dimer {
0 1
O      0.000000     0.000000     0.000000
H     -0.385296     0.788345     0.385296
H      0.637984     0.394244    -0.637984
--
-1 1
Br     3.212066     0.000000     0.000000

units ang
no_reorient
no_com
symmetry c1
}

set {
basis        aug-cc-pVTZ
scf_type     df
}

energy("mp2", bsse_type="cp")
--------------------------------------------------------------------------

                               Psi4 1.9 release
    Molecular point group: c1
  Charge       = -1
  Multiplicity = 1
  Basis Set: AUG-CC-PVTZ
    Blend: AUG-CC-PVTZ
  Basis Set: (AUG-CC-PVTZ AUX)
    Blend: AUG-CC-PVTZ-JKFIT
  @DF-RHF Final Energy: -2572.53367718846857
    Total Energy =                      -2572.5336771884685731
 Dipole X            :       -218.5173294          212.4473763           -6.0699531
 Dipole Y            :          0.0000061            0.0000000            0.0000061
 Dipole Z            :         -0.0000783            0.0000000           -0.0000783
 Magnitude           :                                                    6.0699531
  Basis Set: (AUG-CC-PVTZ AUX)
    Blend: AUG-CC-PVTZ-RI
	 Reference Energy          =   -2572.5336771884685731 [Eh]
	 Singles Energy            =      -0.0000000000000000 [Eh]
	 Same-Spin Energy          =      -0.0873532217658414 [Eh]
	 Opposite-Spin Energy      =      -0.2026717196296779 [Eh]
	 Correlation Energy        =      -0.2900249413955193 [Eh]
	 Total Energy              =   -2572.8237021298641594 [Eh]
	 SCS Total Energy          =   -2572.8060009926130078 [Eh]
                               Psi4 1.9 release
    Molecular point group: c1
  Multiplicity = 1
  Basis Set: AUG-CC-PVTZ
    Blend: AUG-CC-PVTZ
  Basis Set: (AUG-CC-PVTZ AUX)
    Blend: AUG-CC-PVTZ-JKFIT
  @DF-RHF Final Energy:   -76.05854669510268
    Total Energy =                        -76.0585466951026774
  Basis Set: (AUG-CC-PVTZ AUX)
	 Singles Energy            =      -0.0000000000000000 [Eh]
	 Same-Spin Energy          =      -0.0686818164019010 [Eh]
	 Opposite-Spin Energy      =      -0.2163052760314388 [Eh]
	 Correlation Energy        =      -0.2849870924333399 [Eh]
	 Total Energy              =     -76.3435337875360176 [Eh]
	 SCS Total Energy          =     -76.3410069651410339 [Eh]
                               Psi4 1.9 release
    Molecular point group: c1

    Geometry (in Bohr), charge = -1, multiplicity = 1:

       Center              X                  Y                   Z               Mass
    ------------   -----------------  -----------------  -----------------  -----------------
         O            0.000000000000     0.000000000000     0.000000000000    15.994914619570
         H           -0.728103917234     1.489756142374     0.728103917234     1.007825032230
         H            1.205615032424     0.745013186605    -1.205615032424     1.007825032230
         BR           6.069925036895     0.000000000000     0.000000000000    78.918337600000

  Charge       = -1
  Multiplicity = 1
  Basis Set: AUG-CC-PVTZ
    Blend: AUG-CC-PVTZ
  Basis Set: (AUG-CC-PVTZ AUX)
    Blend: AUG-CC-PVTZ-JKFIT

    Orbital Energies [Eh]
    ---------------------

    Doubly Occupied:

       1A   -489.724342     2A    -64.864552     3A    -58.219053
       4A    -58.219031     5A    -58.218967     6A    -20.406297
       7A     -9.537014     8A     -7.144571     9A     -7.144419
      10A     -7.144159    11A     -2.886347    12A     -2.886329
      13A     -2.885967    14A     -2.885784    15A     -2.885706
      16A     -1.186354    17A     -0.692942    18A     -0.540798
      19A     -0.428352    20A     -0.348669    21A     -0.147010
      22A     -0.144961    23A     -0.142459

  @DF-RHF Final Energy: -2648.59171347233087

   => Energetics <=

    Nuclear Repulsion Energy =             67.1088802124407948
    One-Electron Energy =               -3834.0330305466109166
    Two-Electron Energy =                1118.3324368618391418
    Total Energy =                      -2648.5917134723308664
 Dipole X            :       -218.6263345          212.9248874           -5.7014471
 Dipole Y            :         -1.5843463            2.2347693            0.6504230
 Dipole Z            :          0.4101327           -0.4775111           -0.0673784
 Magnitude           :                                                    5.7388230
  Basis Set: (AUG-CC-PVTZ AUX)
    Blend: AUG-CC-PVTZ-RI
	 Reference Energy          =   -2648.5917134723308664 [Eh]
	 Singles Energy            =      -0.0000000000000000 [Eh]
	 Same-Spin Energy          =      -0.1581795133083620 [Eh]
	 Opposite-Spin Energy      =      -0.4210378775797270 [Eh]
	 Correlation Energy        =      -0.5792173908880891 [Eh]
	 Total Energy              =   -2649.1709308632189277 [Eh]

	 ================> DF-SCS-MP2 Energies <==================
	-----------------------------------------------------------
	 SCS Same-Spin Scale       =       0.3333333333333333 [-]
	 SCS Opposite-Spin Scale   =       1.2000000000000000 [-]
	 SCS Same-Spin Energy      =      -0.0527265044361207 [Eh]
	 SCS Opposite-Spin Energy  =      -0.5052454530956725 [Eh]
	 SCS Correlation Energy    =      -0.5579719575317932 [Eh]
	 SCS Total Energy          =   -2649.1496854298625294 [Eh]
	-----------------------------------------------------------

*** Psi4 exiting successfully. Buy a developer a beer!
