                               Psi4 1.9 release

  ==> Input File <==

--------------------------------------------------------------------------
MEMORY 60 GB

molecule dimer {
0 1
O      0.000000     0.000000     0.000000
H      0.290113     0.866062    -0.290113
H      0.560416    -0.584246    -0.560416
--
-1 1
Br     3.212066     0.000000     0.000000

units ang
no_reorient
no_com
symmetry c1
}

set {
basis        aug-cc-pVTZ
scf_type     df
}

energy("mp2", bsse_type="cp")
--------------------------------------------------------------------------

                               Psi4 1.9 release
    Molecular point group: c1
  Charge       = -1
  Multiplicity = 1
  Basis Set: AUG-CC-PVTZ
    Blend: AUG-CC-PVTZ
  Basis Set: (AUG-CC-PVTZ AUX)
    Blend: AUG-CC-PVTZ-JKFIT
  @DF-RHF Final Energy: -2572.53367733395044
    Total Energy =                      -2572.5336773339504362
 Dipole X            :       -218.5173295          212.4473763           -6.0699532
 Dipole Y            :         -0.0000513            0.0000000           -0.0000513
 Dipole Z            :          0.0000202            0.0000000            0.0000202
 Magnitude           :                                                    6.0699532
  Basis Set: (AUG-CC-PVTZ AUX)
    Blend: AUG-CC-PVTZ-RI
	 Reference Energy          =   -2572.5336773339504362 [Eh]
	 Singles Energy            =      -0.0000000000000000 [Eh]
	 Same-Spin Energy          =      -0.0873658371531743 [Eh]
	 Opposite-Spin Energy      =      -0.2026952286985015 [Eh]
	 Correlation Energy        =      -0.2900610658516758 [Eh]
	 Total Energy              =   -2572.8237383998020960 [Eh]
	 SCS Total Energy          =   -2572.8060335541063068 [Eh]
                               Psi4 1.9 release
    Molecular point group: c1
  Multiplicity = 1
  Basis Set: AUG-CC-PVTZ
    Blend: AUG-CC-PVTZ
  Basis Set: (AUG-CC-PVTZ AUX)
    Blend: AUG-CC-PVTZ-JKFIT
  @DF-RHF Final Energy:   -76.05854088283812
    Total Energy =                        -76.0585408828381162
  Basis Set: (AUG-CC-PVTZ AUX)
	 Singles Energy            =      -0.0000000000000000 [Eh]
	 Same-Spin Energy          =      -0.0686791894635397 [Eh]
	 Opposite-Spin Energy      =      -0.2162759794947602 [Eh]
	 Correlation Energy        =      -0.2849551689582999 [Eh]
	 Total Energy              =     -76.3434960517964214 [Eh]
	 SCS Total Energy          =     -76.3409651213863469 [Eh]
                               Psi4 1.9 release
    Molecular point group: c1

    Geometry (in Bohr), charge = -1, multiplicity = 1:

       Center              X                  Y                   Z               Mass
    ------------   -----------------  -----------------  -----------------  -----------------
         O            0.000000000000     0.000000000000     0.000000000000    15.994914619570
         H            0.548234115435     1.636619987666    -0.548234115435     1.007825032230
         H            1.059032756325    -1.104064929894    -1.059032756325     1.007825032230
         BR           6.069925036895     0.000000000000     0.000000000000    78.918337600000

  Charge       = -1
  Multiplicity = 1
  Basis Set: AUG-CC-PVTZ
    Blend: AUG-CC-PVTZ
  Basis Set: (AUG-CC-PVTZ AUX)
    Blend: AUG-CC-PVTZ-JKFIT

    Orbital Energies [Eh]
    ---------------------

    Doubly Occupied:

       1A   -489.729818     2A    -64.870053     3A    -58.224544
       4A    -58.224537     5A    -58.224470     6A    -20.400073
       7A     -9.542541     8A     -7.150044     9A     -7.149986
      10A     -7.149715    11A     -2.891831    12A     -2.891829
      13A     -2.891451    14A     -2.891386    15A     -2.891280
      16A     -1.180594    17A     -0.698505    18A     -0.536354
      19A     -0.425830    20A     -0.344302    21A     -0.152022
      22A     -0.151123    23A     -0.148367

  @DF-RHF Final Energy: -2648.59733970905017

   => Energetics <=

    Nuclear Repulsion Energy =             67.9292625706852959
    One-Electron Energy =               -3835.5318944555583585
    Two-Electron Energy =                1119.0052921758228877
    Total Energy =                      -2648.5973397090501749
 Dipole X            :       -219.3350519          214.0546432           -5.2804087
 Dipole Y            :         -0.3596592            0.5325551            0.1728959
 Dipole Z            :          1.1835364           -1.6072669           -0.4237305
 Magnitude           :                                                    5.3002035
  Basis Set: (AUG-CC-PVTZ AUX)
    Blend: AUG-CC-PVTZ-RI
	 Reference Energy          =   -2648.5973397090501749 [Eh]
	 Singles Energy            =      -0.0000000000000000 [Eh]
	 Same-Spin Energy          =      -0.1580315337425899 [Eh]
	 Opposite-Spin Energy      =      -0.4205802007019289 [Eh]
	 Correlation Energy        =      -0.5786117344445189 [Eh]
	 Total Energy              =   -2649.1759514434947960 [Eh]

	 ================> DF-SCS-MP2 Energies <==================
	-----------------------------------------------------------
	 SCS Same-Spin Scale       =       0.3333333333333333 [-]
	 SCS Opposite-Spin Scale   =       1.2000000000000000 [-]
	 SCS Same-Spin Energy      =      -0.0526771779141966 [Eh]
	 SCS Opposite-Spin Energy  =      -0.5046962408423147 [Eh]
	 SCS Correlation Energy    =      -0.5573734187565114 [Eh]
	 SCS Total Energy          =   -2649.1547131278066445 [Eh]
	-----------------------------------------------------------

*** Psi4 exiting successfully. Buy a developer a beer!
