                               Psi4 1.9 release

  ==> Input File <==

--------------------------------------------------------------------------
MEMORY 60 GB

molecule dimer {
0 1
O      0.000000     0.000000     0.000000
H      0.121727     0.942740    -0.121727
H      0.648245    -0.359212    -0.648245
--
-1 1
Br     3.212066     0.000000     0.000000

units ang
no_reorient
no_com
symmetry c1
}

set {
basis        aug-cc-pVTZ
scf_type     df
}

energy("mp2", bsse_type="cp")
--------------------------------------------------------------------------

                               Psi4 1.9 release
    Molecular point group: c1
  Charge       = -1
  Multiplicity = 1
  Basis Set: AUG-CC-PVTZ
    Blend: AUG-CC-PVTZ
  Basis Set: (AUG-CC-PVTZ AUX)
    Blend: AUG-CC-PVTZ-JKFIT
  @DF-RHF Final Energy: -2572.53367800059823
    Total Energy =                      -2572.5336780005982291
 Dipole X            :       -218.5173757          212.4473763           -6.0699994
 Dipole Y            :         -0.0000670            0.0000000           -0.0000670
 Dipole Z            :         -0.0000302            0.0000000           -0.0000302
 Magnitude           :                                                    6.0699994
  Basis Set: (AUG-CC-PVTZ AUX)
    Blend: AUG-CC-PVTZ-RI
	 Reference Energy          =   -2572.5336780005982291 [Eh]
	 Singles Energy            =      -0.0000000000000000 [Eh]
	 Same-Spin Energy          =      -0.0874024529087657 [Eh]
	 Opposite-Spin Energy      =      -0.2027956723640579 [Eh]
	 Correlation Energy        =      -0.2901981252728235 [Eh]
	 Total Energy              =   -2572.8238761258712657 [Eh]
	 SCS Total Energy          =   -2572.8061669584049014 [Eh]
                               Psi4 1.9 release
    Molecular point group: c1
  Multiplicity = 1
  Basis Set: AUG-CC-PVTZ
    Blend: AUG-CC-PVTZ
  Basis Set: (AUG-CC-PVTZ AUX)
    Blend: AUG-CC-PVTZ-JKFIT
  @DF-RHF Final Energy:   -76.05854521911155
    Total Energy =                        -76.0585452191115508
  Basis Set: (AUG-CC-PVTZ AUX)
	 Singles Energy            =      -0.0000000000000000 [Eh]
	 Same-Spin Energy          =      -0.0686807698244216 [Eh]
	 Opposite-Spin Energy      =      -0.2162966013989518 [Eh]
	 Correlation Energy        =      -0.2849773712233734 [Eh]
	 Total Energy              =     -76.3435225903349277 [Eh]
	 SCS Total Energy          =     -76.3409947307317651 [Eh]
                               Psi4 1.9 release
    Molecular point group: c1

    Geometry (in Bohr), charge = -1, multiplicity = 1:

       Center              X                  Y                   Z               Mass
    ------------   -----------------  -----------------  -----------------  -----------------
         O            0.000000000000     0.000000000000     0.000000000000    15.994914619570
         H            0.230030692074     1.781520407514    -0.230030692074     1.007825032230
         H            1.225005512197    -0.678812300978    -1.225005512197     1.007825032230
         BR           6.069925036895     0.000000000000     0.000000000000    78.918337600000

  Charge       = -1
  Multiplicity = 1
  Basis Set: AUG-CC-PVTZ
    Blend: AUG-CC-PVTZ
  Basis Set: (AUG-CC-PVTZ AUX)
    Blend: AUG-CC-PVTZ-JKFIT

    Orbital Energies [Eh]
    ---------------------

    Doubly Occupied:

       1A   -489.729754     2A    -64.869986     3A    -58.224481
       4A    -58.224468     5A    -58.224404     6A    -20.399840
       7A     -9.542467     8A     -7.149996     9A     -7.149893
      10A     -7.149637    11A     -2.891768    12A     -2.891760
      13A     -2.891403    14A     -2.891282    15A     -2.891196
      16A     -1.180605    17A     -0.698620    18A     -0.536185
      19A     -0.425434    20A     -0.344063    21A     -0.152337
      22A     -0.150827    23A     -0.148229

  @DF-RHF Final Energy: -2648.59705350957438

   => Energetics <=

    Nuclear Repulsion Energy =             67.8672588908167569
    One-Electron Energy =               -3835.4113555843259746
    Two-Electron Energy =                1118.9470431839347384
    Total Energy =                      -2648.5970535095748346
 Dipole X            :       -219.2214606          213.9024125           -5.3190481
 Dipole Y            :         -0.7557044            1.1027081            0.3470037
 Dipole Z            :          1.0863337           -1.4550362           -0.3687025
 Magnitude           :                                                    5.3430914
  Basis Set: (AUG-CC-PVTZ AUX)
    Blend: AUG-CC-PVTZ-RI
	 Reference Energy          =   -2648.5970535095743799 [Eh]
	 Singles Energy            =      -0.0000000000000000 [Eh]
	 Same-Spin Energy          =      -0.1581706607166291 [Eh]
	 Opposite-Spin Energy      =      -0.4208107970169888 [Eh]
	 Correlation Energy        =      -0.5789814577336179 [Eh]
	 Total Energy              =   -2649.1760349673081691 [Eh]

	 ================> DF-SCS-MP2 Energies <==================
	-----------------------------------------------------------
	 SCS Same-Spin Scale       =       0.3333333333333333 [-]
	 SCS Opposite-Spin Scale   =       1.2000000000000000 [-]
	 SCS Same-Spin Energy      =      -0.0527235535722097 [Eh]
	 SCS Opposite-Spin Energy  =      -0.5049729564203865 [Eh]
	 SCS Correlation Energy    =      -0.5576965099925962 [Eh]
	 SCS Total Energy          =   -2649.1547500195670182 [Eh]
	-----------------------------------------------------------

*** Psi4 exiting successfully. Buy a developer a beer!
