                               Psi4 1.9 release

  ==> Input File <==

--------------------------------------------------------------------------
MEMORY 60 GB

molecule dimer {
0 1
O      0.000000     0.000000     0.000000
H     -0.054954     0.955172     0.054954
H      0.691897    -0.109698    -0.691897
--
-1 1
Br     3.212066     0.000000     0.000000

units ang
no_reorient
no_com
symmetry c1
}

set {
basis        aug-cc-pVTZ
scf_type     df
}

energy("mp2", bsse_type="cp")
--------------------------------------------------------------------------

                               Psi4 1.9 release
    Molecular point group: c1
  Charge       = -1
  Multiplicity = 1
  Basis Set: AUG-CC-PVTZ
    Blend: AUG-CC-PVTZ
  Basis Set: (AUG-CC-PVTZ AUX)
    Blend: AUG-CC-PVTZ-JKFIT
  @DF-RHF Final Energy: -2572.53367823935741
    Total Energy =                      -2572.5336782393574140
 Dipole X            :       -218.5174031          212.4473763           -6.0700268
 Dipole Y            :         -0.0000462            0.0000000           -0.0000462
 Dipole Z            :         -0.0000709            0.0000000           -0.0000709
 Magnitude           :                                                    6.0700268
  Basis Set: (AUG-CC-PVTZ AUX)
    Blend: AUG-CC-PVTZ-RI
	 Reference Energy          =   -2572.5336782393574140 [Eh]
	 Singles Energy            =      -0.0000000000000000 [Eh]
	 Same-Spin Energy          =      -0.0874239195982797 [Eh]
	 Opposite-Spin Energy      =      -0.2028586571163715 [Eh]
	 Correlation Energy        =      -0.2902825767146511 [Eh]
	 Total Energy              =   -2572.8239608160720309 [Eh]
	 SCS Total Energy          =   -2572.8062499344296157 [Eh]
                               Psi4 1.9 release
    Molecular point group: c1
  Multiplicity = 1
  Basis Set: AUG-CC-PVTZ
    Blend: AUG-CC-PVTZ
  Basis Set: (AUG-CC-PVTZ AUX)
    Blend: AUG-CC-PVTZ-JKFIT
  @DF-RHF Final Energy:   -76.05854883092736
    Total Energy =                        -76.0585488309273643
  Basis Set: (AUG-CC-PVTZ AUX)
	 Singles Energy            =      -0.0000000000000000 [Eh]
	 Same-Spin Energy          =      -0.0686823836627967 [Eh]
	 Opposite-Spin Energy      =      -0.2163160045932713 [Eh]
	 Correlation Energy        =      -0.2849983882560680 [Eh]
	 Total Energy              =     -76.3435472191834350 [Eh]
	 SCS Total Energy          =     -76.3410221643268869 [Eh]
                               Psi4 1.9 release
    Molecular point group: c1

    Geometry (in Bohr), charge = -1, multiplicity = 1:

       Center              X                  Y                   Z               Mass
    ------------   -----------------  -----------------  -----------------  -----------------
         O            0.000000000000     0.000000000000     0.000000000000    15.994914619570
         H           -0.103848009498     1.805013482706     0.103848009498     1.007825032230
         H            1.307495837026    -0.207299176510    -1.307495837026     1.007825032230
         BR           6.069925036895     0.000000000000     0.000000000000    78.918337600000

  Charge       = -1
  Multiplicity = 1
  Basis Set: AUG-CC-PVTZ
    Blend: AUG-CC-PVTZ
  Basis Set: (AUG-CC-PVTZ AUX)
    Blend: AUG-CC-PVTZ-JKFIT

    Orbital Energies [Eh]
    ---------------------

    Doubly Occupied:

       1A   -489.729020     2A    -64.869249     3A    -58.223747
       4A    -58.223729     5A    -58.223666     6A    -20.400507
       7A     -9.541723     8A     -7.149272     9A     -7.149135
      10A     -7.148887    11A     -2.891038    12A     -2.891023
      13A     -2.890677    14A     -2.890514    15A     -2.890438
      16A     -1.181355    17A     -0.698012    18A     -0.536644
      19A     -0.425480    20A     -0.344476    21A     -0.151886
      22A     -0.149909    23A     -0.147411

  @DF-RHF Final Energy: -2648.59616753319142

   => Energetics <=

    Nuclear Repulsion Energy =             67.7203003529938883
    One-Electron Energy =               -3835.1373418219850464
    Two-Electron Energy =                1118.8208739357992272
    Total Energy =                      -2648.5961675331918741
 Dipole X            :       -219.0507878          213.6510241           -5.3997637
 Dipole Y            :         -1.1093508            1.5977143            0.4883635
 Dipole Z            :          0.9193634           -1.2036478           -0.2842844
 Magnitude           :                                                    5.4292508
  Basis Set: (AUG-CC-PVTZ AUX)
    Blend: AUG-CC-PVTZ-RI
	 Reference Energy          =   -2648.5961675331914194 [Eh]
	 Singles Energy            =      -0.0000000000000000 [Eh]
	 Same-Spin Energy          =      -0.1582830565144701 [Eh]
	 Opposite-Spin Energy      =      -0.4210284843690209 [Eh]
	 Correlation Energy        =      -0.5793115408834910 [Eh]
	 Total Energy              =   -2649.1754790740747012 [Eh]

	 ================> DF-SCS-MP2 Energies <==================
	-----------------------------------------------------------
	 SCS Same-Spin Scale       =       0.3333333333333333 [-]
	 SCS Opposite-Spin Scale   =       1.2000000000000000 [-]
	 SCS Same-Spin Energy      =      -0.0527610188381567 [Eh]
	 SCS Opposite-Spin Energy  =      -0.5052341812428250 [Eh]
	 SCS Correlation Energy    =      -0.5579952000809818 [Eh]
	 SCS Total Energy          =   -2649.1541627332721873 [Eh]
	-----------------------------------------------------------

*** Psi4 exiting successfully. Buy a developer a beer!
