                               Psi4 1.9 release

  ==> Input File <==

--------------------------------------------------------------------------
MEMORY 60 GB

molecule dimer {
0 1
O      0.000000     0.000000     0.000000
H     -0.227890     0.902511     0.227890
H      0.688397     0.147292    -0.688397
--
-1 1
Br     3.212066     0.000000     0.000000

units ang
no_reorient
no_com
symmetry c1
}

set {
basis        aug-cc-pVTZ
scf_type     df
}

energy("mp2", bsse_type="cp")
--------------------------------------------------------------------------

                               Psi4 1.9 release
    Molecular point group: c1
  Charge       = -1
  Multiplicity = 1
  Basis Set: AUG-CC-PVTZ
    Blend: AUG-CC-PVTZ
  Basis Set: (AUG-CC-PVTZ AUX)
    Blend: AUG-CC-PVTZ-JKFIT
  @DF-RHF Final Energy: -2572.53367791400069
    Total Energy =                      -2572.5336779140002363
 Dipole X            :       -218.5173837          212.4473763           -6.0700074
 Dipole Y            :         -0.0000172            0.0000000           -0.0000172
 Dipole Z            :         -0.0000861            0.0000000           -0.0000861
 Magnitude           :                                                    6.0700074
  Basis Set: (AUG-CC-PVTZ AUX)
    Blend: AUG-CC-PVTZ-RI
	 Reference Energy          =   -2572.5336779140006911 [Eh]
	 Singles Energy            =      -0.0000000000000000 [Eh]
	 Same-Spin Energy          =      -0.0874082966513494 [Eh]
	 Opposite-Spin Energy      =      -0.2028204092149380 [Eh]
	 Correlation Energy        =      -0.2902287058662874 [Eh]
	 Total Energy              =   -2572.8239066198671026 [Eh]
	 SCS Total Energy          =   -2572.8061985039425963 [Eh]
                               Psi4 1.9 release
    Molecular point group: c1
  Multiplicity = 1
  Basis Set: AUG-CC-PVTZ
    Blend: AUG-CC-PVTZ
  Basis Set: (AUG-CC-PVTZ AUX)
    Blend: AUG-CC-PVTZ-JKFIT
  @DF-RHF Final Energy:   -76.05854935737943
    Total Energy =                        -76.0585493573794338
  Basis Set: (AUG-CC-PVTZ AUX)
	 Singles Energy            =      -0.0000000000000000 [Eh]
	 Same-Spin Energy          =      -0.0686828419442432 [Eh]
	 Opposite-Spin Energy      =      -0.2163199816398227 [Eh]
	 Correlation Energy        =      -0.2850028235840659 [Eh]
	 Total Energy              =     -76.3435521809634992 [Eh]
	 SCS Total Energy          =     -76.3410276159953014 [Eh]
                               Psi4 1.9 release
    Molecular point group: c1

    Geometry (in Bohr), charge = -1, multiplicity = 1:

       Center              X                  Y                   Z               Mass
    ------------   -----------------  -----------------  -----------------  -----------------
         O            0.000000000000     0.000000000000     0.000000000000    15.994914619570
         H           -0.430649686731     1.705498615213     0.430649686731     1.007825032230
         H            1.300881795587     0.278341540471    -1.300881795587     1.007825032230
         BR           6.069925036895     0.000000000000     0.000000000000    78.918337600000

  Charge       = -1
  Multiplicity = 1
  Basis Set: AUG-CC-PVTZ
    Blend: AUG-CC-PVTZ
  Basis Set: (AUG-CC-PVTZ AUX)
    Blend: AUG-CC-PVTZ-JKFIT

    Orbital Energies [Eh]
    ---------------------

    Doubly Occupied:

       1A   -489.727225     2A    -64.867447     3A    -58.221947
       4A    -58.221926     5A    -58.221863     6A    -20.402674
       7A     -9.539915     8A     -7.147473     9A     -7.147319
      10A     -7.147070    11A     -2.889241    12A     -2.889223
      13A     -2.888875    14A     -2.888690    15A     -2.888616
      16A     -1.183283    17A     -0.696135    18A     -0.538171
      19A     -0.426436    20A     -0.346016    21A     -0.150132
      22A     -0.147966    23A     -0.145504

  @DF-RHF Final Energy: -2648.59440054270362

   => Energetics <=

    Nuclear Repulsion Energy =             67.4652791884521719
    One-Electron Energy =               -3834.6730670502270186
    Two-Electron Energy =                1118.6133873190706254
    Total Energy =                      -2648.5944005427040793
 Dipole X            :       -218.8467255          213.3176084           -5.5291171
 Dipole Y            :         -1.3938696            1.9838402            0.5899706
 Dipole Z            :          0.6892361           -0.8702321           -0.1809960
 Magnitude           :                                                    5.5634487
  Basis Set: (AUG-CC-PVTZ AUX)
    Blend: AUG-CC-PVTZ-RI
	 Reference Energy          =   -2648.5944005427036245 [Eh]
	 Singles Energy            =      -0.0000000000000000 [Eh]
	 Same-Spin Energy          =      -0.1582916543184694 [Eh]
	 Opposite-Spin Energy      =      -0.4211154274271994 [Eh]
	 Correlation Energy        =      -0.5794070817456688 [Eh]
	 Total Energy              =   -2649.1738076244491822 [Eh]

	 ================> DF-SCS-MP2 Energies <==================
	-----------------------------------------------------------
	 SCS Same-Spin Scale       =       0.3333333333333333 [-]
	 SCS Opposite-Spin Scale   =       1.2000000000000000 [-]
	 SCS Same-Spin Energy      =      -0.0527638847728231 [Eh]
	 SCS Opposite-Spin Energy  =      -0.5053385129126392 [Eh]
	 SCS Correlation Energy    =      -0.5581023976854623 [Eh]
	 SCS Total Energy          =   -2649.1525029403892404 [Eh]
	-----------------------------------------------------------

*** Psi4 exiting successfully. Buy a developer a beer!
