                               Psi4 1.9 release

  ==> Input File <==

--------------------------------------------------------------------------
MEMORY 60 GB

molecule dimer {
0 1
O      0.000000     0.000000     0.000000
H      0.184505     0.889406    -0.319573
H     -0.477377     0.125130     0.826841
--
1 1
Li     1.828878     0.000000     0.000000

units ang
no_reorient
no_com
symmetry c1
}

set {
basis        aug-cc-pVTZ
scf_type     df
}

energy("mp2", bsse_type="cp")
--------------------------------------------------------------------------

                               Psi4 1.9 release
    Molecular point group: c1
  Charge       = 1
  Multiplicity = 1
  Basis Set: AUG-CC-PVTZ
    Blend: AUG-CC-PVTZ
  Basis Set: (AUG-CC-PVTZ AUX)
    Blend: AUG-CC-PVTZ-JKFIT + DEF2-UNIVERSAL-JKFIT
  @DF-RHF Final Energy:    -7.23638356107478
    Total Energy =                         -7.2363835610747813
 Dipole X            :         -6.9121776           10.3682356            3.4560580
 Dipole Y            :          0.0000085            0.0000000            0.0000085
 Dipole Z            :          0.0000169            0.0000000            0.0000169
 Magnitude           :                                                    3.4560580
  Basis Set: (AUG-CC-PVTZ AUX)
    Blend: AUG-CC-PVTZ-RI + DEF2-QZVPP-RI
	 Reference Energy          =      -7.2363835610747813 [Eh]
	 Singles Energy            =      -0.0000000000000000 [Eh]
	 Same-Spin Energy          =       0.0000000000000000 [Eh]
	 Opposite-Spin Energy      =      -0.0134392680760162 [Eh]
	 Correlation Energy        =      -0.0134392680760162 [Eh]
	 Total Energy              =      -7.2498228291507978 [Eh]
	 SCS Total Energy          =      -7.2525106827660011 [Eh]
                               Psi4 1.9 release
    Molecular point group: c1
  Multiplicity = 1
  Basis Set: AUG-CC-PVTZ
    Blend: AUG-CC-PVTZ
  Basis Set: (AUG-CC-PVTZ AUX)
    Blend: AUG-CC-PVTZ-JKFIT + DEF2-UNIVERSAL-JKFIT
  @DF-RHF Final Energy:   -76.06026875762754
    Total Energy =                        -76.0602687576275400
  Basis Set: (AUG-CC-PVTZ AUX)
	 Singles Energy            =      -0.0000000000000000 [Eh]
	 Same-Spin Energy          =      -0.0684822206445589 [Eh]
	 Opposite-Spin Energy      =      -0.2159524378940695 [Eh]
	 Correlation Energy        =      -0.2844346585386284 [Eh]
	 Total Energy              =     -76.3447034161661691 [Eh]
	 SCS Total Energy          =     -76.3422390899819447 [Eh]
                               Psi4 1.9 release
    Molecular point group: c1

    Geometry (in Bohr), charge = 1, multiplicity = 1:

       Center              X                  Y                   Z               Mass
    ------------   -----------------  -----------------  -----------------  -----------------
         O            0.000000000000     0.000000000000     0.000000000000    15.994914619570
         H            0.348663918778     1.680733754339    -0.603905447091     1.007825032230
         H           -0.902111788593     0.236461430079     1.562503039300     1.007825032230
         LI           3.456078536875     0.000000000000     0.000000000000     7.016003436600

  Charge       = 1
  Multiplicity = 1
  Basis Set: AUG-CC-PVTZ
    Blend: AUG-CC-PVTZ
  Basis Set: (AUG-CC-PVTZ AUX)
    Blend: AUG-CC-PVTZ-JKFIT + DEF2-UNIVERSAL-JKFIT

    Orbital Energies [Eh]
    ---------------------

    Doubly Occupied:

       1A    -20.827785     2A     -2.722232     3A     -1.618715
       4A     -0.980479     5A     -0.853661     6A     -0.785727

  @DF-RHF Final Energy:   -83.33006435572239

   => Energetics <=

    Nuclear Repulsion Energy =             17.5675357847310991
    One-Electron Energy =                -146.2180014772323204
    Two-Electron Energy =                  45.3204013367788434
    Total Energy =                        -83.3300643557223850
 Dipole X            :         -6.9810273            9.8147877            2.8337605
 Dipole Y            :         -1.2092610            1.9171952            0.7079342
 Dipole Z            :         -0.5747526            0.9585976            0.3838450
 Magnitude           :                                                    2.9459644
  Basis Set: (AUG-CC-PVTZ AUX)
    Blend: AUG-CC-PVTZ-RI + DEF2-QZVPP-RI
	 Reference Energy          =     -83.3300643557223850 [Eh]
	 Singles Energy            =      -0.0000000000000000 [Eh]
	 Same-Spin Energy          =      -0.0681964882844986 [Eh]
	 Opposite-Spin Energy      =      -0.2277759544508950 [Eh]
	 Correlation Energy        =      -0.2959724427353936 [Eh]
	 Total Energy              =     -83.6260367984577755 [Eh]

	 ================> DF-SCS-MP2 Energies <==================
	-----------------------------------------------------------
	 SCS Same-Spin Scale       =       0.3333333333333333 [-]
	 SCS Opposite-Spin Scale   =       1.2000000000000000 [-]
	 SCS Same-Spin Energy      =      -0.0227321627614995 [Eh]
	 SCS Opposite-Spin Energy  =      -0.2733311453410740 [Eh]
	 SCS Correlation Energy    =      -0.2960633081025735 [Eh]
	 SCS Total Energy          =     -83.6261276638249598 [Eh]
	-----------------------------------------------------------

*** Psi4 exiting successfully. Buy a developer a beer!
