                               Psi4 1.9 release

  ==> Input File <==

--------------------------------------------------------------------------
MEMORY 60 GB

molecule dimer {
0 1
O      0.000000     0.000000     0.000000
H      0.063121     0.954608    -0.109329
H     -0.477304    -0.126242     0.826714
--
1 1
Li     1.828878     0.000000     0.000000

units ang
no_reorient
no_com
symmetry c1
}

set {
basis        aug-cc-pVTZ
scf_type     df
}

energy("mp2", bsse_type="cp")
--------------------------------------------------------------------------

                               Psi4 1.9 release
    Molecular point group: c1
  Charge       = 1
  Multiplicity = 1
  Basis Set: AUG-CC-PVTZ
    Blend: AUG-CC-PVTZ
  Basis Set: (AUG-CC-PVTZ AUX)
    Blend: AUG-CC-PVTZ-JKFIT + DEF2-UNIVERSAL-JKFIT
  @DF-RHF Final Energy:    -7.23638356136746
    Total Energy =                         -7.2363835613674619
 Dipole X            :         -6.9121772           10.3682356            3.4560584
 Dipole Y            :          0.0000096            0.0000000            0.0000096
 Dipole Z            :          0.0000191            0.0000000            0.0000191
 Magnitude           :                                                    3.4560584
  Basis Set: (AUG-CC-PVTZ AUX)
    Blend: AUG-CC-PVTZ-RI + DEF2-QZVPP-RI
	 Reference Energy          =      -7.2363835613674619 [Eh]
	 Singles Energy            =      -0.0000000000000000 [Eh]
	 Same-Spin Energy          =       0.0000000000000000 [Eh]
	 Opposite-Spin Energy      =      -0.0133754659655636 [Eh]
	 Correlation Energy        =      -0.0133754659655636 [Eh]
	 Total Energy              =      -7.2497590273330257 [Eh]
	 SCS Total Energy          =      -7.2524341205261385 [Eh]
                               Psi4 1.9 release
    Molecular point group: c1
  Multiplicity = 1
  Basis Set: AUG-CC-PVTZ
    Blend: AUG-CC-PVTZ
  Basis Set: (AUG-CC-PVTZ AUX)
    Blend: AUG-CC-PVTZ-JKFIT + DEF2-UNIVERSAL-JKFIT
  @DF-RHF Final Energy:   -76.06026860919195
    Total Energy =                        -76.0602686091919509
  Basis Set: (AUG-CC-PVTZ AUX)
	 Singles Energy            =      -0.0000000000000000 [Eh]
	 Same-Spin Energy          =      -0.0684825270926871 [Eh]
	 Opposite-Spin Energy      =      -0.2159365574438524 [Eh]
	 Correlation Energy        =      -0.2844190845365395 [Eh]
	 Total Energy              =     -76.3446876937284884 [Eh]
	 SCS Total Energy          =     -76.3422199871554739 [Eh]
                               Psi4 1.9 release
    Molecular point group: c1

    Geometry (in Bohr), charge = 1, multiplicity = 1:

       Center              X                  Y                   Z               Mass
    ------------   -----------------  -----------------  -----------------  -----------------
         O            0.000000000000     0.000000000000     0.000000000000    15.994914619570
         H            0.119281402765     1.803947677171    -0.206601867570     1.007825032230
         H           -0.901973838586    -0.238562805530     1.562263044082     1.007825032230
         LI           3.456078536875     0.000000000000     0.000000000000     7.016003436600

  Charge       = 1
  Multiplicity = 1
  Basis Set: AUG-CC-PVTZ
    Blend: AUG-CC-PVTZ
  Basis Set: (AUG-CC-PVTZ AUX)
    Blend: AUG-CC-PVTZ-JKFIT + DEF2-UNIVERSAL-JKFIT

    Orbital Energies [Eh]
    ---------------------

    Doubly Occupied:

       1A    -20.825037     2A     -2.716570     3A     -1.615748
       4A     -0.976710     5A     -0.854765     6A     -0.783307

  @DF-RHF Final Energy:   -83.33593051807699

   => Energetics <=

    Nuclear Repulsion Energy =             17.5202271715808351
    One-Electron Energy =                -146.1680413337864763
    Two-Electron Energy =                  45.3118836441286419
    Total Energy =                        -83.3359305180769923
 Dipole X            :         -6.8301953            9.5855432            2.7553478
 Dipole Y            :         -0.9869297            1.5653849            0.5784551
 Dipole Z            :         -0.8283655            1.3556612            0.5272957
 Magnitude           :                                                    2.8643660
  Basis Set: (AUG-CC-PVTZ AUX)
    Blend: AUG-CC-PVTZ-RI + DEF2-QZVPP-RI
	 Reference Energy          =     -83.3359305180769923 [Eh]
	 Singles Energy            =      -0.0000000000000000 [Eh]
	 Same-Spin Energy          =      -0.0681402115426938 [Eh]
	 Opposite-Spin Energy      =      -0.2274988243692172 [Eh]
	 Correlation Energy        =      -0.2956390359119110 [Eh]
	 Total Energy              =     -83.6315695539888964 [Eh]

	 ================> DF-SCS-MP2 Energies <==================
	-----------------------------------------------------------
	 SCS Same-Spin Scale       =       0.3333333333333333 [-]
	 SCS Opposite-Spin Scale   =       1.2000000000000000 [-]
	 SCS Same-Spin Energy      =      -0.0227134038475646 [Eh]
	 SCS Opposite-Spin Energy  =      -0.2729985892430606 [Eh]
	 SCS Correlation Energy    =      -0.2957119930906252 [Eh]
	 SCS Total Energy          =     -83.6316425111676125 [Eh]
	-----------------------------------------------------------

*** Psi4 exiting successfully. Buy a developer a beer!
