                               Psi4 1.9 release

  ==> Input File <==

--------------------------------------------------------------------------
MEMORY 60 GB

molecule dimer {
0 1
O      0.000000     0.000000     0.000000
H     -0.381797     0.586632     0.661291
H     -0.183988    -0.889835     0.318676
--
1 1
Li     1.828878     0.000000     0.000000

units ang
no_reorient
no_com
symmetry c1
}

set {
basis        aug-cc-pVTZ
scf_type     df
}

energy("mp2", bsse_type="cp")
--------------------------------------------------------------------------

                               Psi4 1.9 release
    Molecular point group: c1
  Charge       = 1
  Multiplicity = 1
  Basis Set: AUG-CC-PVTZ
    Blend: AUG-CC-PVTZ
  Basis Set: (AUG-CC-PVTZ AUX)
    Blend: AUG-CC-PVTZ-JKFIT + DEF2-UNIVERSAL-JKFIT
  @DF-RHF Final Energy:    -7.23638355603296
    Total Energy =                         -7.2363835560329566
 Dipole X            :         -6.9121735           10.3682356            3.4560621
 Dipole Y            :         -0.0000047            0.0000000           -0.0000047
 Dipole Z            :          0.0000267            0.0000000            0.0000267
 Magnitude           :                                                    3.4560621
  Basis Set: (AUG-CC-PVTZ AUX)
    Blend: AUG-CC-PVTZ-RI + DEF2-QZVPP-RI
	 Reference Energy          =      -7.2363835560329566 [Eh]
	 Singles Energy            =      -0.0000000000000000 [Eh]
	 Same-Spin Energy          =       0.0000000000000000 [Eh]
	 Opposite-Spin Energy      =      -0.0132777865142197 [Eh]
	 Correlation Energy        =      -0.0132777865142197 [Eh]
	 Total Energy              =      -7.2496613425471761 [Eh]
	 SCS Total Energy          =      -7.2523168998500198 [Eh]
                               Psi4 1.9 release
    Molecular point group: c1
  Multiplicity = 1
  Basis Set: AUG-CC-PVTZ
    Blend: AUG-CC-PVTZ
  Basis Set: (AUG-CC-PVTZ AUX)
    Blend: AUG-CC-PVTZ-JKFIT + DEF2-UNIVERSAL-JKFIT
  @DF-RHF Final Energy:   -76.06026828748645
    Total Energy =                        -76.0602682874864513
  Basis Set: (AUG-CC-PVTZ AUX)
	 Singles Energy            =      -0.0000000000000000 [Eh]
	 Same-Spin Energy          =      -0.0684831755677682 [Eh]
	 Opposite-Spin Energy      =      -0.2159100849023976 [Eh]
	 Correlation Energy        =      -0.2843932604701658 [Eh]
	 Total Energy              =     -76.3446615479566191 [Eh]
	 SCS Total Energy          =     -76.3421881145585814 [Eh]
                               Psi4 1.9 release
    Molecular point group: c1

    Geometry (in Bohr), charge = 1, multiplicity = 1:

       Center              X                  Y                   Z               Mass
    ------------   -----------------  -----------------  -----------------  -----------------
         O            0.000000000000     0.000000000000     0.000000000000    15.994914619570
         H           -0.721491765521     1.108573816430     1.249658879230     1.007825032230
         H           -0.347686930371    -1.681544446847     0.602210362756     1.007825032230
         LI           3.456078536875     0.000000000000     0.000000000000     7.016003436600

  Charge       = 1
  Multiplicity = 1
  Basis Set: AUG-CC-PVTZ
    Blend: AUG-CC-PVTZ
  Basis Set: (AUG-CC-PVTZ AUX)
    Blend: AUG-CC-PVTZ-JKFIT + DEF2-UNIVERSAL-JKFIT

    Orbital Energies [Eh]
    ---------------------

    Doubly Occupied:

       1A    -20.821863     2A     -2.709329     3A     -1.612162
       4A     -0.971645     5A     -0.856903     6A     -0.780443

  @DF-RHF Final Energy:   -83.34301010661541

   => Energetics <=

    Nuclear Repulsion Energy =             17.4640616758838902
    One-Electron Energy =                -146.1094563300515006
    Two-Electron Energy =                  45.3023845475521867
    Total Energy =                        -83.3430101066154236
 Dipole X            :         -6.6423183            9.2990569            2.6567387
 Dipole Y            :          0.3608054           -0.5729706           -0.2121652
 Dipole Z            :         -1.1435332            1.8518692            0.7083360
 Magnitude           :                                                    2.7577190
  Basis Set: (AUG-CC-PVTZ AUX)
    Blend: AUG-CC-PVTZ-RI + DEF2-QZVPP-RI
	 Reference Energy          =     -83.3430101066154094 [Eh]
	 Singles Energy            =      -0.0000000000000000 [Eh]
	 Same-Spin Energy          =      -0.0680550764327687 [Eh]
	 Opposite-Spin Energy      =      -0.2271292811562169 [Eh]
	 Correlation Energy        =      -0.2951843575889856 [Eh]
	 Total Energy              =     -83.6381944642043891 [Eh]

	 ================> DF-SCS-MP2 Energies <==================
	-----------------------------------------------------------
	 SCS Same-Spin Scale       =       0.3333333333333333 [-]
	 SCS Opposite-Spin Scale   =       1.2000000000000000 [-]
	 SCS Same-Spin Energy      =      -0.0226850254775896 [Eh]
	 SCS Opposite-Spin Energy  =      -0.2725551373874603 [Eh]
	 SCS Correlation Energy    =      -0.2952401628650498 [Eh]
	 SCS Total Energy          =     -83.6382502694804657 [Eh]
	-----------------------------------------------------------

*** Psi4 exiting successfully. Buy a developer a beer!
