                               Psi4 1.9 release

  ==> Input File <==

--------------------------------------------------------------------------
MEMORY 60 GB

molecule dimer {
0 1
O      0.000000     0.000000     0.000000
H     -0.292872     0.764276     0.507268
H     -0.292872    -0.764276     0.507268
--
1 1
Li     1.828878     0.000000     0.000000

units ang
no_reorient
no_com
symmetry c1
}

set {
basis        aug-cc-pVTZ
scf_type     df
}

energy("mp2", bsse_type="cp")
--------------------------------------------------------------------------

                               Psi4 1.9 release
    Molecular point group: c1
  Charge       = 1
  Multiplicity = 1
  Basis Set: AUG-CC-PVTZ
    Blend: AUG-CC-PVTZ
  Basis Set: (AUG-CC-PVTZ AUX)
    Blend: AUG-CC-PVTZ-JKFIT + DEF2-UNIVERSAL-JKFIT
  @DF-RHF Final Energy:    -7.23638354964548
    Total Energy =                         -7.2363835496454820
 Dipole X            :         -6.9121728           10.3682356            3.4560628
 Dipole Y            :         -0.0000000            0.0000000           -0.0000000
 Dipole Z            :          0.0000283            0.0000000            0.0000283
 Magnitude           :                                                    3.4560628
  Basis Set: (AUG-CC-PVTZ AUX)
    Blend: AUG-CC-PVTZ-RI + DEF2-QZVPP-RI
	 Reference Energy          =      -7.2363835496454820 [Eh]
	 Singles Energy            =      -0.0000000000000000 [Eh]
	 Same-Spin Energy          =       0.0000000000000000 [Eh]
	 Opposite-Spin Energy      =      -0.0132626081209550 [Eh]
	 Correlation Energy        =      -0.0132626081209550 [Eh]
	 Total Energy              =      -7.2496461577664375 [Eh]
	 SCS Total Energy          =      -7.2522986793906279 [Eh]
                               Psi4 1.9 release
    Molecular point group: c1
  Multiplicity = 1
  Basis Set: AUG-CC-PVTZ
    Blend: AUG-CC-PVTZ
  Basis Set: (AUG-CC-PVTZ AUX)
    Blend: AUG-CC-PVTZ-JKFIT + DEF2-UNIVERSAL-JKFIT
  @DF-RHF Final Energy:   -76.06026815570910
    Total Energy =                        -76.0602681557090960
  Basis Set: (AUG-CC-PVTZ AUX)
	 Singles Energy            =      -0.0000000000000000 [Eh]
	 Same-Spin Energy          =      -0.0684832507351597 [Eh]
	 Opposite-Spin Energy      =      -0.2159054239590352 [Eh]
	 Correlation Energy        =      -0.2843886746941949 [Eh]
	 Total Energy              =     -76.3446568304032951 [Eh]
	 SCS Total Energy          =     -76.3421824147049932 [Eh]
                               Psi4 1.9 release
    Molecular point group: c1

    Geometry (in Bohr), charge = 1, multiplicity = 1:

       Center              X                  Y                   Z               Mass
    ------------   -----------------  -----------------  -----------------  -----------------
         O            0.000000000000     0.000000000000     0.000000000000    15.994914619570
         H           -0.553447869815     1.444272324260     0.958597592209     1.007825032230
         H           -0.553447869815    -1.444272324260     0.958597592209     1.007825032230
         LI           3.456078536875     0.000000000000     0.000000000000     7.016003436600

  Charge       = 1
  Multiplicity = 1
  Basis Set: AUG-CC-PVTZ
    Blend: AUG-CC-PVTZ
  Basis Set: (AUG-CC-PVTZ AUX)
    Blend: AUG-CC-PVTZ-JKFIT + DEF2-UNIVERSAL-JKFIT

    Orbital Energies [Eh]
    ---------------------

    Doubly Occupied:

       1A    -20.821471     2A     -2.708363     3A     -1.611704
       4A     -0.970950     5A     -0.857252     6A     -0.780082

  @DF-RHF Final Energy:   -83.34392303633642

   => Energetics <=

    Nuclear Repulsion Energy =             17.4569326021531879
    One-Electron Energy =                -146.1020675584638013
    Two-Electron Energy =                  45.3012119199741932
    Total Energy =                        -83.3439230363364203
 Dipole X            :         -6.6176528            9.2613399            2.6436871
 Dipole Y            :         -0.0000000            0.0000000           -0.0000000
 Dipole Z            :         -1.1848811            1.9171952            0.7323141
 Magnitude           :                                                    2.7432399
  Basis Set: (AUG-CC-PVTZ AUX)
    Blend: AUG-CC-PVTZ-RI + DEF2-QZVPP-RI
	 Reference Energy          =     -83.3439230363364203 [Eh]
	 Singles Energy            =      -0.0000000000000000 [Eh]
	 Same-Spin Energy          =      -0.0680423235282305 [Eh]
	 Opposite-Spin Energy      =      -0.2270770175512394 [Eh]
	 Correlation Energy        =      -0.2951193410794699 [Eh]
	 Total Energy              =     -83.6390423774158904 [Eh]

	 ================> DF-SCS-MP2 Energies <==================
	-----------------------------------------------------------
	 SCS Same-Spin Scale       =       0.3333333333333333 [-]
	 SCS Opposite-Spin Scale   =       1.2000000000000000 [-]
	 SCS Same-Spin Energy      =      -0.0226807745094102 [Eh]
	 SCS Opposite-Spin Energy  =      -0.2724924210614872 [Eh]
	 SCS Correlation Energy    =      -0.2951731955708974 [Eh]
	 SCS Total Energy          =     -83.6390962319073168 [Eh]
	-----------------------------------------------------------

*** Psi4 exiting successfully. Buy a developer a beer!
