                               Psi4 1.9 release

  ==> Input File <==

--------------------------------------------------------------------------
MEMORY 60 GB

molecule dimer {
0 1
O      0.000000     0.000000     0.000000
H     -0.444783     0.364626     0.770386
H     -0.064504    -0.952699     0.111723
--
1 1
Na     2.158940     0.000000     0.000000

units ang
no_reorient
no_com
symmetry c1
}

set {
basis        aug-cc-pVTZ
scf_type     df
}

energy("mp2", bsse_type="cp")
--------------------------------------------------------------------------

                               Psi4 1.9 release
    Molecular point group: c1
  Charge       = 1
  Multiplicity = 1
  Basis Set: AUG-CC-PVTZ
    Blend: AUG-CC-PVTZ
  Basis Set: (AUG-CC-PVTZ AUX)
    Blend: AUG-CC-PVTZ-JKFIT + DEF2-UNIVERSAL-JKFIT
  @DF-RHF Final Energy:  -161.67604455991255
    Total Energy =                       -161.6760445599125546
 Dipole X            :        -40.7986978           44.8778585            4.0791607
 Dipole Y            :         -0.0000640            0.0000000           -0.0000640
 Dipole Z            :          0.0000683            0.0000000            0.0000683
 Magnitude           :                                                    4.0791607
  Basis Set: (AUG-CC-PVTZ AUX)
    Blend: AUG-CC-PVTZ-RI + DEF2-QZVPP-RI
	 Reference Energy          =    -161.6760445599125546 [Eh]
	 Singles Energy            =      -0.0000000000000000 [Eh]
	 Same-Spin Energy          =      -0.0029843189803321 [Eh]
	 Opposite-Spin Energy      =      -0.0107641081266868 [Eh]
	 Correlation Energy        =      -0.0137484271070189 [Eh]
	 Total Energy              =    -161.6897929870195867 [Eh]
	 SCS Total Energy          =    -161.6899562626580291 [Eh]
                               Psi4 1.9 release
    Molecular point group: c1
  Multiplicity = 1
  Basis Set: AUG-CC-PVTZ
    Blend: AUG-CC-PVTZ
  Basis Set: (AUG-CC-PVTZ AUX)
    Blend: AUG-CC-PVTZ-JKFIT + DEF2-UNIVERSAL-JKFIT
  @DF-RHF Final Energy:   -76.06037854216083
    Total Energy =                        -76.0603785421608336
  Basis Set: (AUG-CC-PVTZ AUX)
	 Singles Energy            =      -0.0000000000000000 [Eh]
	 Same-Spin Energy          =      -0.0684586348763289 [Eh]
	 Opposite-Spin Energy      =      -0.2158049107309388 [Eh]
	 Correlation Energy        =      -0.2842635456072677 [Eh]
	 Total Energy              =     -76.3446420877681078 [Eh]
	 SCS Total Energy          =     -76.3421639799967409 [Eh]
                               Psi4 1.9 release
    Molecular point group: c1

    Geometry (in Bohr), charge = 1, multiplicity = 1:

       Center              X                  Y                   Z               Mass
    ------------   -----------------  -----------------  -----------------  -----------------
         O            0.000000000000     0.000000000000     0.000000000000    15.994914619570
         H           -0.840518055260     0.689043278221     1.455818550887     1.007825032230
         H           -0.121894893997    -1.800340189998     0.211125871915     1.007825032230
         NA           4.079805321296     0.000000000000     0.000000000000    22.989769282000

  Charge       = 1
  Multiplicity = 1
  Basis Set: AUG-CC-PVTZ
    Blend: AUG-CC-PVTZ
  Basis Set: (AUG-CC-PVTZ AUX)
    Blend: AUG-CC-PVTZ-JKFIT + DEF2-UNIVERSAL-JKFIT

    Orbital Energies [Eh]
    ---------------------

    Doubly Occupied:

       1A    -40.703789     2A    -20.787084     3A     -3.022434
       4A     -1.747222     5A     -1.745909     6A     -1.745618
       7A     -1.575948     8A     -0.938229     9A     -0.816423
      10A     -0.741638

  @DF-RHF Final Energy:  -237.76276161086753

   => Energetics <=

    Nuclear Repulsion Energy =             35.2528905497604725
    One-Electron Energy =                -398.3827195515739845
    Two-Electron Energy =                 125.3670673909459765
    Total Energy =                       -237.7627616108675284
 Dipole X            :        -40.4955004           43.9154456            3.4199451
 Dipole Y            :          0.7098836           -1.1112969           -0.4014133
 Dipole Z            :         -1.0438153            1.6669444            0.6231292
 Magnitude           :                                                    3.4993496
  Basis Set: (AUG-CC-PVTZ AUX)
    Blend: AUG-CC-PVTZ-RI + DEF2-QZVPP-RI
	 Reference Energy          =    -237.7627616108675284 [Eh]
	 Singles Energy            =      -0.0000000000000000 [Eh]
	 Same-Spin Energy          =      -0.0711686072712747 [Eh]
	 Opposite-Spin Energy      =      -0.2250371444553898 [Eh]
	 Correlation Energy        =      -0.2962057517266645 [Eh]
	 Total Energy              =    -238.0589673625941884 [Eh]

	 ================> DF-SCS-MP2 Energies <==================
	-----------------------------------------------------------
	 SCS Same-Spin Scale       =       0.3333333333333333 [-]
	 SCS Opposite-Spin Scale   =       1.2000000000000000 [-]
	 SCS Same-Spin Energy      =      -0.0237228690904249 [Eh]
	 SCS Opposite-Spin Energy  =      -0.2700445733464677 [Eh]
	 SCS Correlation Energy    =      -0.2937674424368926 [Eh]
	 SCS Total Energy          =    -238.0565290533044163 [Eh]
	-----------------------------------------------------------

*** Psi4 exiting successfully. Buy a developer a beer!
