                               Psi4 1.9 release

  ==> Input File <==

--------------------------------------------------------------------------
MEMORY 60 GB

molecule dimer {
0 1
O      0.000000     0.000000     0.000000
H     -0.185594     0.886847     0.321458
H     -0.382441    -0.582438     0.662407
--
1 1
Na     2.158940     0.000000     0.000000

units ang
no_reorient
no_com
symmetry c1
}

set {
basis        aug-cc-pVTZ
scf_type     df
}

energy("mp2", bsse_type="cp")
--------------------------------------------------------------------------

                               Psi4 1.9 release
    Molecular point group: c1
  Charge       = 1
  Multiplicity = 1
  Basis Set: AUG-CC-PVTZ
    Blend: AUG-CC-PVTZ
  Basis Set: (AUG-CC-PVTZ AUX)
    Blend: AUG-CC-PVTZ-JKFIT + DEF2-UNIVERSAL-JKFIT
  @DF-RHF Final Energy:  -161.67604485347510
    Total Energy =                       -161.6760448534751049
 Dipole X            :        -40.7986857           44.8778585            4.0791728
 Dipole Y            :          0.0000346            0.0000000            0.0000346
 Dipole Z            :          0.0000811            0.0000000            0.0000811
 Magnitude           :                                                    4.0791728
  Basis Set: (AUG-CC-PVTZ AUX)
    Blend: AUG-CC-PVTZ-RI + DEF2-QZVPP-RI
	 Reference Energy          =    -161.6760448534751049 [Eh]
	 Singles Energy            =      -0.0000000000000000 [Eh]
	 Same-Spin Energy          =      -0.0029921862522568 [Eh]
	 Opposite-Spin Energy      =      -0.0107917769867308 [Eh]
	 Correlation Energy        =      -0.0137839632389876 [Eh]
	 Total Energy              =    -161.6898288167140834 [Eh]
	 SCS Total Energy          =    -161.6899923812765962 [Eh]
                               Psi4 1.9 release
    Molecular point group: c1
  Multiplicity = 1
  Basis Set: AUG-CC-PVTZ
    Blend: AUG-CC-PVTZ
  Basis Set: (AUG-CC-PVTZ AUX)
    Blend: AUG-CC-PVTZ-JKFIT + DEF2-UNIVERSAL-JKFIT
  @DF-RHF Final Energy:   -76.06037887898520
    Total Energy =                        -76.0603788789852047
  Basis Set: (AUG-CC-PVTZ AUX)
	 Singles Energy            =      -0.0000000000000000 [Eh]
	 Same-Spin Energy          =      -0.0684581050884207 [Eh]
	 Opposite-Spin Energy      =      -0.2158027925786019 [Eh]
	 Correlation Energy        =      -0.2842608976670226 [Eh]
	 Total Energy              =     -76.3446397766522296 [Eh]
	 SCS Total Energy          =     -76.3421615984423312 [Eh]
                               Psi4 1.9 release
    Molecular point group: c1

    Geometry (in Bohr), charge = 1, multiplicity = 1:

       Center              X                  Y                   Z               Mass
    ------------   -----------------  -----------------  -----------------  -----------------
         O            0.000000000000     0.000000000000     0.000000000000    15.994914619570
         H           -0.350721830528     1.675897945184     0.607467580837     1.007825032230
         H           -0.722708749146    -1.100648305059     1.251767813586     1.007825032230
         NA           4.079805321296     0.000000000000     0.000000000000    22.989769282000

  Charge       = 1
  Multiplicity = 1
  Basis Set: AUG-CC-PVTZ
    Blend: AUG-CC-PVTZ
  Basis Set: (AUG-CC-PVTZ AUX)
    Blend: AUG-CC-PVTZ-JKFIT + DEF2-UNIVERSAL-JKFIT

    Orbital Energies [Eh]
    ---------------------

    Doubly Occupied:

       1A    -40.701522     2A    -20.786114     3A     -3.020225
       4A     -1.744799     5A     -1.743815     6A     -1.743455
       7A     -1.574943     8A     -0.936832     9A     -0.816808
      10A     -0.740860

  @DF-RHF Final Energy:  -237.76489488687531

   => Energetics <=

    Nuclear Repulsion Energy =             35.1915512617429229
    One-Electron Energy =                -398.2941476961190119
    Two-Electron Energy =                 125.3377015475007994
    Total Energy =                       -237.7648948868753109
 Dipole X            :        -40.4232568           43.8044280            3.3811712
 Dipole Y            :         -0.3672769            0.5752496            0.2079728
 Dipole Z            :         -1.1672235            1.8592354            0.6920118
 Magnitude           :                                                    3.4575210
  Basis Set: (AUG-CC-PVTZ AUX)
    Blend: AUG-CC-PVTZ-RI + DEF2-QZVPP-RI
	 Reference Energy          =    -237.7648948868753109 [Eh]
	 Singles Energy            =      -0.0000000000000000 [Eh]
	 Same-Spin Energy          =      -0.0711585114398268 [Eh]
	 Opposite-Spin Energy      =      -0.2249928616580225 [Eh]
	 Correlation Energy        =      -0.2961513730978493 [Eh]
	 Total Energy              =    -238.0610462599731534 [Eh]

	 ================> DF-SCS-MP2 Energies <==================
	-----------------------------------------------------------
	 SCS Same-Spin Scale       =       0.3333333333333333 [-]
	 SCS Opposite-Spin Scale   =       1.2000000000000000 [-]
	 SCS Same-Spin Energy      =      -0.0237195038132756 [Eh]
	 SCS Opposite-Spin Energy  =      -0.2699914339896270 [Eh]
	 SCS Correlation Energy    =      -0.2937109378029026 [Eh]
	 SCS Total Energy          =    -238.0586058246782102 [Eh]
	-----------------------------------------------------------

*** Psi4 exiting successfully. Buy a developer a beer!
