                               Psi4 1.9 release

  ==> Input File <==

--------------------------------------------------------------------------
MEMORY 60 GB

molecule dimer {
0 1
O      0.000000     0.000000     0.000000
H      0.060983     0.953626    -0.105625
H     -0.476813    -0.121965     0.825864
--
1 1
Na     2.158940     0.000000     0.000000

units ang
no_reorient
no_com
symmetry c1
}

set {
basis        aug-cc-pVTZ
scf_type     df
}

energy("mp2", bsse_type="cp")
--------------------------------------------------------------------------

                               Psi4 1.9 release
    Molecular point group: c1
  Charge       = 1
  Multiplicity = 1
  Basis Set: AUG-CC-PVTZ
    Blend: AUG-CC-PVTZ
  Basis Set: (AUG-CC-PVTZ AUX)
    Blend: AUG-CC-PVTZ-JKFIT + DEF2-UNIVERSAL-JKFIT
  @DF-RHF Final Energy:  -161.67604455080760
    Total Energy =                       -161.6760445508076032
 Dipole X            :        -40.7987032           44.8778585            4.0791553
 Dipole Y            :          0.0000909            0.0000000            0.0000909
 Dipole Z            :          0.0000465            0.0000000            0.0000465
 Magnitude           :                                                    4.0791553
  Basis Set: (AUG-CC-PVTZ AUX)
    Blend: AUG-CC-PVTZ-RI + DEF2-QZVPP-RI
	 Reference Energy          =    -161.6760445508076032 [Eh]
	 Singles Energy            =      -0.0000000000000000 [Eh]
	 Same-Spin Energy          =      -0.0030059413530992 [Eh]
	 Opposite-Spin Energy      =      -0.0108243114793214 [Eh]
	 Correlation Energy        =      -0.0138302528324206 [Eh]
	 Total Energy              =    -161.6898748036400377 [Eh]
	 SCS Total Energy          =    -161.6900357050338357 [Eh]
                               Psi4 1.9 release
    Molecular point group: c1
  Multiplicity = 1
  Basis Set: AUG-CC-PVTZ
    Blend: AUG-CC-PVTZ
  Basis Set: (AUG-CC-PVTZ AUX)
    Blend: AUG-CC-PVTZ-JKFIT + DEF2-UNIVERSAL-JKFIT
  @DF-RHF Final Energy:   -76.06037831315811
    Total Energy =                        -76.0603783131581110
  Basis Set: (AUG-CC-PVTZ AUX)
	 Singles Energy            =      -0.0000000000000000 [Eh]
	 Same-Spin Energy          =      -0.0684588827877657 [Eh]
	 Opposite-Spin Energy      =      -0.2158056280656265 [Eh]
	 Correlation Energy        =      -0.2842645108533922 [Eh]
	 Total Energy              =     -76.3446428240115011 [Eh]
	 SCS Total Energy          =     -76.3421646944327819 [Eh]
                               Psi4 1.9 release
    Molecular point group: c1

    Geometry (in Bohr), charge = 1, multiplicity = 1:

       Center              X                  Y                   Z               Mass
    ------------   -----------------  -----------------  -----------------  -----------------
         O            0.000000000000     0.000000000000     0.000000000000    15.994914619570
         H            0.115241168309     1.802091966116    -0.199602322001     1.007825032230
         H           -0.901045983058    -0.230480446891     1.560656776875     1.007825032230
         NA           4.079805321296     0.000000000000     0.000000000000    22.989769282000

  Charge       = 1
  Multiplicity = 1
  Basis Set: AUG-CC-PVTZ
    Blend: AUG-CC-PVTZ
  Basis Set: (AUG-CC-PVTZ AUX)
    Blend: AUG-CC-PVTZ-JKFIT + DEF2-UNIVERSAL-JKFIT

    Orbital Energies [Eh]
    ---------------------

    Doubly Occupied:

       1A    -40.707308     2A    -20.788678     3A     -3.025907
       4A     -1.751006     5A     -1.749251     6A     -1.749004
       7A     -1.577564     8A     -0.940383     9A     -0.815958
      10A     -0.742907

  @DF-RHF Final Energy:  -237.75928511388520

   => Energetics <=

    Nuclear Repulsion Energy =             35.3529885303034561
    One-Electron Energy =                -398.5286165257037965
    Two-Electron Energy =                 125.4163428815151633
    Total Energy =                       -237.7592851138851984
 Dipole X            :        -40.6106231           44.0920537            3.4814306
 Dipole Y            :         -1.0045367            1.5716115            0.5670749
 Dipole Z            :         -0.8469388            1.3610545            0.5141156
 Magnitude           :                                                    3.5645825
  Basis Set: (AUG-CC-PVTZ AUX)
    Blend: AUG-CC-PVTZ-RI + DEF2-QZVPP-RI
	 Reference Energy          =    -237.7592851138851984 [Eh]
	 Singles Energy            =      -0.0000000000000000 [Eh]
	 Same-Spin Energy          =      -0.0712168510495735 [Eh]
	 Opposite-Spin Energy      =      -0.2252103711995740 [Eh]
	 Correlation Energy        =      -0.2964272222491475 [Eh]
	 Total Energy              =    -238.0557123361343486 [Eh]

	 ================> DF-SCS-MP2 Energies <==================
	-----------------------------------------------------------
	 SCS Same-Spin Scale       =       0.3333333333333333 [-]
	 SCS Opposite-Spin Scale   =       1.2000000000000000 [-]
	 SCS Same-Spin Energy      =      -0.0237389503498578 [Eh]
	 SCS Opposite-Spin Energy  =      -0.2702524454394888 [Eh]
	 SCS Correlation Energy    =      -0.2939913957893466 [Eh]
	 SCS Total Energy          =    -238.0532765096745322 [Eh]
	-----------------------------------------------------------

*** Psi4 exiting successfully. Buy a developer a beer!
