                               Psi4 1.9 release

  ==> Input File <==

--------------------------------------------------------------------------
MEMORY 60 GB

molecule dimer {
0 1
O      0.000000     0.000000     0.000000
H      0.182313     0.889565    -0.315775
H     -0.476350     0.129007     0.825062
--
1 1
Na     2.158940     0.000000     0.000000

units ang
no_reorient
no_com
symmetry c1
}

set {
basis        aug-cc-pVTZ
scf_type     df
}

energy("mp2", bsse_type="cp")
--------------------------------------------------------------------------

                               Psi4 1.9 release
    Molecular point group: c1
  Charge       = 1
  Multiplicity = 1
  Basis Set: AUG-CC-PVTZ
    Blend: AUG-CC-PVTZ
  Basis Set: (AUG-CC-PVTZ AUX)
    Blend: AUG-CC-PVTZ-JKFIT + DEF2-UNIVERSAL-JKFIT
  @DF-RHF Final Energy:  -161.67604513193388
    Total Energy =                       -161.6760451319339040
 Dipole X            :        -40.7987033           44.8778585            4.0791552
 Dipole Y            :          0.0001142            0.0000000            0.0001142
 Dipole Z            :          0.0000124            0.0000000            0.0000124
 Magnitude           :                                                    4.0791552
  Basis Set: (AUG-CC-PVTZ AUX)
    Blend: AUG-CC-PVTZ-RI + DEF2-QZVPP-RI
	 Reference Energy          =    -161.6760451319338756 [Eh]
	 Singles Energy            =      -0.0000000000000000 [Eh]
	 Same-Spin Energy          =      -0.0030935021408171 [Eh]
	 Opposite-Spin Energy      =      -0.0110755838228724 [Eh]
	 Correlation Energy        =      -0.0141690859636895 [Eh]
	 Total Energy              =    -161.6902142178975623 [Eh]
	 SCS Total Energy          =    -161.6903669999015847 [Eh]
                               Psi4 1.9 release
    Molecular point group: c1
  Multiplicity = 1
  Basis Set: AUG-CC-PVTZ
    Blend: AUG-CC-PVTZ
  Basis Set: (AUG-CC-PVTZ AUX)
    Blend: AUG-CC-PVTZ-JKFIT + DEF2-UNIVERSAL-JKFIT
  @DF-RHF Final Energy:   -76.06037855797098
    Total Energy =                        -76.0603785579709779
  Basis Set: (AUG-CC-PVTZ AUX)
	 Singles Energy            =      -0.0000000000000000 [Eh]
	 Same-Spin Energy          =      -0.0684584903068688 [Eh]
	 Opposite-Spin Energy      =      -0.2158036597113609 [Eh]
	 Correlation Energy        =      -0.2842621500182297 [Eh]
	 Total Energy              =     -76.3446407079892140 [Eh]
	 SCS Total Energy          =     -76.3421624463935728 [Eh]
                               Psi4 1.9 release
    Molecular point group: c1

    Geometry (in Bohr), charge = 1, multiplicity = 1:

       Center              X                  Y                   Z               Mass
    ------------   -----------------  -----------------  -----------------  -----------------
         O            0.000000000000     0.000000000000     0.000000000000    15.994914619570
         H            0.344521639111     1.681034220793    -0.596728267266     1.007825032230
         H           -0.900171039862     0.243787898267     1.559141216522     1.007825032230
         NA           4.079805321296     0.000000000000     0.000000000000    22.989769282000

  Charge       = 1
  Multiplicity = 1
  Basis Set: AUG-CC-PVTZ
    Blend: AUG-CC-PVTZ
  Basis Set: (AUG-CC-PVTZ AUX)
    Blend: AUG-CC-PVTZ-JKFIT + DEF2-UNIVERSAL-JKFIT

    Orbital Energies [Eh]
    ---------------------

    Doubly Occupied:

       1A    -40.711719     2A    -20.790823     3A     -3.030346
       4A     -1.755852     5A     -1.753558     6A     -1.753313
       7A     -1.579681     8A     -0.943044     9A     -0.815599
      10A     -0.744599

  @DF-RHF Final Energy:  -237.75459999947489

   => Energetics <=

    Nuclear Repulsion Energy =             35.4874434676111008
    One-Electron Energy =                -398.7270188746240933
    Two-Electron Energy =                 125.4849754075380730
    Total Energy =                       -237.7545999994749195
 Dipole X            :        -40.7608409           44.3222091            3.5613682
 Dipole Y            :         -1.2306595            1.9248221            0.6941626
 Dipole Z            :         -0.5894601            0.9624129            0.3729529
 Magnitude           :                                                    3.6475059
  Basis Set: (AUG-CC-PVTZ AUX)
    Blend: AUG-CC-PVTZ-RI + DEF2-QZVPP-RI
	 Reference Energy          =    -237.7545999994748911 [Eh]
	 Singles Energy            =      -0.0000000000000000 [Eh]
	 Same-Spin Energy          =      -0.0713358942815921 [Eh]
	 Opposite-Spin Energy      =      -0.2256075918499077 [Eh]
	 Correlation Energy        =      -0.2969434861314998 [Eh]
	 Total Energy              =    -238.0515434856064019 [Eh]

	 ================> DF-SCS-MP2 Energies <==================
	-----------------------------------------------------------
	 SCS Same-Spin Scale       =       0.3333333333333333 [-]
	 SCS Opposite-Spin Scale   =       1.2000000000000000 [-]
	 SCS Same-Spin Energy      =      -0.0237786314271974 [Eh]
	 SCS Opposite-Spin Energy  =      -0.2707291102198892 [Eh]
	 SCS Correlation Energy    =      -0.2945077416470866 [Eh]
	 SCS Total Energy          =    -238.0491077411219862 [Eh]
	-----------------------------------------------------------

*** Psi4 exiting successfully. Buy a developer a beer!
