                               Psi4 1.9 release

  ==> Input File <==

--------------------------------------------------------------------------
MEMORY 60 GB

molecule dimer {
0 1
O      0.000000     0.000000     0.000000
H     -0.294037     0.760558     0.509286
H     -0.294037    -0.760558     0.509286
--
1 1
Na     2.158940     0.000000     0.000000

units ang
no_reorient
no_com
symmetry c1
}

set {
basis        aug-cc-pVTZ
scf_type     df
}

energy("mp2", bsse_type="cp")
--------------------------------------------------------------------------

                               Psi4 1.9 release
    Molecular point group: c1
  Charge       = 1
  Multiplicity = 1
  Basis Set: AUG-CC-PVTZ
    Blend: AUG-CC-PVTZ
  Basis Set: (AUG-CC-PVTZ AUX)
    Blend: AUG-CC-PVTZ-JKFIT + DEF2-UNIVERSAL-JKFIT
  @DF-RHF Final Energy:  -161.67604499467001
    Total Energy =                       -161.6760449946700078
 Dipole X            :        -40.7986791           44.8778585            4.0791794
 Dipole Y            :         -0.0000000            0.0000000           -0.0000000
 Dipole Z            :          0.0000856            0.0000000            0.0000856
 Magnitude           :                                                    4.0791794
  Basis Set: (AUG-CC-PVTZ AUX)
    Blend: AUG-CC-PVTZ-RI + DEF2-QZVPP-RI
	 Reference Energy          =    -161.6760449946700078 [Eh]
	 Singles Energy            =      -0.0000000000000000 [Eh]
	 Same-Spin Energy          =      -0.0029982718692712 [Eh]
	 Opposite-Spin Energy      =      -0.0108122266839303 [Eh]
	 Correlation Energy        =      -0.0138104985532015 [Eh]
	 Total Energy              =    -161.6898554932232059 [Eh]
	 SCS Total Energy          =    -161.6900190906471551 [Eh]
                               Psi4 1.9 release
    Molecular point group: c1
  Multiplicity = 1
  Basis Set: AUG-CC-PVTZ
    Blend: AUG-CC-PVTZ
  Basis Set: (AUG-CC-PVTZ AUX)
    Blend: AUG-CC-PVTZ-JKFIT + DEF2-UNIVERSAL-JKFIT
  @DF-RHF Final Energy:   -76.06037899201492
    Total Energy =                        -76.0603789920149040
  Basis Set: (AUG-CC-PVTZ AUX)
	 Singles Energy            =      -0.0000000000000000 [Eh]
	 Same-Spin Energy          =      -0.0684578592953808 [Eh]
	 Opposite-Spin Energy      =      -0.2158017578607587 [Eh]
	 Correlation Energy        =      -0.2842596171561395 [Eh]
	 Total Energy              =     -76.3446386091710565 [Eh]
	 SCS Total Energy          =     -76.3421603878796162 [Eh]
                               Psi4 1.9 release
    Molecular point group: c1

    Geometry (in Bohr), charge = 1, multiplicity = 1:

       Center              X                  Y                   Z               Mass
    ------------   -----------------  -----------------  -----------------  -----------------
         O            0.000000000000     0.000000000000     0.000000000000    15.994914619570
         H           -0.555649400751     1.437246322526     0.962411059530     1.007825032230
         H           -0.555649400751    -1.437246322526     0.962411059530     1.007825032230
         NA           4.079805321296     0.000000000000     0.000000000000    22.989769282000

  Charge       = 1
  Multiplicity = 1
  Basis Set: AUG-CC-PVTZ
    Blend: AUG-CC-PVTZ
  Basis Set: (AUG-CC-PVTZ AUX)
    Blend: AUG-CC-PVTZ-JKFIT + DEF2-UNIVERSAL-JKFIT

    Orbital Energies [Eh]
    ---------------------

    Doubly Occupied:

       1A    -40.700741     2A    -20.785790     3A     -3.019467
       4A     -1.743960     5A     -1.743108     6A     -1.742712
       7A     -1.574602     8A     -0.936348     9A     -0.816957
      10A     -0.740599

  @DF-RHF Final Energy:  -237.76561367648566

   => Energetics <=

    Nuclear Repulsion Energy =             35.1709211536046809
    One-Electron Energy =                -398.2645002427080954
    Two-Electron Energy =                 125.3279654126177434
    Total Energy =                       -237.7656136764856569
 Dipole X            :        -40.3986405           43.7665597            3.3679192
 Dipole Y            :          0.0000000            0.0000000            0.0000000
 Dipole Z            :         -1.2092516            1.9248221            0.7155706
 Magnitude           :                                                    3.4430976
  Basis Set: (AUG-CC-PVTZ AUX)
    Blend: AUG-CC-PVTZ-RI + DEF2-QZVPP-RI
	 Reference Energy          =    -237.7656136764856569 [Eh]
	 Singles Energy            =      -0.0000000000000000 [Eh]
	 Same-Spin Energy          =      -0.0711582364117143 [Eh]
	 Opposite-Spin Energy      =      -0.2249885883123492 [Eh]
	 Correlation Energy        =      -0.2961468247240634 [Eh]
	 Total Energy              =    -238.0617605012097329 [Eh]

	 ================> DF-SCS-MP2 Energies <==================
	-----------------------------------------------------------
	 SCS Same-Spin Scale       =       0.3333333333333333 [-]
	 SCS Opposite-Spin Scale   =       1.2000000000000000 [-]
	 SCS Same-Spin Energy      =      -0.0237194121372381 [Eh]
	 SCS Opposite-Spin Energy  =      -0.2699863059748190 [Eh]
	 SCS Correlation Energy    =      -0.2937057181120571 [Eh]
	 SCS Total Energy          =    -238.0593193945977077 [Eh]
	-----------------------------------------------------------

*** Psi4 exiting successfully. Buy a developer a beer!
