                               Psi4 1.9 release

  ==> Input File <==

--------------------------------------------------------------------------
MEMORY 60 GB

molecule dimer {
0 1
O      0.000000     0.000000     0.000000
H     -0.475658    -0.134261     0.823863
H      0.179692    -0.890994    -0.311236
--
1 1
K      2.466222     0.000000     0.000000

units ang
no_reorient
no_com
symmetry c1
}

set {
basis        aug-cc-pVTZ
scf_type     df
}

energy("mp2", bsse_type="cp")
--------------------------------------------------------------------------

                               Psi4 1.9 release
    Molecular point group: c1
  Charge       = 1
  Multiplicity = 1
  Basis Set: AUG-CC-PVTZ
    Blend: AUG-CC-PVTZ
  Basis Set: (AUG-CC-PVTZ AUX)
    Blend: AUG-CC-PVTZ-JKFIT + DEF2-UNIVERSAL-JKFIT
  @DF-RHF Final Energy:  -599.01750904296864
    Total Energy =                       -599.0175090429685270
 Dipole X            :        -83.8891729           88.5491987            4.6600258
 Dipole Y            :         -0.0000941            0.0000000           -0.0000941
 Dipole Z            :          0.0000550            0.0000000            0.0000550
 Magnitude           :                                                    4.6600258
  Basis Set: (AUG-CC-PVTZ AUX)
    Blend: AUG-CC-PVTZ-RI + DEF2-QZVPP-RI
	 Reference Energy          =    -599.0175090429686406 [Eh]
	 Singles Energy            =      -0.0000000000000000 [Eh]
	 Same-Spin Energy          =      -0.0293066294621576 [Eh]
	 Opposite-Spin Energy      =      -0.0693979205007488 [Eh]
	 Correlation Energy        =      -0.0987045499629064 [Eh]
	 Total Energy              =    -599.1162135929315582 [Eh]
	 SCS Total Energy          =    -599.1105554240568836 [Eh]
                               Psi4 1.9 release
    Molecular point group: c1
  Multiplicity = 1
  Basis Set: AUG-CC-PVTZ
    Blend: AUG-CC-PVTZ
  Basis Set: (AUG-CC-PVTZ AUX)
    Blend: AUG-CC-PVTZ-JKFIT + DEF2-UNIVERSAL-JKFIT
  @DF-RHF Final Energy:   -76.06034705300645
    Total Energy =                        -76.0603470530064527
  Basis Set: (AUG-CC-PVTZ AUX)
	 Singles Energy            =      -0.0000000000000000 [Eh]
	 Same-Spin Energy          =      -0.0684338869679562 [Eh]
	 Opposite-Spin Energy      =      -0.2155759996687396 [Eh]
	 Correlation Energy        =      -0.2840098866366959 [Eh]
	 Total Energy              =     -76.3443569396431485 [Eh]
	 SCS Total Energy          =     -76.3418495482649320 [Eh]
                               Psi4 1.9 release
    Molecular point group: c1

    Geometry (in Bohr), charge = 1, multiplicity = 1:

       Center              X                  Y                   Z               Mass
    ------------   -----------------  -----------------  -----------------  -----------------
         O            0.000000000000     0.000000000000     0.000000000000    15.994914619570
         H           -0.898863349383    -0.253716519330     1.556875434898     1.007825032230
         H            0.339568666936    -1.683734639426    -0.588150800383     1.007825032230
         K            4.660484144579     0.000000000000     0.000000000000    38.963706486400

  Charge       = 1
  Multiplicity = 1
  Basis Set: AUG-CC-PVTZ
    Blend: AUG-CC-PVTZ
  Basis Set: (AUG-CC-PVTZ AUX)
    Blend: AUG-CC-PVTZ-JKFIT + DEF2-UNIVERSAL-JKFIT

    Orbital Energies [Eh]
    ---------------------

    Doubly Occupied:

       1A   -133.715915     2A    -20.766715     3A    -14.673067
       4A    -11.703043     5A    -11.702983     6A    -11.702864
       7A     -1.933535     8A     -1.558946     9A     -1.143645
      10A     -1.141203    11A     -1.139989    12A     -0.917128
      13A     -0.791474    14A     -0.716961

  @DF-RHF Final Energy:  -675.08511192171807

   => Energetics <=

    Nuclear Repulsion Energy =             49.1295434911429680
    One-Electron Energy =               -1021.2143767940094676
    Two-Electron Energy =                 296.9997213811484471
    Total Energy =                       -675.0851119217180667
 Dipole X            :        -83.8667497           87.9899041            4.1231543
 Dipole Y            :          1.2724576           -1.9374512           -0.6649936
 Dipole Z            :         -0.5929875            0.9687246            0.3757372
 Magnitude           :                                                    4.1933038
  Basis Set: (AUG-CC-PVTZ AUX)
    Blend: AUG-CC-PVTZ-RI + DEF2-QZVPP-RI
	 Reference Energy          =    -675.0851119217180667 [Eh]
	 Singles Energy            =      -0.0000000000000000 [Eh]
	 Same-Spin Energy          =      -0.0991078553808257 [Eh]
	 Opposite-Spin Energy      =      -0.2854981644191298 [Eh]
	 Correlation Energy        =      -0.3846060197999555 [Eh]
	 Total Energy              =    -675.4697179415180699 [Eh]

	 ================> DF-SCS-MP2 Energies <==================
	-----------------------------------------------------------
	 SCS Same-Spin Scale       =       0.3333333333333333 [-]
	 SCS Opposite-Spin Scale   =       1.2000000000000000 [-]
	 SCS Same-Spin Energy      =      -0.0330359517936086 [Eh]
	 SCS Opposite-Spin Energy  =      -0.3425977973029558 [Eh]
	 SCS Correlation Energy    =      -0.3756337490965643 [Eh]
	 SCS Total Energy          =    -675.4607456708146174 [Eh]
	-----------------------------------------------------------

*** Psi4 exiting successfully. Buy a developer a beer!
