                               Psi4 1.9 release

  ==> Input File <==

--------------------------------------------------------------------------
MEMORY 60 GB

molecule dimer {
0 1
O      0.000000     0.000000     0.000000
H     -0.383809     0.577745     0.664777
H     -0.187952    -0.884151     0.325543
--
1 1
K      2.466222     0.000000     0.000000

units ang
no_reorient
no_com
symmetry c1
}

set {
basis        aug-cc-pVTZ
scf_type     df
}

energy("mp2", bsse_type="cp")
--------------------------------------------------------------------------

                               Psi4 1.9 release
    Molecular point group: c1
  Charge       = 1
  Multiplicity = 1
  Basis Set: AUG-CC-PVTZ
    Blend: AUG-CC-PVTZ
  Basis Set: (AUG-CC-PVTZ AUX)
    Blend: AUG-CC-PVTZ-JKFIT + DEF2-UNIVERSAL-JKFIT
  @DF-RHF Final Energy:  -599.01750885383274
    Total Energy =                       -599.0175088538328509
 Dipole X            :        -83.8891628           88.5491987            4.6600359
 Dipole Y            :         -0.0000057            0.0000000           -0.0000057
 Dipole Z            :          0.0001000            0.0000000            0.0001000
 Magnitude           :                                                    4.6600359
  Basis Set: (AUG-CC-PVTZ AUX)
    Blend: AUG-CC-PVTZ-RI + DEF2-QZVPP-RI
	 Reference Energy          =    -599.0175088538327373 [Eh]
	 Singles Energy            =      -0.0000000000000000 [Eh]
	 Same-Spin Energy          =      -0.0289783847261244 [Eh]
	 Opposite-Spin Energy      =      -0.0684290341487853 [Eh]
	 Correlation Energy        =      -0.0974074188749097 [Eh]
	 Total Energy              =    -599.1149162727076600 [Eh]
	 SCS Total Energy          =    -599.1092831563867094 [Eh]
                               Psi4 1.9 release
    Molecular point group: c1
  Multiplicity = 1
  Basis Set: AUG-CC-PVTZ
    Blend: AUG-CC-PVTZ
  Basis Set: (AUG-CC-PVTZ AUX)
    Blend: AUG-CC-PVTZ-JKFIT + DEF2-UNIVERSAL-JKFIT
  @DF-RHF Final Energy:   -76.06034813251412
    Total Energy =                        -76.0603481325141217
  Basis Set: (AUG-CC-PVTZ AUX)
	 Singles Energy            =      -0.0000000000000000 [Eh]
	 Same-Spin Energy          =      -0.0684309871665919 [Eh]
	 Opposite-Spin Energy      =      -0.2155611731542703 [Eh]
	 Correlation Energy        =      -0.2839921603208622 [Eh]
	 Total Energy              =     -76.3443402928349855 [Eh]
	 SCS Total Energy          =     -76.3418318693547775 [Eh]
                               Psi4 1.9 release
    Molecular point group: c1

    Geometry (in Bohr), charge = 1, multiplicity = 1:

       Center              X                  Y                   Z               Mass
    ------------   -----------------  -----------------  -----------------  -----------------
         O            0.000000000000     0.000000000000     0.000000000000    15.994914619570
         H           -0.725293894486     1.091779820353     1.256246464503     1.007825032230
         H           -0.355177804732    -1.670803243550     0.615187112060     1.007825032230
         K            4.660484144579     0.000000000000     0.000000000000    38.963706486400

  Charge       = 1
  Multiplicity = 1
  Basis Set: AUG-CC-PVTZ
    Blend: AUG-CC-PVTZ
  Basis Set: (AUG-CC-PVTZ AUX)
    Blend: AUG-CC-PVTZ-JKFIT + DEF2-UNIVERSAL-JKFIT

    Orbital Energies [Eh]
    ---------------------

    Doubly Occupied:

       1A   -133.707806     2A    -20.763079     3A    -14.664980
       4A    -11.694929     5A    -11.694905     6A    -11.694775
       7A     -1.925431     8A     -1.555078     9A     -1.134265
      10A     -1.133712    11A     -1.132692    12A     -0.913852
      13A     -0.791334    14A     -0.714579

  @DF-RHF Final Energy:  -675.09362544757460

   => Energetics <=

    Nuclear Repulsion Energy =             48.7175015561928149
    One-Electron Energy =               -1020.5794193492666864
    Two-Electron Energy =                 296.7682923454992761
    Total Energy =                       -675.0936254475745955
 Dipole X            :        -83.5403832           87.4687270            3.9283438
 Dipole Y            :          0.3806263           -0.5790234           -0.1983971
 Dipole Z            :         -1.1935655            1.8714336            0.6778681
 Magnitude           :                                                    3.9913346
  Basis Set: (AUG-CC-PVTZ AUX)
    Blend: AUG-CC-PVTZ-RI + DEF2-QZVPP-RI
	 Reference Energy          =    -675.0936254475745955 [Eh]
	 Singles Energy            =      -0.0000000000000000 [Eh]
	 Same-Spin Energy          =      -0.0986717651590950 [Eh]
	 Opposite-Spin Energy      =      -0.2841948809425115 [Eh]
	 Correlation Energy        =      -0.3828666461016065 [Eh]
	 Total Energy              =    -675.4764920936762564 [Eh]

	 ================> DF-SCS-MP2 Energies <==================
	-----------------------------------------------------------
	 SCS Same-Spin Scale       =       0.3333333333333333 [-]
	 SCS Opposite-Spin Scale   =       1.2000000000000000 [-]
	 SCS Same-Spin Energy      =      -0.0328905883863650 [Eh]
	 SCS Opposite-Spin Energy  =      -0.3410338571310138 [Eh]
	 SCS Correlation Energy    =      -0.3739244455173788 [Eh]
	 SCS Total Energy          =    -675.4675498930919275 [Eh]
	-----------------------------------------------------------

*** Psi4 exiting successfully. Buy a developer a beer!
