                               Psi4 1.9 release

  ==> Input File <==

--------------------------------------------------------------------------
MEMORY 60 GB

molecule dimer {
0 1
O      0.000000     0.000000     0.000000
H     -0.445497     0.359385     0.771623
H     -0.067130    -0.951316     0.116273
--
1 1
K      2.466222     0.000000     0.000000

units ang
no_reorient
no_com
symmetry c1
}

set {
basis        aug-cc-pVTZ
scf_type     df
}

energy("mp2", bsse_type="cp")
--------------------------------------------------------------------------

                               Psi4 1.9 release
    Molecular point group: c1
  Charge       = 1
  Multiplicity = 1
  Basis Set: AUG-CC-PVTZ
    Blend: AUG-CC-PVTZ
  Basis Set: (AUG-CC-PVTZ AUX)
    Blend: AUG-CC-PVTZ-JKFIT + DEF2-UNIVERSAL-JKFIT
  @DF-RHF Final Energy:  -599.01750887098092
    Total Energy =                       -599.0175088709809188
 Dipole X            :        -83.8891599           88.5491987            4.6600388
 Dipole Y            :         -0.0000219            0.0000000           -0.0000219
 Dipole Z            :          0.0000972            0.0000000            0.0000972
 Magnitude           :                                                    4.6600388
  Basis Set: (AUG-CC-PVTZ AUX)
    Blend: AUG-CC-PVTZ-RI + DEF2-QZVPP-RI
	 Reference Energy          =    -599.0175088709809188 [Eh]
	 Singles Energy            =      -0.0000000000000000 [Eh]
	 Same-Spin Energy          =      -0.0290461512718616 [Eh]
	 Opposite-Spin Energy      =      -0.0686195672502209 [Eh]
	 Correlation Energy        =      -0.0976657185220826 [Eh]
	 Total Energy              =    -599.1151745895029990 [Eh]
	 SCS Total Energy          =    -599.1095344021051687 [Eh]
                               Psi4 1.9 release
    Molecular point group: c1
  Multiplicity = 1
  Basis Set: AUG-CC-PVTZ
    Blend: AUG-CC-PVTZ
  Basis Set: (AUG-CC-PVTZ AUX)
    Blend: AUG-CC-PVTZ-JKFIT + DEF2-UNIVERSAL-JKFIT
  @DF-RHF Final Energy:   -76.06034769926799
    Total Energy =                        -76.0603476992679930
  Basis Set: (AUG-CC-PVTZ AUX)
	 Singles Energy            =      -0.0000000000000000 [Eh]
	 Same-Spin Energy          =      -0.0684317436120184 [Eh]
	 Opposite-Spin Energy      =      -0.2155656296136502 [Eh]
	 Correlation Energy        =      -0.2839973732256686 [Eh]
	 Total Energy              =     -76.3443450724936667 [Eh]
	 SCS Total Energy          =     -76.3418370360083856 [Eh]
                               Psi4 1.9 release
    Molecular point group: c1

    Geometry (in Bohr), charge = 1, multiplicity = 1:

       Center              X                  Y                   Z               Mass
    ------------   -----------------  -----------------  -----------------  -----------------
         O            0.000000000000     0.000000000000     0.000000000000    15.994914619570
         H           -0.841867319713     0.679139223598     1.458156142104     1.007825032230
         H           -0.126857314802    -1.797726698766     0.219724125785     1.007825032230
         K            4.660484144579     0.000000000000     0.000000000000    38.963706486400

  Charge       = 1
  Multiplicity = 1
  Basis Set: AUG-CC-PVTZ
    Blend: AUG-CC-PVTZ
  Basis Set: (AUG-CC-PVTZ AUX)
    Blend: AUG-CC-PVTZ-JKFIT + DEF2-UNIVERSAL-JKFIT

    Orbital Energies [Eh]
    ---------------------

    Doubly Occupied:

       1A   -133.709609     2A    -20.763859     3A    -14.666766
       4A    -11.696722     5A    -11.696690     6A    -11.696563
       7A     -1.927187     8A     -1.555902     9A     -1.136359
      10A     -1.135277    11A     -1.134250    12A     -0.914602
      13A     -0.791326    14A     -0.715088

  @DF-RHF Final Energy:  -675.09189178065242

   => Energetics <=

    Nuclear Repulsion Energy =             48.8034729104293774
    One-Electron Energy =               -1020.7103279681197137
    Two-Electron Energy =                 296.8149632770379185
    Total Energy =                       -675.0918917806524178
 Dipole X            :        -83.6101844           87.5804741            3.9702897
 Dipole Y            :          0.7353564           -1.1185875           -0.3832311
 Dipole Z            :         -1.0650688            1.6778803            0.6128115
 Magnitude           :                                                    4.0355426
  Basis Set: (AUG-CC-PVTZ AUX)
    Blend: AUG-CC-PVTZ-RI + DEF2-QZVPP-RI
	 Reference Energy          =    -675.0918917806524178 [Eh]
	 Singles Energy            =      -0.0000000000000000 [Eh]
	 Same-Spin Energy          =      -0.0987595800879362 [Eh]
	 Opposite-Spin Energy      =      -0.2844553607932250 [Eh]
	 Correlation Energy        =      -0.3832149408811612 [Eh]
	 Total Energy              =    -675.4751067215336207 [Eh]

	 ================> DF-SCS-MP2 Energies <==================
	-----------------------------------------------------------
	 SCS Same-Spin Scale       =       0.3333333333333333 [-]
	 SCS Opposite-Spin Scale   =       1.2000000000000000 [-]
	 SCS Same-Spin Energy      =      -0.0329198600293121 [Eh]
	 SCS Opposite-Spin Energy  =      -0.3413464329518700 [Eh]
	 SCS Correlation Energy    =      -0.3742662929811821 [Eh]
	 SCS Total Energy          =    -675.4661580736335509 [Eh]
	-----------------------------------------------------------

*** Psi4 exiting successfully. Buy a developer a beer!
