                               Psi4 1.9 release

  ==> Input File <==

--------------------------------------------------------------------------
MEMORY 60 GB

molecule dimer {
0 1
O      0.000000     0.000000     0.000000
H     -0.295966     0.756733     0.512627
H     -0.295966    -0.756733     0.512627
--
1 1
K      2.466222     0.000000     0.000000

units ang
no_reorient
no_com
symmetry c1
}

set {
basis        aug-cc-pVTZ
scf_type     df
}

energy("mp2", bsse_type="cp")
--------------------------------------------------------------------------

                               Psi4 1.9 release
    Molecular point group: c1
  Charge       = 1
  Multiplicity = 1
  Basis Set: AUG-CC-PVTZ
    Blend: AUG-CC-PVTZ
  Basis Set: (AUG-CC-PVTZ AUX)
    Blend: AUG-CC-PVTZ-JKFIT + DEF2-UNIVERSAL-JKFIT
  @DF-RHF Final Energy:  -599.01750885430749
    Total Energy =                       -599.0175088543074935
 Dipole X            :        -83.8891648           88.5491987            4.6600339
 Dipole Y            :         -0.0000000            0.0000000           -0.0000000
 Dipole Z            :          0.0001002            0.0000000            0.0001002
 Magnitude           :                                                    4.6600339
  Basis Set: (AUG-CC-PVTZ AUX)
    Blend: AUG-CC-PVTZ-RI + DEF2-QZVPP-RI
	 Reference Energy          =    -599.0175088543074935 [Eh]
	 Singles Energy            =      -0.0000000000000000 [Eh]
	 Same-Spin Energy          =      -0.0289561720793073 [Eh]
	 Opposite-Spin Energy      =      -0.0683685689441136 [Eh]
	 Correlation Energy        =      -0.0973247410234209 [Eh]
	 Total Energy              =    -599.1148335953308788 [Eh]
	 SCS Total Energy          =    -599.1092031944001519 [Eh]
                               Psi4 1.9 release
    Molecular point group: c1
  Multiplicity = 1
  Basis Set: AUG-CC-PVTZ
    Blend: AUG-CC-PVTZ
  Basis Set: (AUG-CC-PVTZ AUX)
    Blend: AUG-CC-PVTZ-JKFIT + DEF2-UNIVERSAL-JKFIT
  @DF-RHF Final Energy:   -76.06034830626416
    Total Energy =                        -76.0603483062641601
  Basis Set: (AUG-CC-PVTZ AUX)
	 Singles Energy            =      -0.0000000000000000 [Eh]
	 Same-Spin Energy          =      -0.0684307363068607 [Eh]
	 Opposite-Spin Energy      =      -0.2155596431974875 [Eh]
	 Correlation Energy        =      -0.2839903795043482 [Eh]
	 Total Energy              =     -76.3443386857685056 [Eh]
	 SCS Total Energy          =     -76.3418301235367665 [Eh]
                               Psi4 1.9 release
    Molecular point group: c1

    Geometry (in Bohr), charge = 1, multiplicity = 1:

       Center              X                  Y                   Z               Mass
    ------------   -----------------  -----------------  -----------------  -----------------
         O            0.000000000000     0.000000000000     0.000000000000    15.994914619570
         H           -0.559294682447     1.430018120096     0.968724634515     1.007825032230
         H           -0.559294682447    -1.430018120096     0.968724634515     1.007825032230
         K            4.660484144579     0.000000000000     0.000000000000    38.963706486400

  Charge       = 1
  Multiplicity = 1
  Basis Set: AUG-CC-PVTZ
    Blend: AUG-CC-PVTZ
  Basis Set: (AUG-CC-PVTZ AUX)
    Blend: AUG-CC-PVTZ-JKFIT + DEF2-UNIVERSAL-JKFIT

    Orbital Energies [Eh]
    ---------------------

    Doubly Occupied:

       1A   -133.707183     2A    -20.762815     3A    -14.664365
       4A    -11.694311     5A    -11.694290     6A    -11.694158
       7A     -1.924829     8A     -1.554798     9A     -1.133460
      10A     -1.133262    11A     -1.132164    12A     -0.913591
      13A     -0.791342    14A     -0.714406

  @DF-RHF Final Energy:  -675.09420541194356

   => Energetics <=

    Nuclear Repulsion Energy =             48.6885190821225606
    One-Electron Energy =               -1020.5354976045849753
    Two-Electron Energy =                 296.7527731105188877
    Total Energy =                       -675.0942054119435625
 Dipole X            :        -83.5166073           87.4306094            3.9140021
 Dipole Y            :         -0.0000000            0.0000000           -0.0000000
 Dipole Z            :         -1.2373459            1.9374493            0.7001033
 Magnitude           :                                                    3.9761234
  Basis Set: (AUG-CC-PVTZ AUX)
    Blend: AUG-CC-PVTZ-RI + DEF2-QZVPP-RI
	 Reference Energy          =    -675.0942054119435625 [Eh]
	 Singles Energy            =      -0.0000000000000000 [Eh]
	 Same-Spin Energy          =      -0.0986430453676161 [Eh]
	 Opposite-Spin Energy      =      -0.2841108999029238 [Eh]
	 Correlation Energy        =      -0.3827539452705399 [Eh]
	 Total Energy              =    -675.4769593572141275 [Eh]

	 ================> DF-SCS-MP2 Energies <==================
	-----------------------------------------------------------
	 SCS Same-Spin Scale       =       0.3333333333333333 [-]
	 SCS Opposite-Spin Scale   =       1.2000000000000000 [-]
	 SCS Same-Spin Energy      =      -0.0328810151225387 [Eh]
	 SCS Opposite-Spin Energy  =      -0.3409330798835086 [Eh]
	 SCS Correlation Energy    =      -0.3738140950060472 [Eh]
	 SCS Total Energy          =    -675.4680195069496449 [Eh]
	-----------------------------------------------------------

*** Psi4 exiting successfully. Buy a developer a beer!
