                               Psi4 1.9 release

  ==> Input File <==

--------------------------------------------------------------------------
MEMORY 60 GB

molecule dimer {
0 1
O      0.000000     0.000000     0.000000
H      0.045375     0.953257    -0.078592
H      0.507202    -0.309825    -0.878500
--
-1 1
F      2.426389     0.000000     0.000000

units ang
no_reorient
no_com
symmetry c1
}

set {
basis        aug-cc-pVTZ
scf_type     df
}

energy("mp2", bsse_type="cp")
--------------------------------------------------------------------------

                               Psi4 1.9 release
    Molecular point group: c1
  Charge       = -1
  Multiplicity = 1
  Basis Set: AUG-CC-PVTZ
    Blend: AUG-CC-PVTZ
  Basis Set: (AUG-CC-PVTZ AUX)
    Blend: AUG-CC-PVTZ-JKFIT
  @DF-RHF Final Energy:   -99.45087315237777
    Total Energy =                        -99.4508731523777669
 Dipole X            :        -45.8527239           41.2668962           -4.5858277
 Dipole Y            :         -0.0002215            0.0000000           -0.0002215
 Dipole Z            :          0.0001071            0.0000000            0.0001071
 Magnitude           :                                                    4.5858277
  Basis Set: (AUG-CC-PVTZ AUX)
    Blend: AUG-CC-PVTZ-RI
	 Reference Energy          =     -99.4508731523777669 [Eh]
	 Singles Energy            =      -0.0000000000000000 [Eh]
	 Same-Spin Energy          =      -0.0816646270937364 [Eh]
	 Opposite-Spin Energy      =      -0.2269153924796965 [Eh]
	 Correlation Energy        =      -0.3085800195734328 [Eh]
	 Total Energy              =     -99.7594531719511934 [Eh]
	 SCS Total Energy          =     -99.7503931657179805 [Eh]
                               Psi4 1.9 release
    Molecular point group: c1
  Multiplicity = 1
  Basis Set: AUG-CC-PVTZ
    Blend: AUG-CC-PVTZ
  Basis Set: (AUG-CC-PVTZ AUX)
    Blend: AUG-CC-PVTZ-JKFIT
  @DF-RHF Final Energy:   -76.04861571291278
    Total Energy =                        -76.0486157129127918
  Basis Set: (AUG-CC-PVTZ AUX)
	 Singles Energy            =      -0.0000000000000000 [Eh]
	 Same-Spin Energy          =      -0.0692951830777027 [Eh]
	 Opposite-Spin Energy      =      -0.2184335702647983 [Eh]
	 Correlation Energy        =      -0.2877287533425009 [Eh]
	 Total Energy              =     -76.3363444662552837 [Eh]
	 SCS Total Energy          =     -76.3338343915897752 [Eh]
                               Psi4 1.9 release
    Molecular point group: c1

    Geometry (in Bohr), charge = -1, multiplicity = 1:

       Center              X                  Y                   Z               Mass
    ------------   -----------------  -----------------  -----------------  -----------------
         O            0.000000000000     0.000000000000     0.000000000000    15.994914619570
         H            0.085746322943     1.801394657176    -0.148517355652     1.007825032230
         H            0.958472870284    -0.585484396820    -1.660124401215     1.007825032230
         F            4.585210683823     0.000000000000     0.000000000000    18.998403162730

  Charge       = -1
  Multiplicity = 1
  Basis Set: AUG-CC-PVTZ
    Blend: AUG-CC-PVTZ
  Basis Set: (AUG-CC-PVTZ AUX)
    Blend: AUG-CC-PVTZ-JKFIT

    Orbital Energies [Eh]
    ---------------------

    Doubly Occupied:

       1A    -25.840244     2A    -20.359634     3A     -1.121187
       4A     -1.086214     5A     -0.474739     6A     -0.371593
       7A     -0.300543     8A     -0.191975     9A     -0.191432
      10A     -0.183522

  @DF-RHF Final Energy:  -175.49538427525172

   => Energetics <=

    Nuclear Repulsion Energy =             28.5417060285155912
    One-Electron Energy =                -307.8320141118875313
    Two-Electron Energy =                 103.7949238081202168
    Total Energy =                       -175.4953842752517232
 Dipole X            :        -46.2219372           42.3111153           -3.9108218
 Dipole Y            :         -0.8354753            1.2159103            0.3804350
 Dipole Z            :          1.2796244           -1.8086418           -0.5290173
 Magnitude           :                                                    3.9647342
  Basis Set: (AUG-CC-PVTZ AUX)
    Blend: AUG-CC-PVTZ-RI
	 Reference Energy          =    -175.4953842752517232 [Eh]
	 Singles Energy            =      -0.0000000000000000 [Eh]
	 Same-Spin Energy          =      -0.1526586696651936 [Eh]
	 Opposite-Spin Energy      =      -0.4464447389535862 [Eh]
	 Correlation Energy        =      -0.5991034086187799 [Eh]
	 Total Energy              =    -176.0944876838705113 [Eh]

	 ================> DF-SCS-MP2 Energies <==================
	-----------------------------------------------------------
	 SCS Same-Spin Scale       =       0.3333333333333333 [-]
	 SCS Opposite-Spin Scale   =       1.2000000000000000 [-]
	 SCS Same-Spin Energy      =      -0.0508862232217312 [Eh]
	 SCS Opposite-Spin Energy  =      -0.5357336867443034 [Eh]
	 SCS Correlation Energy    =      -0.5866199099660346 [Eh]
	 SCS Total Energy          =    -176.0820041852177553 [Eh]
	-----------------------------------------------------------

*** Psi4 exiting successfully. Buy a developer a beer!
