                               Psi4 1.9 release

  ==> Input File <==

--------------------------------------------------------------------------
MEMORY 60 GB

molecule dimer {
0 1
O      0.000000     0.000000     0.000000
H     -0.448644     0.334379     0.777074
H      0.280908     0.899651    -0.486546
--
-1 1
F      2.426389     0.000000     0.000000

units ang
no_reorient
no_com
symmetry c1
}

set {
basis        aug-cc-pVTZ
scf_type     df
}

energy("mp2", bsse_type="cp")
--------------------------------------------------------------------------

                               Psi4 1.9 release
    Molecular point group: c1
  Charge       = -1
  Multiplicity = 1
  Basis Set: AUG-CC-PVTZ
    Blend: AUG-CC-PVTZ
  Basis Set: (AUG-CC-PVTZ AUX)
    Blend: AUG-CC-PVTZ-JKFIT
  @DF-RHF Final Energy:   -99.45086288629578
    Total Energy =                        -99.4508628862957949
 Dipole X            :        -45.8523517           41.2668962           -4.5854556
 Dipole Y            :         -0.0002597            0.0000000           -0.0002597
 Dipole Z            :         -0.0002751            0.0000000           -0.0002751
 Magnitude           :                                                    4.5854556
  Basis Set: (AUG-CC-PVTZ AUX)
    Blend: AUG-CC-PVTZ-RI
	 Reference Energy          =     -99.4508628862957806 [Eh]
	 Singles Energy            =      -0.0000000000000000 [Eh]
	 Same-Spin Energy          =      -0.0816464594232332 [Eh]
	 Opposite-Spin Energy      =      -0.2268042280696594 [Eh]
	 Correlation Energy        =      -0.3084506874928926 [Eh]
	 Total Energy              =     -99.7593135737886740 [Eh]
	 SCS Total Energy          =     -99.7502434464537799 [Eh]
                               Psi4 1.9 release
    Molecular point group: c1
  Multiplicity = 1
  Basis Set: AUG-CC-PVTZ
    Blend: AUG-CC-PVTZ
  Basis Set: (AUG-CC-PVTZ AUX)
    Blend: AUG-CC-PVTZ-JKFIT
  @DF-RHF Final Energy:   -76.04861963265182
    Total Energy =                        -76.0486196326518211
  Basis Set: (AUG-CC-PVTZ AUX)
	 Singles Energy            =      -0.0000000000000000 [Eh]
	 Same-Spin Energy          =      -0.0692968772763771 [Eh]
	 Opposite-Spin Energy      =      -0.2184404262088880 [Eh]
	 Correlation Energy        =      -0.2877373034852651 [Eh]
	 Total Energy              =     -76.3363569361370793 [Eh]
	 SCS Total Energy          =     -76.3338471031946142 [Eh]
                               Psi4 1.9 release
    Molecular point group: c1

    Geometry (in Bohr), charge = -1, multiplicity = 1:

       Center              X                  Y                   Z               Mass
    ------------   -----------------  -----------------  -----------------  -----------------
         O            0.000000000000     0.000000000000     0.000000000000    15.994914619570
         H           -0.847814287830     0.631884732104     1.468457039214     1.007825032230
         H            0.530839186450     1.700093998494    -0.919438687437     1.007825032230
         F            4.585210683823     0.000000000000     0.000000000000    18.998403162730

  Charge       = -1
  Multiplicity = 1
  Basis Set: AUG-CC-PVTZ
    Blend: AUG-CC-PVTZ
  Basis Set: (AUG-CC-PVTZ AUX)
    Blend: AUG-CC-PVTZ-JKFIT

    Orbital Energies [Eh]
    ---------------------

    Doubly Occupied:

       1A    -25.824723     2A    -20.375063     3A     -1.132319
       4A     -1.071227     5A     -0.485283     6A     -0.378305
       7A     -0.308906     8A     -0.175401     9A     -0.175162
      10A     -0.169547

  @DF-RHF Final Energy:  -175.48059547135313

   => Energetics <=

    Nuclear Repulsion Energy =             28.0460959078244976
    One-Electron Energy =                -306.8615107364429377
    Two-Electron Energy =                 103.3348193572653031
    Total Energy =                       -175.4805954713531264
 Dipole X            :        -45.3883606           40.9499211           -4.4384396
 Dipole Y            :         -1.6337291            2.3319787            0.6982496
 Dipole Z            :         -0.3517918            0.5490184            0.1972266
 Magnitude           :                                                    4.4973544
  Basis Set: (AUG-CC-PVTZ AUX)
    Blend: AUG-CC-PVTZ-RI
	 Reference Energy          =    -175.4805954713531264 [Eh]
	 Singles Energy            =      -0.0000000000000000 [Eh]
	 Same-Spin Energy          =      -0.1528099532871254 [Eh]
	 Opposite-Spin Energy      =      -0.4473747033397692 [Eh]
	 Correlation Energy        =      -0.6001846566268946 [Eh]
	 Total Energy              =    -176.0807801279800344 [Eh]

	 ================> DF-SCS-MP2 Energies <==================
	-----------------------------------------------------------
	 SCS Same-Spin Scale       =       0.3333333333333333 [-]
	 SCS Opposite-Spin Scale   =       1.2000000000000000 [-]
	 SCS Same-Spin Energy      =      -0.0509366510957085 [Eh]
	 SCS Opposite-Spin Energy  =      -0.5368496440077231 [Eh]
	 SCS Correlation Energy    =      -0.5877862951034315 [Eh]
	 SCS Total Energy          =    -176.0683817664565538 [Eh]
	-----------------------------------------------------------

*** Psi4 exiting successfully. Buy a developer a beer!
