                               Psi4 1.9 release

  ==> Input File <==

--------------------------------------------------------------------------
MEMORY 60 GB

molecule dimer {
0 1
O      0.000000     0.000000     0.000000
H      0.277610     0.780169    -0.480835
H      0.361794    -0.775519    -0.626645
--
-1 1
F      2.426389     0.000000     0.000000

units ang
no_reorient
no_com
symmetry c1
}

set {
basis        aug-cc-pVTZ
scf_type     df
}

energy("mp2", bsse_type="cp")
--------------------------------------------------------------------------

                               Psi4 1.9 release
    Molecular point group: c1
  Charge       = -1
  Multiplicity = 1
  Basis Set: AUG-CC-PVTZ
    Blend: AUG-CC-PVTZ
  Basis Set: (AUG-CC-PVTZ AUX)
    Blend: AUG-CC-PVTZ-JKFIT
  @DF-RHF Final Energy:   -99.45087046171204
    Total Energy =                        -99.4508704617120429
 Dipole X            :        -45.8528367           41.2668962           -4.5859406
 Dipole Y            :         -0.0000083            0.0000000           -0.0000083
 Dipole Z            :          0.0001007            0.0000000            0.0001007
 Magnitude           :                                                    4.5859406
  Basis Set: (AUG-CC-PVTZ AUX)
    Blend: AUG-CC-PVTZ-RI
	 Reference Energy          =     -99.4508704617120429 [Eh]
	 Singles Energy            =      -0.0000000000000000 [Eh]
	 Same-Spin Energy          =      -0.0816633044734422 [Eh]
	 Opposite-Spin Energy      =      -0.2268952857286500 [Eh]
	 Correlation Energy        =      -0.3085585902020922 [Eh]
	 Total Energy              =     -99.7594290519141396 [Eh]
	 SCS Total Energy          =     -99.7503659060775760 [Eh]
                               Psi4 1.9 release
    Molecular point group: c1
  Multiplicity = 1
  Basis Set: AUG-CC-PVTZ
    Blend: AUG-CC-PVTZ
  Basis Set: (AUG-CC-PVTZ AUX)
    Blend: AUG-CC-PVTZ-JKFIT
  @DF-RHF Final Energy:   -76.04861144889207
    Total Energy =                        -76.0486114488920748
  Basis Set: (AUG-CC-PVTZ AUX)
	 Singles Energy            =      -0.0000000000000000 [Eh]
	 Same-Spin Energy          =      -0.0692937939625411 [Eh]
	 Opposite-Spin Energy      =      -0.2184267319659947 [Eh]
	 Correlation Energy        =      -0.2877205259285358 [Eh]
	 Total Energy              =     -76.3363319748206095 [Eh]
	 SCS Total Energy          =     -76.3338214585721175 [Eh]
                               Psi4 1.9 release
    Molecular point group: c1

    Geometry (in Bohr), charge = -1, multiplicity = 1:

       Center              X                  Y                   Z               Mass
    ------------   -----------------  -----------------  -----------------  -----------------
         O            0.000000000000     0.000000000000     0.000000000000    15.994914619570
         H            0.524606869688     1.474305741572    -0.908646461535     1.007825032230
         H            0.683691573834    -1.465518515089    -1.184187427888     1.007825032230
         F            4.585210683823     0.000000000000     0.000000000000    18.998403162730

  Charge       = -1
  Multiplicity = 1
  Basis Set: AUG-CC-PVTZ
    Blend: AUG-CC-PVTZ
  Basis Set: (AUG-CC-PVTZ AUX)
    Blend: AUG-CC-PVTZ-JKFIT

    Orbital Energies [Eh]
    ---------------------

    Doubly Occupied:

       1A    -25.839790     2A    -20.360424     3A     -1.121069
       4A     -1.085613     5A     -0.475196     6A     -0.372231
       7A     -0.301189     8A     -0.191569     9A     -0.191181
      10A     -0.183420

  @DF-RHF Final Energy:  -175.49585898304252

   => Energetics <=

    Nuclear Repulsion Energy =             28.5691367703007550
    One-Electron Energy =                -307.8866249713382786
    Two-Electron Energy =                 103.8216292179949676
    Total Energy =                       -175.4958589830425524
 Dipole X            :        -46.3475051           42.4751946           -3.8723105
 Dipole Y            :          0.0081898            0.0087872            0.0169770
 Dipole Z            :          1.4732519           -2.0928339           -0.6195820
 Magnitude           :                                                    3.9216016
  Basis Set: (AUG-CC-PVTZ AUX)
    Blend: AUG-CC-PVTZ-RI
	 Reference Energy          =    -175.4958589830425240 [Eh]
	 Singles Energy            =      -0.0000000000000000 [Eh]
	 Same-Spin Energy          =      -0.1524337385297845 [Eh]
	 Opposite-Spin Energy      =      -0.4462154667297141 [Eh]
	 Correlation Energy        =      -0.5986492052594986 [Eh]
	 Total Energy              =    -176.0945081883020293 [Eh]

	 ================> DF-SCS-MP2 Energies <==================
	-----------------------------------------------------------
	 SCS Same-Spin Scale       =       0.3333333333333333 [-]
	 SCS Opposite-Spin Scale   =       1.2000000000000000 [-]
	 SCS Same-Spin Energy      =      -0.0508112461765948 [Eh]
	 SCS Opposite-Spin Energy  =      -0.5354585600756570 [Eh]
	 SCS Correlation Energy    =      -0.5862698062522518 [Eh]
	 SCS Total Energy          =    -176.0821287892947851 [Eh]
	-----------------------------------------------------------

*** Psi4 exiting successfully. Buy a developer a beer!
