                               Psi4 1.9 release

  ==> Input File <==

--------------------------------------------------------------------------
MEMORY 60 GB

molecule dimer {
0 1
O      0.000000     0.000000     0.000000
H     -0.079532     0.944263     0.137753
H      0.530014    -0.036721    -0.918011
--
-1 1
F      2.426389     0.000000     0.000000

units ang
no_reorient
no_com
symmetry c1
}

set {
basis        aug-cc-pVTZ
scf_type     df
}

energy("mp2", bsse_type="cp")
--------------------------------------------------------------------------

                               Psi4 1.9 release
    Molecular point group: c1
  Charge       = -1
  Multiplicity = 1
  Basis Set: AUG-CC-PVTZ
    Blend: AUG-CC-PVTZ
  Basis Set: (AUG-CC-PVTZ AUX)
    Blend: AUG-CC-PVTZ-JKFIT
  @DF-RHF Final Energy:   -99.45087361538890
    Total Energy =                        -99.4508736153889004
 Dipole X            :        -45.8526178           41.2668962           -4.5857216
 Dipole Y            :         -0.0003410            0.0000000           -0.0003410
 Dipole Z            :          0.0000076            0.0000000            0.0000076
 Magnitude           :                                                    4.5857216
  Basis Set: (AUG-CC-PVTZ AUX)
    Blend: AUG-CC-PVTZ-RI
	 Reference Energy          =     -99.4508736153889004 [Eh]
	 Singles Energy            =      -0.0000000000000000 [Eh]
	 Same-Spin Energy          =      -0.0816637350169515 [Eh]
	 Opposite-Spin Energy      =      -0.2269132301794901 [Eh]
	 Correlation Energy        =      -0.3085769651964416 [Eh]
	 Total Energy              =     -99.7594505805853373 [Eh]
	 SCS Total Energy          =     -99.7503907366099440 [Eh]
                               Psi4 1.9 release
    Molecular point group: c1
  Multiplicity = 1
  Basis Set: AUG-CC-PVTZ
    Blend: AUG-CC-PVTZ
  Basis Set: (AUG-CC-PVTZ AUX)
    Blend: AUG-CC-PVTZ-JKFIT
  @DF-RHF Final Energy:   -76.04861812071447
    Total Energy =                        -76.0486181207144654
  Basis Set: (AUG-CC-PVTZ AUX)
	 Singles Energy            =      -0.0000000000000000 [Eh]
	 Same-Spin Energy          =      -0.0692958285207713 [Eh]
	 Opposite-Spin Energy      =      -0.2184398210117432 [Eh]
	 Correlation Energy        =      -0.2877356495325145 [Eh]
	 Total Energy              =     -76.3363537702469728 [Eh]
	 SCS Total Energy          =     -76.3338445154354872 [Eh]
                               Psi4 1.9 release
    Molecular point group: c1

    Geometry (in Bohr), charge = -1, multiplicity = 1:

       Center              X                  Y                   Z               Mass
    ------------   -----------------  -----------------  -----------------  -----------------
         O            0.000000000000     0.000000000000     0.000000000000    15.994914619570
         H           -0.150293698210     1.784398460403     0.260315442960     1.007825032230
         H            1.001581302658    -0.069392633053    -1.734789370158     1.007825032230
         F            4.585210683823     0.000000000000     0.000000000000    18.998403162730

  Charge       = -1
  Multiplicity = 1
  Basis Set: AUG-CC-PVTZ
    Blend: AUG-CC-PVTZ
  Basis Set: (AUG-CC-PVTZ AUX)
    Blend: AUG-CC-PVTZ-JKFIT

    Orbital Energies [Eh]
    ---------------------

    Doubly Occupied:

       1A    -25.839290     2A    -20.360692     3A     -1.122097
       4A     -1.085490     5A     -0.475448     6A     -0.371840
       7A     -0.301026     8A     -0.190923     9A     -0.190360
      10A     -0.182692

  @DF-RHF Final Energy:  -175.49414052229577

   => Energetics <=

    Nuclear Repulsion Energy =             28.4894089313579144
    One-Electron Energy =                -307.7273815375552317
    Two-Electron Energy =                 103.7438320839015660
    Total Energy =                       -175.4941405222957655
 Dipole X            :        -46.0910715           42.1181838           -3.9728877
 Dipole Y            :         -1.1849303            1.7150058            0.5300755
 Dipole Z            :          1.0500223           -1.4744739           -0.4244517
 Magnitude           :                                                    4.0305057
  Basis Set: (AUG-CC-PVTZ AUX)
    Blend: AUG-CC-PVTZ-RI
	 Reference Energy          =    -175.4941405222957655 [Eh]
	 Singles Energy            =      -0.0000000000000000 [Eh]
	 Same-Spin Energy          =      -0.1527673750604453 [Eh]
	 Opposite-Spin Energy      =      -0.4466260847888182 [Eh]
	 Correlation Energy        =      -0.5993934598492635 [Eh]
	 Total Energy              =    -176.0935339821450327 [Eh]

	 ================> DF-SCS-MP2 Energies <==================
	-----------------------------------------------------------
	 SCS Same-Spin Scale       =       0.3333333333333333 [-]
	 SCS Opposite-Spin Scale   =       1.2000000000000000 [-]
	 SCS Same-Spin Energy      =      -0.0509224583534818 [Eh]
	 SCS Opposite-Spin Energy  =      -0.5359513017465818 [Eh]
	 SCS Correlation Energy    =      -0.5868737601000635 [Eh]
	 SCS Total Energy          =    -176.0810142823958415 [Eh]
	-----------------------------------------------------------

*** Psi4 exiting successfully. Buy a developer a beer!
