                               Psi4 1.9 release

  ==> Input File <==

--------------------------------------------------------------------------
MEMORY 60 GB

molecule dimer {
0 1
O      0.000000     0.000000     0.000000
H      0.369112     0.609884    -0.639321
H      0.249106    -0.936372    -0.431465
--
-1 1
F      2.426389     0.000000     0.000000

units ang
no_reorient
no_com
symmetry c1
}

set {
basis        aug-cc-pVTZ
scf_type     df
}

energy("mp2", bsse_type="cp")
--------------------------------------------------------------------------

                               Psi4 1.9 release
    Molecular point group: c1
  Charge       = -1
  Multiplicity = 1
  Basis Set: AUG-CC-PVTZ
    Blend: AUG-CC-PVTZ
  Basis Set: (AUG-CC-PVTZ AUX)
    Blend: AUG-CC-PVTZ-JKFIT
  @DF-RHF Final Energy:   -99.45087044601898
    Total Energy =                        -99.4508704460189961
 Dipole X            :        -45.8528245           41.2668962           -4.5859283
 Dipole Y            :          0.0000387            0.0000000            0.0000387
 Dipole Z            :          0.0001216            0.0000000            0.0001216
 Magnitude           :                                                    4.5859283
  Basis Set: (AUG-CC-PVTZ AUX)
    Blend: AUG-CC-PVTZ-RI
	 Reference Energy          =     -99.4508704460189819 [Eh]
	 Singles Energy            =      -0.0000000000000000 [Eh]
	 Same-Spin Energy          =      -0.0816632292827064 [Eh]
	 Opposite-Spin Energy      =      -0.2269002470757119 [Eh]
	 Correlation Energy        =      -0.3085634763584183 [Eh]
	 Total Energy              =     -99.7594339223773972 [Eh]
	 SCS Total Energy          =     -99.7503718189374098 [Eh]
                               Psi4 1.9 release
    Molecular point group: c1
  Multiplicity = 1
  Basis Set: AUG-CC-PVTZ
    Blend: AUG-CC-PVTZ
  Basis Set: (AUG-CC-PVTZ AUX)
    Blend: AUG-CC-PVTZ-JKFIT
  @DF-RHF Final Energy:   -76.04861128322015
    Total Energy =                        -76.0486112832201542
  Basis Set: (AUG-CC-PVTZ AUX)
	 Singles Energy            =      -0.0000000000000000 [Eh]
	 Same-Spin Energy          =      -0.0692940825707194 [Eh]
	 Opposite-Spin Energy      =      -0.2184325601769337 [Eh]
	 Correlation Energy        =      -0.2877266427476531 [Eh]
	 Total Energy              =     -76.3363379259678112 [Eh]
	 SCS Total Energy          =     -76.3338283829560424 [Eh]
                               Psi4 1.9 release
    Molecular point group: c1

    Geometry (in Bohr), charge = -1, multiplicity = 1:

       Center              X                  Y                   Z               Mass
    ------------   -----------------  -----------------  -----------------  -----------------
         O            0.000000000000     0.000000000000     0.000000000000    15.994914619570
         H            0.697520589620     1.152513728299    -1.208141596254     1.007825032230
         H            0.470742116208    -1.769486631547    -0.815350682721     1.007825032230
         F            4.585210683823     0.000000000000     0.000000000000    18.998403162730

  Charge       = -1
  Multiplicity = 1
  Basis Set: AUG-CC-PVTZ
    Blend: AUG-CC-PVTZ
  Basis Set: (AUG-CC-PVTZ AUX)
    Blend: AUG-CC-PVTZ-JKFIT

    Orbital Energies [Eh]
    ---------------------

    Doubly Occupied:

       1A    -25.839476     2A    -20.361373     3A     -1.121533
       4A     -1.085322     5A     -0.475876     6A     -0.372658
       7A     -0.301819     8A     -0.191263     9A     -0.190921
      10A     -0.183319

  @DF-RHF Final Energy:  -175.49572469151332

   => Energetics <=

    Nuclear Repulsion Energy =             28.5572252073911201
    One-Electron Energy =                -307.8587801812643647
    Two-Electron Energy =                 103.8058302823599348
    Total Energy =                       -175.4957246915133169
 Dipole X            :        -46.3218370           42.4351589           -3.8866781
 Dipole Y            :          0.4464868           -0.6169729           -0.1704861
 Dipole Z            :          1.4238840           -2.0234923           -0.5996083
 Magnitude           :                                                    3.9363514
  Basis Set: (AUG-CC-PVTZ AUX)
    Blend: AUG-CC-PVTZ-RI
	 Reference Energy          =    -175.4957246915133169 [Eh]
	 Singles Energy            =      -0.0000000000000000 [Eh]
	 Same-Spin Energy          =      -0.1523903134517434 [Eh]
	 Opposite-Spin Energy      =      -0.4462240477311634 [Eh]
	 Correlation Energy        =      -0.5986143611829068 [Eh]
	 Total Energy              =    -176.0943390526962276 [Eh]

	 ================> DF-SCS-MP2 Energies <==================
	-----------------------------------------------------------
	 SCS Same-Spin Scale       =       0.3333333333333333 [-]
	 SCS Opposite-Spin Scale   =       1.2000000000000000 [-]
	 SCS Same-Spin Energy      =      -0.0507967711505811 [Eh]
	 SCS Opposite-Spin Energy  =      -0.5354688572773961 [Eh]
	 SCS Correlation Energy    =      -0.5862656284279772 [Eh]
	 SCS Total Energy          =    -176.0819903199412977 [Eh]
	-----------------------------------------------------------

*** Psi4 exiting successfully. Buy a developer a beer!
