                               Psi4 1.9 release

  ==> Input File <==

--------------------------------------------------------------------------
MEMORY 60 GB

molecule dimer {
0 1
O      0.000000     0.000000     0.000000
H     -0.304942     0.738224     0.528175
H      0.468186     0.498213    -0.810922
--
-1 1
F      2.426389     0.000000     0.000000

units ang
no_reorient
no_com
symmetry c1
}

set {
basis        aug-cc-pVTZ
scf_type     df
}

energy("mp2", bsse_type="cp")
--------------------------------------------------------------------------

                               Psi4 1.9 release
    Molecular point group: c1
  Charge       = -1
  Multiplicity = 1
  Basis Set: AUG-CC-PVTZ
    Blend: AUG-CC-PVTZ
  Basis Set: (AUG-CC-PVTZ AUX)
    Blend: AUG-CC-PVTZ-JKFIT
  @DF-RHF Final Energy:   -99.45086953453396
    Total Energy =                        -99.4508695345339788
 Dipole X            :        -45.8524520           41.2668962           -4.5855558
 Dipole Y            :         -0.0002995            0.0000000           -0.0002995
 Dipole Z            :         -0.0002140            0.0000000           -0.0002140
 Magnitude           :                                                    4.5855559
  Basis Set: (AUG-CC-PVTZ AUX)
    Blend: AUG-CC-PVTZ-RI
	 Reference Energy          =     -99.4508695345339646 [Eh]
	 Singles Energy            =      -0.0000000000000000 [Eh]
	 Same-Spin Energy          =      -0.0816565259593747 [Eh]
	 Opposite-Spin Energy      =      -0.2268652406869440 [Eh]
	 Correlation Energy        =      -0.3085217666463188 [Eh]
	 Total Energy              =     -99.7593913011802869 [Eh]
	 SCS Total Energy          =     -99.7503266653447582 [Eh]
                               Psi4 1.9 release
    Molecular point group: c1
  Multiplicity = 1
  Basis Set: AUG-CC-PVTZ
    Blend: AUG-CC-PVTZ
  Basis Set: (AUG-CC-PVTZ AUX)
    Blend: AUG-CC-PVTZ-JKFIT
  @DF-RHF Final Energy:   -76.04862019701085
    Total Energy =                        -76.0486201970108482
  Basis Set: (AUG-CC-PVTZ AUX)
	 Singles Energy            =      -0.0000000000000000 [Eh]
	 Same-Spin Energy          =      -0.0692964983277773 [Eh]
	 Opposite-Spin Energy      =      -0.2184433046257901 [Eh]
	 Correlation Energy        =      -0.2877398029535674 [Eh]
	 Total Energy              =     -76.3363599999644151 [Eh]
	 SCS Total Energy          =     -76.3338509953377269 [Eh]
                               Psi4 1.9 release
    Molecular point group: c1

    Geometry (in Bohr), charge = -1, multiplicity = 1:

       Center              X                  Y                   Z               Mass
    ------------   -----------------  -----------------  -----------------  -----------------
         O            0.000000000000     0.000000000000     0.000000000000    15.994914619570
         H           -0.576256864149     1.395041179240     0.998106096314     1.007825032230
         H            0.884743315774     0.941486122143    -1.532420489109     1.007825032230
         F            4.585210683823     0.000000000000     0.000000000000    18.998403162730

  Charge       = -1
  Multiplicity = 1
  Basis Set: AUG-CC-PVTZ
    Blend: AUG-CC-PVTZ
  Basis Set: (AUG-CC-PVTZ AUX)
    Blend: AUG-CC-PVTZ-JKFIT

    Orbital Energies [Eh]
    ---------------------

    Doubly Occupied:

       1A    -25.833296     2A    -20.366778     3A     -1.126294
       4A     -1.079918     5A     -0.479378     6A     -0.374358
       7A     -0.304247     8A     -0.184505     9A     -0.184098
      10A     -0.177570

  @DF-RHF Final Energy:  -175.48852970192877

   => Energetics <=

    Nuclear Repulsion Energy =             28.2952997360154015
    One-Electron Energy =                -307.3467742385894894
    Two-Electron Energy =                 103.5629448006453117
    Total Energy =                       -175.4885297019287691
 Dipole X            :        -45.7582107           41.5753826           -4.1828281
 Dipole Y            :         -1.6243992            2.3365273            0.7121281
 Dipole Z            :          0.4009411           -0.5343144           -0.1333733
 Magnitude           :                                                    4.2451108
  Basis Set: (AUG-CC-PVTZ AUX)
    Blend: AUG-CC-PVTZ-RI
	 Reference Energy          =    -175.4885297019287691 [Eh]
	 Singles Energy            =      -0.0000000000000000 [Eh]
	 Same-Spin Energy          =      -0.1528449314675708 [Eh]
	 Opposite-Spin Energy      =      -0.4470107181207273 [Eh]
	 Correlation Energy        =      -0.5998556495882982 [Eh]
	 Total Energy              =    -176.0883853515170756 [Eh]

	 ================> DF-SCS-MP2 Energies <==================
	-----------------------------------------------------------
	 SCS Same-Spin Scale       =       0.3333333333333333 [-]
	 SCS Opposite-Spin Scale   =       1.2000000000000000 [-]
	 SCS Same-Spin Energy      =      -0.0509483104891903 [Eh]
	 SCS Opposite-Spin Energy  =      -0.5364128617448728 [Eh]
	 SCS Correlation Energy    =      -0.5873611722340630 [Eh]
	 SCS Total Energy          =    -176.0758908741628375 [Eh]
	-----------------------------------------------------------

*** Psi4 exiting successfully. Buy a developer a beer!
