                               Psi4 1.9 release

  ==> Input File <==

--------------------------------------------------------------------------
MEMORY 60 GB

molecule dimer {
0 1
O      0.000000     0.000000     0.000000
H      0.167189     0.897287    -0.289581
H      0.449825    -0.561815    -0.779120
--
-1 1
F      2.426389     0.000000     0.000000

units ang
no_reorient
no_com
symmetry c1
}

set {
basis        aug-cc-pVTZ
scf_type     df
}

energy("mp2", bsse_type="cp")
--------------------------------------------------------------------------

                               Psi4 1.9 release
    Molecular point group: c1
  Charge       = -1
  Multiplicity = 1
  Basis Set: AUG-CC-PVTZ
    Blend: AUG-CC-PVTZ
  Basis Set: (AUG-CC-PVTZ AUX)
    Blend: AUG-CC-PVTZ-JKFIT
  @DF-RHF Final Energy:   -99.45087162771433
    Total Energy =                        -99.4508716277143208
 Dipole X            :        -45.8528043           41.2668962           -4.5859081
 Dipole Y            :         -0.0000790            0.0000000           -0.0000790
 Dipole Z            :          0.0001221            0.0000000            0.0001221
 Magnitude           :                                                    4.5859081
  Basis Set: (AUG-CC-PVTZ AUX)
    Blend: AUG-CC-PVTZ-RI
	 Reference Energy          =     -99.4508716277143350 [Eh]
	 Singles Energy            =      -0.0000000000000000 [Eh]
	 Same-Spin Energy          =      -0.0816640915122374 [Eh]
	 Opposite-Spin Energy      =      -0.2269044664064175 [Eh]
	 Correlation Energy        =      -0.3085685579186549 [Eh]
	 Total Energy              =     -99.7594401856329966 [Eh]
	 SCS Total Energy          =     -99.7503783512394477 [Eh]
                               Psi4 1.9 release
    Molecular point group: c1
  Multiplicity = 1
  Basis Set: AUG-CC-PVTZ
    Blend: AUG-CC-PVTZ
  Basis Set: (AUG-CC-PVTZ AUX)
    Blend: AUG-CC-PVTZ-JKFIT
  @DF-RHF Final Energy:   -76.04861331508833
    Total Energy =                        -76.0486133150883461
  Basis Set: (AUG-CC-PVTZ AUX)
	 Singles Energy            =      -0.0000000000000000 [Eh]
	 Same-Spin Energy          =      -0.0692943345334453 [Eh]
	 Opposite-Spin Energy      =      -0.2184276755682305 [Eh]
	 Correlation Energy        =      -0.2877220101016759 [Eh]
	 Total Energy              =     -76.3363353251900065 [Eh]
	 SCS Total Energy          =     -76.3338246372813529 [Eh]
                               Psi4 1.9 release
    Molecular point group: c1

    Geometry (in Bohr), charge = -1, multiplicity = 1:

       Center              X                  Y                   Z               Mass
    ------------   -----------------  -----------------  -----------------  -----------------
         O            0.000000000000     0.000000000000     0.000000000000    15.994914619570
         H            0.315941421189     1.695626685934    -0.547228781136     1.007825032230
         H            0.850046054384    -1.061676483174    -1.472323418867     1.007825032230
         F            4.585210683823     0.000000000000     0.000000000000    18.998403162730

  Charge       = -1
  Multiplicity = 1
  Basis Set: AUG-CC-PVTZ
    Blend: AUG-CC-PVTZ
  Basis Set: (AUG-CC-PVTZ AUX)
    Blend: AUG-CC-PVTZ-JKFIT

    Orbital Energies [Eh]
    ---------------------

    Doubly Occupied:

       1A    -25.840192     2A    -20.359716     3A     -1.120910
       4A     -1.086045     5A     -0.474746     6A     -0.371817
       7A     -0.300691     8A     -0.191960     9A     -0.191491
      10A     -0.183593

  @DF-RHF Final Energy:  -175.49582567581265

   => Energetics <=

    Nuclear Repulsion Energy =             28.5657879861675958
    One-Electron Energy =                -307.8809068134925724
    Two-Electron Energy =                 103.8192931515123263
    Total Energy =                       -175.4958256758126254
 Dipole X            :        -46.3118268           42.4328836           -3.8789432
 Dipole Y            :         -0.4287800            0.6339502            0.2051702
 Dipole Z            :          1.4239072           -2.0195522           -0.5956450
 Magnitude           :                                                    3.9297694
  Basis Set: (AUG-CC-PVTZ AUX)
    Blend: AUG-CC-PVTZ-RI
	 Reference Energy          =    -175.4958256758126538 [Eh]
	 Singles Energy            =      -0.0000000000000000 [Eh]
	 Same-Spin Energy          =      -0.1525335613020292 [Eh]
	 Opposite-Spin Energy      =      -0.4462970971213731 [Eh]
	 Correlation Energy        =      -0.5988306584234022 [Eh]
	 Total Energy              =    -176.0946563342360491 [Eh]

	 ================> DF-SCS-MP2 Energies <==================
	-----------------------------------------------------------
	 SCS Same-Spin Scale       =       0.3333333333333333 [-]
	 SCS Opposite-Spin Scale   =       1.2000000000000000 [-]
	 SCS Same-Spin Energy      =      -0.0508445204340097 [Eh]
	 SCS Opposite-Spin Energy  =      -0.5355565165456476 [Eh]
	 SCS Correlation Energy    =      -0.5864010369796574 [Eh]
	 SCS Total Energy          =    -176.0822267127923055 [Eh]
	-----------------------------------------------------------

*** Psi4 exiting successfully. Buy a developer a beer!
