                               Psi4 1.9 release

  ==> Input File <==

--------------------------------------------------------------------------
MEMORY 60 GB

molecule dimer {
0 1
O      0.000000     0.000000     0.000000
H     -0.199018     0.870919     0.344710
H      0.516706     0.238886    -0.894961
--
-1 1
F      2.426389     0.000000     0.000000

units ang
no_reorient
no_com
symmetry c1
}

set {
basis        aug-cc-pVTZ
scf_type     df
}

energy("mp2", bsse_type="cp")
--------------------------------------------------------------------------

                               Psi4 1.9 release
    Molecular point group: c1
  Charge       = -1
  Multiplicity = 1
  Basis Set: AUG-CC-PVTZ
    Blend: AUG-CC-PVTZ
  Basis Set: (AUG-CC-PVTZ AUX)
    Blend: AUG-CC-PVTZ-JKFIT
  @DF-RHF Final Energy:   -99.45087226459003
    Total Energy =                        -99.4508722645900320
 Dipole X            :        -45.8525219           41.2668962           -4.5856257
 Dipole Y            :         -0.0003566            0.0000000           -0.0003566
 Dipole Z            :         -0.0001235            0.0000000           -0.0001235
 Magnitude           :                                                    4.5856257
  Basis Set: (AUG-CC-PVTZ AUX)
    Blend: AUG-CC-PVTZ-RI
	 Reference Energy          =     -99.4508722645900320 [Eh]
	 Singles Energy            =      -0.0000000000000000 [Eh]
	 Same-Spin Energy          =      -0.0816609327970994 [Eh]
	 Opposite-Spin Energy      =      -0.2268945819961485 [Eh]
	 Correlation Energy        =      -0.3085555147932478 [Eh]
	 Total Energy              =     -99.7594277793832731 [Eh]
	 SCS Total Energy          =     -99.7503660739177747 [Eh]
                               Psi4 1.9 release
    Molecular point group: c1
  Multiplicity = 1
  Basis Set: AUG-CC-PVTZ
    Blend: AUG-CC-PVTZ
  Basis Set: (AUG-CC-PVTZ AUX)
    Blend: AUG-CC-PVTZ-JKFIT
  @DF-RHF Final Energy:   -76.04861979512913
    Total Energy =                        -76.0486197951291274
  Basis Set: (AUG-CC-PVTZ AUX)
	 Singles Energy            =      -0.0000000000000000 [Eh]
	 Same-Spin Energy          =      -0.0692962447374972 [Eh]
	 Opposite-Spin Energy      =      -0.2184431805092338 [Eh]
	 Correlation Energy        =      -0.2877394252467310 [Eh]
	 Total Energy              =     -76.3363592203758543 [Eh]
	 SCS Total Energy          =     -76.3338503599860445 [Eh]
                               Psi4 1.9 release
    Molecular point group: c1

    Geometry (in Bohr), charge = -1, multiplicity = 1:

       Center              X                  Y                   Z               Mass
    ------------   -----------------  -----------------  -----------------  -----------------
         O            0.000000000000     0.000000000000     0.000000000000    15.994914619570
         H           -0.376089514036     1.645798387458     0.651407492707     1.007825032230
         H            0.976432827381     0.451429115206    -1.691231182966     1.007825032230
         F            4.585210683823     0.000000000000     0.000000000000    18.998403162730

  Charge       = -1
  Multiplicity = 1
  Basis Set: AUG-CC-PVTZ
    Blend: AUG-CC-PVTZ
  Basis Set: (AUG-CC-PVTZ AUX)
    Blend: AUG-CC-PVTZ-JKFIT

    Orbital Energies [Eh]
    ---------------------

    Doubly Occupied:

       1A    -25.836925     2A    -20.363149     3A     -1.123805
       4A     -1.083389     5A     -0.477022     6A     -0.372769
       7A     -0.302295     8A     -0.188379     9A     -0.187869
      10A     -0.180712

  @DF-RHF Final Energy:  -175.49182974109684

   => Energetics <=

    Nuclear Repulsion Energy =             28.4055979662338984
    One-Electron Energy =                -307.5622271219337449
    Two-Electron Energy =                 103.6647994146030385
    Total Energy =                       -175.4918297410968364
 Dipole X            :        -45.9330288           41.8672395           -4.0657894
 Dipole Y            :         -1.4538430            2.0972275            0.6433845
 Dipole Z            :          0.7503941           -1.0398237           -0.2894296
 Magnitude           :                                                    4.1265429
  Basis Set: (AUG-CC-PVTZ AUX)
    Blend: AUG-CC-PVTZ-RI
	 Reference Energy          =    -175.4918297410968364 [Eh]
	 Singles Energy            =      -0.0000000000000000 [Eh]
	 Same-Spin Energy          =      -0.1528307257165110 [Eh]
	 Opposite-Spin Energy      =      -0.4468189885517843 [Eh]
	 Correlation Energy        =      -0.5996497142682953 [Eh]
	 Total Energy              =    -176.0914794553651177 [Eh]

	 ================> DF-SCS-MP2 Energies <==================
	-----------------------------------------------------------
	 SCS Same-Spin Scale       =       0.3333333333333333 [-]
	 SCS Opposite-Spin Scale   =       1.2000000000000000 [-]
	 SCS Same-Spin Energy      =      -0.0509435752388370 [Eh]
	 SCS Opposite-Spin Energy  =      -0.5361827862621411 [Eh]
	 SCS Correlation Energy    =      -0.5871263615009781 [Eh]
	 SCS Total Energy          =    -176.0789561025978287 [Eh]
	-----------------------------------------------------------

*** Psi4 exiting successfully. Buy a developer a beer!
