                               Psi4 1.9 release

  ==> Input File <==

--------------------------------------------------------------------------
MEMORY 60 GB

molecule dimer {
0 1
O      0.000000     0.000000     0.000000
H      0.087876     0.941808    -0.152206
H      0.459693    -0.362740    -0.796212
--
-1 1
Cl     3.070352     0.000000     0.000000

units ang
no_reorient
no_com
symmetry c1
}

set {
basis        aug-cc-pVTZ
scf_type     df
}

energy("mp2", bsse_type="cp")
--------------------------------------------------------------------------

                               Psi4 1.9 release
    Molecular point group: c1
  Charge       = -1
  Multiplicity = 1
  Basis Set: AUG-CC-PVTZ
    Blend: AUG-CC-PVTZ
  Basis Set: (AUG-CC-PVTZ AUX)
    Blend: AUG-CC-PVTZ-JKFIT
  @DF-RHF Final Energy:  -459.57349637397238
    Total Energy =                       -459.5734963739723753
 Dipole X            :       -104.4381593           98.6361146           -5.8020447
 Dipole Y            :          0.0000270            0.0000000            0.0000270
 Dipole Z            :          0.0001699            0.0000000            0.0001699
 Magnitude           :                                                    5.8020447
  Basis Set: (AUG-CC-PVTZ AUX)
    Blend: AUG-CC-PVTZ-RI
	 Reference Energy          =    -459.5734963739723753 [Eh]
	 Singles Energy            =      -0.0000000000000000 [Eh]
	 Same-Spin Energy          =      -0.0624438963155268 [Eh]
	 Opposite-Spin Energy      =      -0.1793260314386871 [Eh]
	 Correlation Energy        =      -0.2417699277542138 [Eh]
	 Total Energy              =    -459.8152663017265809 [Eh]
	 SCS Total Energy          =    -459.8095022438039905 [Eh]
                               Psi4 1.9 release
    Molecular point group: c1
  Multiplicity = 1
  Basis Set: AUG-CC-PVTZ
    Blend: AUG-CC-PVTZ
  Basis Set: (AUG-CC-PVTZ AUX)
    Blend: AUG-CC-PVTZ-JKFIT
  @DF-RHF Final Energy:   -76.05823084009961
    Total Energy =                        -76.0582308400996254
  Basis Set: (AUG-CC-PVTZ AUX)
	 Singles Energy            =      -0.0000000000000000 [Eh]
	 Same-Spin Energy          =      -0.0687111283281699 [Eh]
	 Opposite-Spin Energy      =      -0.2163934656939996 [Eh]
	 Correlation Energy        =      -0.2851045940221696 [Eh]
	 Total Energy              =     -76.3433354341217836 [Eh]
	 SCS Total Energy          =     -76.3408067083751405 [Eh]
                               Psi4 1.9 release
    Molecular point group: c1

    Geometry (in Bohr), charge = -1, multiplicity = 1:

       Center              X                  Y                   Z               Mass
    ------------   -----------------  -----------------  -----------------  -----------------
         O            0.000000000000     0.000000000000     0.000000000000    15.994914619570
         H            0.166061573001     1.779759182765    -0.287627654651     1.007825032230
         H            0.868693871790    -0.685479254749    -1.504622617803     1.007825032230
         CL           5.802124388752     0.000000000000     0.000000000000    34.968852682000

  Charge       = -1
  Multiplicity = 1
  Basis Set: AUG-CC-PVTZ
    Blend: AUG-CC-PVTZ
  Basis Set: (AUG-CC-PVTZ AUX)
    Blend: AUG-CC-PVTZ-JKFIT

    Orbital Energies [Eh]
    ---------------------

    Doubly Occupied:

       1A   -104.509827     2A    -20.398409     3A    -10.233984
       4A     -7.700041     5A     -7.700024     6A     -7.699964
       7A     -1.177036     8A     -0.740495     9A     -0.532442
      10A     -0.421328    11A     -0.341215    12A     -0.157460
      13A     -0.156824    14A     -0.153578

  @DF-RHF Final Energy:  -535.63141238485321

   => Energetics <=

    Nuclear Repulsion Energy =             38.6342474560137958
    One-Electron Energy =                -824.6860652812844137
    Two-Electron Energy =                 250.4204054404174258
    Total Energy =                       -535.6314123848532063
 Dipole X            :       -104.9306163           99.6708701           -5.2597462
 Dipole Y            :         -0.7524093            1.0942799            0.3418706
 Dipole Z            :          1.2917597           -1.7922503           -0.5004906
 Magnitude           :                                                    5.2945535
  Basis Set: (AUG-CC-PVTZ AUX)
    Blend: AUG-CC-PVTZ-RI
	 Reference Energy          =    -535.6314123848532063 [Eh]
	 Singles Energy            =      -0.0000000000000000 [Eh]
	 Same-Spin Energy          =      -0.1328748293051032 [Eh]
	 Opposite-Spin Energy      =      -0.3972577403280745 [Eh]
	 Correlation Energy        =      -0.5301325696331777 [Eh]
	 Total Energy              =    -536.1615449544864305 [Eh]

	 ================> DF-SCS-MP2 Energies <==================
	-----------------------------------------------------------
	 SCS Same-Spin Scale       =       0.3333333333333333 [-]
	 SCS Opposite-Spin Scale   =       1.2000000000000000 [-]
	 SCS Same-Spin Energy      =      -0.0442916097683677 [Eh]
	 SCS Opposite-Spin Energy  =      -0.4767092883936894 [Eh]
	 SCS Correlation Energy    =      -0.5210008981620572 [Eh]
	 SCS Total Energy          =    -536.1524132830152212 [Eh]
	-----------------------------------------------------------

*** Psi4 exiting successfully. Buy a developer a beer!
