                               Psi4 1.9 release

  ==> Input File <==

--------------------------------------------------------------------------
MEMORY 60 GB

molecule dimer {
0 1
O      0.000000     0.000000     0.000000
H     -0.432114     0.413522     0.748444
H      0.294167     0.794175    -0.509513
--
-1 1
Cl     3.070352     0.000000     0.000000

units ang
no_reorient
no_com
symmetry c1
}

set {
basis        aug-cc-pVTZ
scf_type     df
}

energy("mp2", bsse_type="cp")
--------------------------------------------------------------------------

                               Psi4 1.9 release
    Molecular point group: c1
  Charge       = -1
  Multiplicity = 1
  Basis Set: AUG-CC-PVTZ
    Blend: AUG-CC-PVTZ
  Basis Set: (AUG-CC-PVTZ AUX)
    Blend: AUG-CC-PVTZ-JKFIT
  @DF-RHF Final Energy:  -459.57349444316299
    Total Energy =                       -459.5734944431629856
 Dipole X            :       -104.4380967           98.6361146           -5.8019821
 Dipole Y            :         -0.0001535            0.0000000           -0.0001535
 Dipole Z            :          0.0000340            0.0000000            0.0000340
 Magnitude           :                                                    5.8019821
  Basis Set: (AUG-CC-PVTZ AUX)
    Blend: AUG-CC-PVTZ-RI
	 Reference Energy          =    -459.5734944431629856 [Eh]
	 Singles Energy            =      -0.0000000000000000 [Eh]
	 Same-Spin Energy          =      -0.0624145476599227 [Eh]
	 Opposite-Spin Energy      =      -0.1791952471781665 [Eh]
	 Correlation Energy        =      -0.2416097948380892 [Eh]
	 Total Energy              =    -459.8151042380010836 [Eh]
	 SCS Total Energy          =    -459.8093335889967648 [Eh]
                               Psi4 1.9 release
    Molecular point group: c1
  Multiplicity = 1
  Basis Set: AUG-CC-PVTZ
    Blend: AUG-CC-PVTZ
  Basis Set: (AUG-CC-PVTZ AUX)
    Blend: AUG-CC-PVTZ-JKFIT
  @DF-RHF Final Energy:   -76.05823629155165
    Total Energy =                        -76.0582362915516370
  Basis Set: (AUG-CC-PVTZ AUX)
	 Singles Energy            =      -0.0000000000000000 [Eh]
	 Same-Spin Energy          =      -0.0687138892300651 [Eh]
	 Opposite-Spin Energy      =      -0.2163899334563726 [Eh]
	 Correlation Energy        =      -0.2851038226864376 [Eh]
	 Total Energy              =     -76.3433401142380887 [Eh]
	 SCS Total Energy          =     -76.3408088414426516 [Eh]
                               Psi4 1.9 release
    Molecular point group: c1

    Geometry (in Bohr), charge = -1, multiplicity = 1:

       Center              X                  Y                   Z               Mass
    ------------   -----------------  -----------------  -----------------  -----------------
         O            0.000000000000     0.000000000000     0.000000000000    15.994914619570
         H           -0.816577114976     0.781443326852     1.414354180242     1.007825032230
         H            0.555895065148     1.500773245685    -0.962840027360     1.007825032230
         CL           5.802124388752     0.000000000000     0.000000000000    34.968852682000

  Charge       = -1
  Multiplicity = 1
  Basis Set: AUG-CC-PVTZ
    Blend: AUG-CC-PVTZ
  Basis Set: (AUG-CC-PVTZ AUX)
    Blend: AUG-CC-PVTZ-JKFIT

    Orbital Energies [Eh]
    ---------------------

    Doubly Occupied:

       1A   -104.500399     2A    -20.408470     3A    -10.224465
       4A     -7.690518     5A     -7.690500     6A     -7.690437
       7A     -1.185995     8A     -0.730323     9A     -0.540237
      10A     -0.426424    11A     -0.348264    12A     -0.147520
      13A     -0.146817    14A     -0.143491

  @DF-RHF Final Energy:  -535.62192568680996

   => Energetics <=

    Nuclear Repulsion Energy =             38.0573420399382343
    One-Electron Energy =                -823.6108158681050782
    Two-Electron Energy =                 249.9315481413568421
    Total Energy =                       -535.6219256868099592
 Dipole X            :       -104.1614950           98.3754326           -5.7860624
 Dipole Y            :         -1.6070749            2.2822166            0.6751417
 Dipole Z            :         -0.2735501            0.4515142            0.1779640
 Magnitude           :                                                    5.8280362
  Basis Set: (AUG-CC-PVTZ AUX)
    Blend: AUG-CC-PVTZ-RI
	 Reference Energy          =    -535.6219256868099592 [Eh]
	 Singles Energy            =      -0.0000000000000000 [Eh]
	 Same-Spin Energy          =      -0.1328495013426590 [Eh]
	 Opposite-Spin Energy      =      -0.3975558624940631 [Eh]
	 Correlation Energy        =      -0.5304053638367221 [Eh]
	 Total Energy              =    -536.1523310506466942 [Eh]

	 ================> DF-SCS-MP2 Energies <==================
	-----------------------------------------------------------
	 SCS Same-Spin Scale       =       0.3333333333333333 [-]
	 SCS Opposite-Spin Scale   =       1.2000000000000000 [-]
	 SCS Same-Spin Energy      =      -0.0442831671142197 [Eh]
	 SCS Opposite-Spin Energy  =      -0.4770670349928756 [Eh]
	 SCS Correlation Energy    =      -0.5213502021070953 [Eh]
	 SCS Total Energy          =    -536.1432758889170600 [Eh]
	-----------------------------------------------------------

*** Psi4 exiting successfully. Buy a developer a beer!
