                               Psi4 1.9 release

  ==> Input File <==

--------------------------------------------------------------------------
MEMORY 60 GB

molecule dimer {
0 1
O      0.000000     0.000000     0.000000
H     -0.036997     0.955205     0.064081
H      0.490972    -0.112425    -0.850388
--
-1 1
Cl     3.070352     0.000000     0.000000

units ang
no_reorient
no_com
symmetry c1
}

set {
basis        aug-cc-pVTZ
scf_type     df
}

energy("mp2", bsse_type="cp")
--------------------------------------------------------------------------

                               Psi4 1.9 release
    Molecular point group: c1
  Charge       = -1
  Multiplicity = 1
  Basis Set: AUG-CC-PVTZ
    Blend: AUG-CC-PVTZ
  Basis Set: (AUG-CC-PVTZ AUX)
    Blend: AUG-CC-PVTZ-JKFIT
  @DF-RHF Final Energy:  -459.57349579262194
    Total Energy =                       -459.5734957926218840
 Dipole X            :       -104.4381693           98.6361146           -5.8020547
 Dipole Y            :         -0.0000135            0.0000000           -0.0000135
 Dipole Z            :          0.0002177            0.0000000            0.0002177
 Magnitude           :                                                    5.8020547
  Basis Set: (AUG-CC-PVTZ AUX)
    Blend: AUG-CC-PVTZ-RI
	 Reference Energy          =    -459.5734957926219408 [Eh]
	 Singles Energy            =      -0.0000000000000000 [Eh]
	 Same-Spin Energy          =      -0.0624418691461461 [Eh]
	 Opposite-Spin Energy      =      -0.1793232229753137 [Eh]
	 Correlation Energy        =      -0.2417650921214597 [Eh]
	 Total Energy              =    -459.8152608847433953 [Eh]
	 SCS Total Energy          =    -459.8094976165743901 [Eh]
                               Psi4 1.9 release
    Molecular point group: c1
  Multiplicity = 1
  Basis Set: AUG-CC-PVTZ
    Blend: AUG-CC-PVTZ
  Basis Set: (AUG-CC-PVTZ AUX)
    Blend: AUG-CC-PVTZ-JKFIT
  @DF-RHF Final Energy:   -76.05823302579824
    Total Energy =                        -76.0582330257982591
  Basis Set: (AUG-CC-PVTZ AUX)
	 Singles Energy            =      -0.0000000000000000 [Eh]
	 Same-Spin Energy          =      -0.0687116797554942 [Eh]
	 Opposite-Spin Energy      =      -0.2164025817931540 [Eh]
	 Correlation Energy        =      -0.2851142615486482 [Eh]
	 Total Energy              =     -76.3433472873468872 [Eh]
	 SCS Total Energy          =     -76.3408200172018638 [Eh]
                               Psi4 1.9 release
    Molecular point group: c1

    Geometry (in Bohr), charge = -1, multiplicity = 1:

       Center              X                  Y                   Z               Mass
    ------------   -----------------  -----------------  -----------------  -----------------
         O            0.000000000000     0.000000000000     0.000000000000    15.994914619570
         H           -0.069914197464     1.805075843668     0.121095539845     1.007825032230
         H            0.927802615268    -0.212452459655    -1.607000420376     1.007825032230
         CL           5.802124388752     0.000000000000     0.000000000000    34.968852682000

  Charge       = -1
  Multiplicity = 1
  Basis Set: AUG-CC-PVTZ
    Blend: AUG-CC-PVTZ
  Basis Set: (AUG-CC-PVTZ AUX)
    Blend: AUG-CC-PVTZ-JKFIT

    Orbital Energies [Eh]
    ---------------------

    Doubly Occupied:

       1A   -104.508984     2A    -20.399278     3A    -10.233137
       4A     -7.699196     5A     -7.699174     6A     -7.699116
       7A     -1.177904     8A     -0.739645     9A     -0.533070
      10A     -0.421676    11A     -0.341794    12A     -0.156702
      13A     -0.155860    14A     -0.152677

  @DF-RHF Final Energy:  -535.63048716694959

   => Energetics <=

    Nuclear Repulsion Energy =             38.5702888042975545
    One-Electron Energy =                -824.5651256183127771
    Two-Electron Energy =                 250.3643496470656089
    Total Energy =                       -535.6304871669495924
 Dipole X            :       -104.8167696           99.4940030           -5.3227666
 Dipole Y            :         -1.1023122            1.5926234            0.4903112
 Dipole Z            :          1.0838126           -1.4859049           -0.4020923
 Magnitude           :                                                    5.3604036
  Basis Set: (AUG-CC-PVTZ AUX)
    Blend: AUG-CC-PVTZ-RI
	 Reference Energy          =    -535.6304871669495924 [Eh]
	 Singles Energy            =      -0.0000000000000000 [Eh]
	 Same-Spin Energy          =      -0.1329149139541740 [Eh]
	 Opposite-Spin Energy      =      -0.3973492500651161 [Eh]
	 Correlation Energy        =      -0.5302641640192900 [Eh]
	 Total Energy              =    -536.1607513309688784 [Eh]

	 ================> DF-SCS-MP2 Energies <==================
	-----------------------------------------------------------
	 SCS Same-Spin Scale       =       0.3333333333333333 [-]
	 SCS Opposite-Spin Scale   =       1.2000000000000000 [-]
	 SCS Same-Spin Energy      =      -0.0443049713180580 [Eh]
	 SCS Opposite-Spin Energy  =      -0.4768191000781393 [Eh]
	 SCS Correlation Energy    =      -0.5211240713961973 [Eh]
	 SCS Total Energy          =    -536.1516112383458221 [Eh]
	-----------------------------------------------------------

*** Psi4 exiting successfully. Buy a developer a beer!
