                               Psi4 1.9 release

  ==> Input File <==

--------------------------------------------------------------------------
MEMORY 60 GB

molecule dimer {
0 1
O      0.000000     0.000000     0.000000
H     -0.270842     0.790235     0.469111
H      0.453300     0.393609    -0.785139
--
-1 1
Cl     3.070352     0.000000     0.000000

units ang
no_reorient
no_com
symmetry c1
}

set {
basis        aug-cc-pVTZ
scf_type     df
}

energy("mp2", bsse_type="cp")
--------------------------------------------------------------------------

                               Psi4 1.9 release
    Molecular point group: c1
  Charge       = -1
  Multiplicity = 1
  Basis Set: AUG-CC-PVTZ
    Blend: AUG-CC-PVTZ
  Basis Set: (AUG-CC-PVTZ AUX)
    Blend: AUG-CC-PVTZ-JKFIT
  @DF-RHF Final Energy:  -459.57349484201887
    Total Energy =                       -459.5734948420188175
 Dipole X            :       -104.4381153           98.6361146           -5.8020007
 Dipole Y            :         -0.0001609            0.0000000           -0.0001609
 Dipole Z            :          0.0001837            0.0000000            0.0001837
 Magnitude           :                                                    5.8020007
  Basis Set: (AUG-CC-PVTZ AUX)
    Blend: AUG-CC-PVTZ-RI
	 Reference Energy          =    -459.5734948420188744 [Eh]
	 Singles Energy            =      -0.0000000000000000 [Eh]
	 Same-Spin Energy          =      -0.0624315256324241 [Eh]
	 Opposite-Spin Energy      =      -0.1792768622267628 [Eh]
	 Correlation Energy        =      -0.2417083878591869 [Eh]
	 Total Energy              =    -459.8152032298780796 [Eh]
	 SCS Total Energy          =    -459.8094375852351163 [Eh]
                               Psi4 1.9 release
    Molecular point group: c1
  Multiplicity = 1
  Basis Set: AUG-CC-PVTZ
    Blend: AUG-CC-PVTZ
  Basis Set: (AUG-CC-PVTZ AUX)
    Blend: AUG-CC-PVTZ-JKFIT
  @DF-RHF Final Energy:   -76.05823549169318
    Total Energy =                        -76.0582354916931962
  Basis Set: (AUG-CC-PVTZ AUX)
	 Singles Energy            =      -0.0000000000000000 [Eh]
	 Same-Spin Energy          =      -0.0687130654505831 [Eh]
	 Opposite-Spin Energy      =      -0.2164053451719409 [Eh]
	 Correlation Energy        =      -0.2851184106225240 [Eh]
	 Total Energy              =     -76.3433539023157124 [Eh]
	 SCS Total Energy          =     -76.3408262610496990 [Eh]
                               Psi4 1.9 release
    Molecular point group: c1

    Geometry (in Bohr), charge = -1, multiplicity = 1:

       Center              X                  Y                   Z               Mass
    ------------   -----------------  -----------------  -----------------  -----------------
         O            0.000000000000     0.000000000000     0.000000000000    15.994914619570
         H           -0.511817203271     1.493327724751     0.886491312440     1.007825032230
         H            0.856612852670     0.743813210515    -1.483697680416     1.007825032230
         CL           5.802124388752     0.000000000000     0.000000000000    34.968852682000

  Charge       = -1
  Multiplicity = 1
  Basis Set: AUG-CC-PVTZ
    Blend: AUG-CC-PVTZ
  Basis Set: (AUG-CC-PVTZ AUX)
    Blend: AUG-CC-PVTZ-JKFIT

    Orbital Energies [Eh]
    ---------------------

    Doubly Occupied:

       1A   -104.505484     2A    -20.403121     3A    -10.229602
       4A     -7.695660     5A     -7.695636     6A     -7.695578
       7A     -1.181334     8A     -0.735880     9A     -0.535932
      10A     -0.423587    11A     -0.344462    12A     -0.153058
      13A     -0.152118    14A     -0.148960

  @DF-RHF Final Energy:  -535.62696929870413

   => Energetics <=

    Nuclear Repulsion Energy =             38.3489755882532677
    One-Electron Energy =                -824.1510707471350088
    Two-Electron Energy =                 250.1751258601775305
    Total Energy =                       -535.6269692987041253
 Dipole X            :       -104.5083885           98.9809103           -5.5274782
 Dipole Y            :         -1.5650558            2.2371409            0.6720852
 Dipole Z            :          0.4670743           -0.5972064           -0.1301321
 Magnitude           :                                                    5.5697081
  Basis Set: (AUG-CC-PVTZ AUX)
    Blend: AUG-CC-PVTZ-RI
	 Reference Energy          =    -535.6269692987041253 [Eh]
	 Singles Energy            =      -0.0000000000000000 [Eh]
	 Same-Spin Energy          =      -0.1329231565145719 [Eh]
	 Opposite-Spin Energy      =      -0.3974914489290053 [Eh]
	 Correlation Energy        =      -0.5304146054435772 [Eh]
	 Total Energy              =    -536.1573839041476504 [Eh]

	 ================> DF-SCS-MP2 Energies <==================
	-----------------------------------------------------------
	 SCS Same-Spin Scale       =       0.3333333333333333 [-]
	 SCS Opposite-Spin Scale   =       1.2000000000000000 [-]
	 SCS Same-Spin Energy      =      -0.0443077188381906 [Eh]
	 SCS Opposite-Spin Energy  =      -0.4769897387148063 [Eh]
	 SCS Correlation Energy    =      -0.5212974575529969 [Eh]
	 SCS Total Energy          =    -536.1482667562571578 [Eh]
	-----------------------------------------------------------

*** Psi4 exiting successfully. Buy a developer a beer!
