                               Psi4 1.9 release

  ==> Input File <==

--------------------------------------------------------------------------
MEMORY 60 GB

molecule dimer {
0 1
O      0.000000     0.000000     0.000000
H      0.206761     0.864229    -0.358120
H      0.397088    -0.588334    -0.687776
--
-1 1
Cl     3.070352     0.000000     0.000000

units ang
no_reorient
no_com
symmetry c1
}

set {
basis        aug-cc-pVTZ
scf_type     df
}

energy("mp2", bsse_type="cp")
--------------------------------------------------------------------------

                               Psi4 1.9 release
    Molecular point group: c1
  Charge       = -1
  Multiplicity = 1
  Basis Set: AUG-CC-PVTZ
    Blend: AUG-CC-PVTZ
  Basis Set: (AUG-CC-PVTZ AUX)
    Blend: AUG-CC-PVTZ-JKFIT
  @DF-RHF Final Energy:  -459.57349670356302
    Total Energy =                       -459.5734967035630234
 Dipole X            :       -104.4381292           98.6361146           -5.8020145
 Dipole Y            :          0.0000236            0.0000000            0.0000236
 Dipole Z            :          0.0001227            0.0000000            0.0001227
 Magnitude           :                                                    5.8020145
  Basis Set: (AUG-CC-PVTZ AUX)
    Blend: AUG-CC-PVTZ-RI
	 Reference Energy          =    -459.5734967035630234 [Eh]
	 Singles Energy            =      -0.0000000000000000 [Eh]
	 Same-Spin Energy          =      -0.0624444909673455 [Eh]
	 Opposite-Spin Energy      =      -0.1793219547855066 [Eh]
	 Correlation Energy        =      -0.2417664457528521 [Eh]
	 Total Energy              =    -459.8152631493158538 [Eh]
	 SCS Total Energy          =    -459.8094978796280543 [Eh]
                               Psi4 1.9 release
    Molecular point group: c1
  Multiplicity = 1
  Basis Set: AUG-CC-PVTZ
    Blend: AUG-CC-PVTZ
  Basis Set: (AUG-CC-PVTZ AUX)
    Blend: AUG-CC-PVTZ-JKFIT
  @DF-RHF Final Energy:   -76.05822879226757
    Total Energy =                        -76.0582287922675704
  Basis Set: (AUG-CC-PVTZ AUX)
	 Singles Energy            =      -0.0000000000000000 [Eh]
	 Same-Spin Energy          =      -0.0687108049473482 [Eh]
	 Opposite-Spin Energy      =      -0.2163849991292488 [Eh]
	 Correlation Energy        =      -0.2850958040765970 [Eh]
	 Total Energy              =     -76.3433245963441607 [Eh]
	 SCS Total Energy          =     -76.3407943928717856 [Eh]
                               Psi4 1.9 release
    Molecular point group: c1

    Geometry (in Bohr), charge = -1, multiplicity = 1:

       Center              X                  Y                   Z               Mass
    ------------   -----------------  -----------------  -----------------  -----------------
         O            0.000000000000     0.000000000000     0.000000000000    15.994914619570
         H            0.390721663426     1.633156119678    -0.676748720049     1.007825032230
         H            0.750387567706    -1.111790130295    -1.299708275663     1.007825032230
         CL           5.802124388752     0.000000000000     0.000000000000    34.968852682000

  Charge       = -1
  Multiplicity = 1
  Basis Set: AUG-CC-PVTZ
    Blend: AUG-CC-PVTZ
  Basis Set: (AUG-CC-PVTZ AUX)
    Blend: AUG-CC-PVTZ-JKFIT

    Orbital Energies [Eh]
    ---------------------

    Doubly Occupied:

       1A   -104.510190     2A    -20.398114     3A    -10.234346
       4A     -7.700401     5A     -7.700388     6A     -7.700327
       7A     -1.176655     8A     -0.740827     9A     -0.532231
      10A     -0.421268    11A     -0.341035    12A     -0.157682
      13A     -0.157312    14A     -0.153978

  @DF-RHF Final Energy:  -535.63186818979204

   => Energetics <=

    Nuclear Repulsion Energy =             38.6677428698454477
    One-Electron Energy =                -824.7497137201834221
    Two-Electron Energy =                 250.4501026605459231
    Total Energy =                       -535.6318681897920442
 Dipole X            :       -105.0021224           99.7772238           -5.2248986
 Dipole Y            :         -0.3548609            0.5213660            0.1665051
 Dipole Z            :          1.4148826           -1.9764570           -0.5615744
 Magnitude           :                                                    5.2576283
  Basis Set: (AUG-CC-PVTZ AUX)
    Blend: AUG-CC-PVTZ-RI
	 Reference Energy          =    -535.6318681897920442 [Eh]
	 Singles Energy            =      -0.0000000000000000 [Eh]
	 Same-Spin Energy          =      -0.1328329161943836 [Eh]
	 Opposite-Spin Energy      =      -0.3971846652432270 [Eh]
	 Correlation Energy        =      -0.5300175814376107 [Eh]
	 Total Energy              =    -536.1618857712296631 [Eh]

	 ================> DF-SCS-MP2 Energies <==================
	-----------------------------------------------------------
	 SCS Same-Spin Scale       =       0.3333333333333333 [-]
	 SCS Opposite-Spin Scale   =       1.2000000000000000 [-]
	 SCS Same-Spin Energy      =      -0.0442776387314612 [Eh]
	 SCS Opposite-Spin Energy  =      -0.4766215982918725 [Eh]
	 SCS Correlation Energy    =      -0.5208992370233336 [Eh]
	 SCS Total Energy          =    -536.1527674268153305 [Eh]
	-----------------------------------------------------------

*** Psi4 exiting successfully. Buy a developer a beer!
