                               Psi4 1.9 release

  ==> Input File <==

--------------------------------------------------------------------------
MEMORY 60 GB

molecule dimer {
0 1
O      0.000000     0.000000     0.000000
H      0.395117     0.541683    -0.684363
H      0.196804    -0.906600    -0.340875
--
-1 1
Cl     3.070352     0.000000     0.000000

units ang
no_reorient
no_com
symmetry c1
}

set {
basis        aug-cc-pVTZ
scf_type     df
}

energy("mp2", bsse_type="cp")
--------------------------------------------------------------------------

                               Psi4 1.9 release
    Molecular point group: c1
  Charge       = -1
  Multiplicity = 1
  Basis Set: AUG-CC-PVTZ
    Blend: AUG-CC-PVTZ
  Basis Set: (AUG-CC-PVTZ AUX)
    Blend: AUG-CC-PVTZ-JKFIT
  @DF-RHF Final Energy:  -459.57349666145512
    Total Energy =                       -459.5734966614551240
 Dipole X            :       -104.4381392           98.6361146           -5.8020245
 Dipole Y            :         -0.0000226            0.0000000           -0.0000226
 Dipole Z            :          0.0001269            0.0000000            0.0001269
 Magnitude           :                                                    5.8020245
  Basis Set: (AUG-CC-PVTZ AUX)
    Blend: AUG-CC-PVTZ-RI
	 Reference Energy          =    -459.5734966614551240 [Eh]
	 Singles Energy            =      -0.0000000000000000 [Eh]
	 Same-Spin Energy          =      -0.0624441786710761 [Eh]
	 Opposite-Spin Energy      =      -0.1793215211906917 [Eh]
	 Correlation Energy        =      -0.2417656998617678 [Eh]
	 Total Energy              =    -459.8152623613169112 [Eh]
	 SCS Total Energy          =    -459.8094972131076474 [Eh]
                               Psi4 1.9 release
    Molecular point group: c1
  Multiplicity = 1
  Basis Set: AUG-CC-PVTZ
    Blend: AUG-CC-PVTZ
  Basis Set: (AUG-CC-PVTZ AUX)
    Blend: AUG-CC-PVTZ-JKFIT
  @DF-RHF Final Energy:   -76.05822872375889
    Total Energy =                        -76.0582287237588730
  Basis Set: (AUG-CC-PVTZ AUX)
	 Singles Energy            =      -0.0000000000000000 [Eh]
	 Same-Spin Energy          =      -0.0687108512407784 [Eh]
	 Opposite-Spin Energy      =      -0.2163880008989435 [Eh]
	 Correlation Energy        =      -0.2850988521397219 [Eh]
	 Total Energy              =     -76.3433275758986127 [Eh]
	 SCS Total Energy          =     -76.3407979419178844 [Eh]
                               Psi4 1.9 release
    Molecular point group: c1

    Geometry (in Bohr), charge = -1, multiplicity = 1:

       Center              X                  Y                   Z               Mass
    ------------   -----------------  -----------------  -----------------  -----------------
         O            0.000000000000     0.000000000000     0.000000000000    15.994914619570
         H            0.746662917513     1.023632516816    -1.293258640397     1.007825032230
         H            0.371905660395    -1.713225705340    -0.644160393015     1.007825032230
         CL           5.802124388752     0.000000000000     0.000000000000    34.968852682000

  Charge       = -1
  Multiplicity = 1
  Basis Set: AUG-CC-PVTZ
    Blend: AUG-CC-PVTZ
  Basis Set: (AUG-CC-PVTZ AUX)
    Blend: AUG-CC-PVTZ-JKFIT

    Orbital Energies [Eh]
    ---------------------

    Doubly Occupied:

       1A   -104.510035     2A    -20.398516     3A    -10.234190
       4A     -7.700245     5A     -7.700233     6A     -7.700172
       7A     -1.176870     8A     -0.740662     9A     -0.532530
      10A     -0.421498    11A     -0.341323    12A     -0.157539
      13A     -0.157145    14A     -0.153852

  @DF-RHF Final Energy:  -535.63176310108724

   => Energetics <=

    Nuclear Repulsion Energy =             38.6575978354276231
    One-Electron Energy =                -824.7291057476311380
    Two-Electron Energy =                 250.4397448111162987
    Total Energy =                       -535.6317631010872446
 Dipole X            :       -104.9881156           99.7546832           -5.2334324
 Dipole Y            :          0.4802416           -0.6895932           -0.2093515
 Dipole Z            :          1.3865931           -1.9374190           -0.5508259
 Magnitude           :                                                    5.2665028
  Basis Set: (AUG-CC-PVTZ AUX)
    Blend: AUG-CC-PVTZ-RI
	 Reference Energy          =    -535.6317631010872446 [Eh]
	 Singles Energy            =      -0.0000000000000000 [Eh]
	 Same-Spin Energy          =      -0.1328155204489929 [Eh]
	 Opposite-Spin Energy      =      -0.3971876262300704 [Eh]
	 Correlation Energy        =      -0.5300031466790633 [Eh]
	 Total Energy              =    -536.1617662477663089 [Eh]

	 ================> DF-SCS-MP2 Energies <==================
	-----------------------------------------------------------
	 SCS Same-Spin Scale       =       0.3333333333333333 [-]
	 SCS Opposite-Spin Scale   =       1.2000000000000000 [-]
	 SCS Same-Spin Energy      =      -0.0442718401496643 [Eh]
	 SCS Opposite-Spin Energy  =      -0.4766251514760845 [Eh]
	 SCS Correlation Energy    =      -0.5208969916257488 [Eh]
	 SCS Total Energy          =    -536.1526600927129493 [Eh]
	-----------------------------------------------------------

*** Psi4 exiting successfully. Buy a developer a beer!
