                               Psi4 1.9 release

  ==> Input File <==

--------------------------------------------------------------------------
MEMORY 60 GB

molecule dimer {
0 1
O      0.000000     0.000000     0.000000
H     -0.159349     0.903506     0.276001
H      0.488791     0.145551    -0.846611
--
-1 1
Cl     3.070352     0.000000     0.000000

units ang
no_reorient
no_com
symmetry c1
}

set {
basis        aug-cc-pVTZ
scf_type     df
}

energy("mp2", bsse_type="cp")
--------------------------------------------------------------------------

                               Psi4 1.9 release
    Molecular point group: c1
  Charge       = -1
  Multiplicity = 1
  Basis Set: AUG-CC-PVTZ
    Blend: AUG-CC-PVTZ
  Basis Set: (AUG-CC-PVTZ AUX)
    Blend: AUG-CC-PVTZ-JKFIT
  @DF-RHF Final Energy:  -459.57349522872539
    Total Energy =                       -459.5734952287253918
 Dipole X            :       -104.4381481           98.6361146           -5.8020335
 Dipole Y            :         -0.0000914            0.0000000           -0.0000914
 Dipole Z            :          0.0002270            0.0000000            0.0002270
 Magnitude           :                                                    5.8020335
  Basis Set: (AUG-CC-PVTZ AUX)
    Blend: AUG-CC-PVTZ-RI
	 Reference Energy          =    -459.5734952287253918 [Eh]
	 Singles Energy            =      -0.0000000000000000 [Eh]
	 Same-Spin Energy          =      -0.0624377957877512 [Eh]
	 Opposite-Spin Energy      =      -0.1793071281902662 [Eh]
	 Correlation Energy        =      -0.2417449239780174 [Eh]
	 Total Energy              =    -459.8152401527033817 [Eh]
	 SCS Total Energy          =    -459.8094763811496364 [Eh]
                               Psi4 1.9 release
    Molecular point group: c1
  Multiplicity = 1
  Basis Set: AUG-CC-PVTZ
    Blend: AUG-CC-PVTZ
  Basis Set: (AUG-CC-PVTZ AUX)
    Blend: AUG-CC-PVTZ-JKFIT
  @DF-RHF Final Energy:   -76.05823472926750
    Total Energy =                        -76.0582347292674825
  Basis Set: (AUG-CC-PVTZ AUX)
	 Singles Energy            =      -0.0000000000000000 [Eh]
	 Same-Spin Energy          =      -0.0687123692506887 [Eh]
	 Opposite-Spin Energy      =      -0.2164072657672870 [Eh]
	 Correlation Energy        =      -0.2851196350179757 [Eh]
	 Total Energy              =     -76.3433543642854744 [Eh]
	 SCS Total Energy          =     -76.3408275712718023 [Eh]
                               Psi4 1.9 release
    Molecular point group: c1

    Geometry (in Bohr), charge = -1, multiplicity = 1:

       Center              X                  Y                   Z               Mass
    ------------   -----------------  -----------------  -----------------  -----------------
         O            0.000000000000     0.000000000000     0.000000000000    15.994914619570
         H           -0.301125968366     1.707378892708     0.521566300352     1.007825032230
         H            0.923681122589     0.275051527287    -1.599862924800     1.007825032230
         CL           5.802124388752     0.000000000000     0.000000000000    34.968852682000

  Charge       = -1
  Multiplicity = 1
  Basis Set: AUG-CC-PVTZ
    Blend: AUG-CC-PVTZ
  Basis Set: (AUG-CC-PVTZ AUX)
    Blend: AUG-CC-PVTZ-JKFIT

    Orbital Energies [Eh]
    ---------------------

    Doubly Occupied:

       1A   -104.507532     2A    -20.400867     3A    -10.231672
       4A     -7.697732     5A     -7.697707     6A     -7.697649
       7A     -1.179354     8A     -0.738104     9A     -0.534236
      10A     -0.422432    11A     -0.342886    12A     -0.155234
      13A     -0.154287    14A     -0.151137

  @DF-RHF Final Energy:  -535.62900136203507

   => Energetics <=

    Nuclear Repulsion Energy =             38.4739315010104050
    One-Electron Energy =                -824.3842073157021559
    Two-Electron Energy =                 250.2812744526567030
    Total Energy =                       -535.6290013620350692
 Dipole X            :       -104.6722518           99.2586698           -5.4135820
 Dipole Y            :         -1.3801327            1.9824304            0.6022978
 Dipole Z            :          0.8029045           -1.0782966           -0.2753921
 Magnitude           :                                                    5.4539411
  Basis Set: (AUG-CC-PVTZ AUX)
    Blend: AUG-CC-PVTZ-RI
	 Reference Energy          =    -535.6290013620350692 [Eh]
	 Singles Energy            =      -0.0000000000000000 [Eh]
	 Same-Spin Energy          =      -0.1329335385620604 [Eh]
	 Opposite-Spin Energy      =      -0.3974320082736694 [Eh]
	 Correlation Energy        =      -0.5303655468357298 [Eh]
	 Total Energy              =    -536.1593669088707657 [Eh]

	 ================> DF-SCS-MP2 Energies <==================
	-----------------------------------------------------------
	 SCS Same-Spin Scale       =       0.3333333333333333 [-]
	 SCS Opposite-Spin Scale   =       1.2000000000000000 [-]
	 SCS Same-Spin Energy      =      -0.0443111795206868 [Eh]
	 SCS Opposite-Spin Energy  =      -0.4769184099284033 [Eh]
	 SCS Correlation Energy    =      -0.5212295894490900 [Eh]
	 SCS Total Energy          =    -536.1502309514841045 [Eh]
	-----------------------------------------------------------

*** Psi4 exiting successfully. Buy a developer a beer!
