                               Psi4 1.9 release

  ==> Input File <==

--------------------------------------------------------------------------
MEMORY 60 GB

molecule dimer {
0 1
O      0.000000     0.000000     0.000000
H     -0.363877     0.623110     0.630253
H      0.386918     0.614842    -0.670161
--
-1 1
Cl     3.070352     0.000000     0.000000

units ang
no_reorient
no_com
symmetry c1
}

set {
basis        aug-cc-pVTZ
scf_type     df
}

energy("mp2", bsse_type="cp")
--------------------------------------------------------------------------

                               Psi4 1.9 release
    Molecular point group: c1
  Charge       = -1
  Multiplicity = 1
  Basis Set: AUG-CC-PVTZ
    Blend: AUG-CC-PVTZ
  Basis Set: (AUG-CC-PVTZ AUX)
    Blend: AUG-CC-PVTZ-JKFIT
  @DF-RHF Final Energy:  -459.57349460647060
    Total Energy =                       -459.5734946064706037
 Dipole X            :       -104.4380940           98.6361146           -5.8019794
 Dipole Y            :         -0.0001822            0.0000000           -0.0001822
 Dipole Z            :          0.0001093            0.0000000            0.0001093
 Magnitude           :                                                    5.8019794
  Basis Set: (AUG-CC-PVTZ AUX)
    Blend: AUG-CC-PVTZ-RI
	 Reference Energy          =    -459.5734946064706037 [Eh]
	 Singles Energy            =      -0.0000000000000000 [Eh]
	 Same-Spin Energy          =      -0.0624235027057387 [Eh]
	 Opposite-Spin Energy      =      -0.1792372237977445 [Eh]
	 Correlation Energy        =      -0.2416607265034832 [Eh]
	 Total Energy              =    -459.8151553329740864 [Eh]
	 SCS Total Energy          =    -459.8093871092631275 [Eh]
                               Psi4 1.9 release
    Molecular point group: c1
  Multiplicity = 1
  Basis Set: AUG-CC-PVTZ
    Blend: AUG-CC-PVTZ
  Basis Set: (AUG-CC-PVTZ AUX)
    Blend: AUG-CC-PVTZ-JKFIT
  @DF-RHF Final Energy:   -76.05823578629655
    Total Energy =                        -76.0582357862965495
  Basis Set: (AUG-CC-PVTZ AUX)
	 Singles Energy            =      -0.0000000000000000 [Eh]
	 Same-Spin Energy          =      -0.0687135711589028 [Eh]
	 Opposite-Spin Energy      =      -0.2163981858345107 [Eh]
	 Correlation Energy        =      -0.2851117569934135 [Eh]
	 Total Energy              =     -76.3433475432899655 [Eh]
	 SCS Total Energy          =     -76.3408181330175921 [Eh]
                               Psi4 1.9 release
    Molecular point group: c1

    Geometry (in Bohr), charge = -1, multiplicity = 1:

       Center              X                  Y                   Z               Mass
    ------------   -----------------  -----------------  -----------------  -----------------
         O            0.000000000000     0.000000000000     0.000000000000    15.994914619570
         H           -0.687627873353     1.177507246034     1.191005559748     1.007825032230
         H            0.731169053010     1.161882990429    -1.266420749963     1.007825032230
         CL           5.802124388752     0.000000000000     0.000000000000    34.968852682000

  Charge       = -1
  Multiplicity = 1
  Basis Set: AUG-CC-PVTZ
    Blend: AUG-CC-PVTZ
  Basis Set: (AUG-CC-PVTZ AUX)
    Blend: AUG-CC-PVTZ-JKFIT

    Orbital Energies [Eh]
    ---------------------

    Doubly Occupied:

       1A   -104.503016     2A    -20.405773     3A    -10.227107
       4A     -7.693163     5A     -7.693142     6A     -7.693081
       7A     -1.183638     8A     -0.733180     9A     -0.538009
      10A     -0.424989    11A     -0.346338    12A     -0.150379
      13A     -0.149534    14A     -0.146318

  @DF-RHF Final Energy:  -535.62453429724223

   => Energetics <=

    Nuclear Repulsion Energy =             38.2055277051373210
    One-Electron Energy =                -823.8847904341054118
    Two-Electron Energy =                 250.0547284317258345
    Total Energy =                       -535.6245342972422350
 Dipole X            :       -104.3350539           98.6796558           -5.6553981
 Dipole Y            :         -1.6427144            2.3393902            0.6966758
 Dipole Z            :          0.0995567           -0.0754152            0.0241415
 Magnitude           :                                                    5.6981987
  Basis Set: (AUG-CC-PVTZ AUX)
    Blend: AUG-CC-PVTZ-RI
	 Reference Energy          =    -535.6245342972422350 [Eh]
	 Singles Energy            =      -0.0000000000000000 [Eh]
	 Same-Spin Energy          =      -0.1328903739319144 [Eh]
	 Opposite-Spin Energy      =      -0.3975289543192820 [Eh]
	 Correlation Energy        =      -0.5304193282511964 [Eh]
	 Total Energy              =    -536.1549536254934765 [Eh]

	 ================> DF-SCS-MP2 Energies <==================
	-----------------------------------------------------------
	 SCS Same-Spin Scale       =       0.3333333333333333 [-]
	 SCS Opposite-Spin Scale   =       1.2000000000000000 [-]
	 SCS Same-Spin Energy      =      -0.0442967913106381 [Eh]
	 SCS Opposite-Spin Energy  =      -0.4770347451831384 [Eh]
	 SCS Correlation Energy    =      -0.5213315364937766 [Eh]
	 SCS Total Energy          =    -536.1458658337360248 [Eh]
	-----------------------------------------------------------

*** Psi4 exiting successfully. Buy a developer a beer!
