                               Psi4 1.9 release

  ==> Input File <==

--------------------------------------------------------------------------
MEMORY 60 GB

molecule dimer {
0 1
O      0.000000     0.000000     0.000000
H      0.394172     0.544891    -0.682727
H      0.197122    -0.902246    -0.341425
--
-1 1
Br     3.212066     0.000000     0.000000

units ang
no_reorient
no_com
symmetry c1
}

set {
basis        aug-cc-pVTZ
scf_type     df
}

energy("mp2", bsse_type="cp")
--------------------------------------------------------------------------

                               Psi4 1.9 release
    Molecular point group: c1
  Charge       = -1
  Multiplicity = 1
  Basis Set: AUG-CC-PVTZ
    Blend: AUG-CC-PVTZ
  Basis Set: (AUG-CC-PVTZ AUX)
    Blend: AUG-CC-PVTZ-JKFIT
  @DF-RHF Final Energy: -2572.53367568075328
    Total Energy =                      -2572.5336756807537313
 Dipole X            :       -218.5172565          212.4473763           -6.0698802
 Dipole Y            :          0.0000307            0.0000000            0.0000307
 Dipole Z            :          0.0000158            0.0000000            0.0000158
 Magnitude           :                                                    6.0698802
  Basis Set: (AUG-CC-PVTZ AUX)
    Blend: AUG-CC-PVTZ-RI
	 Reference Energy          =   -2572.5336756807532765 [Eh]
	 Singles Energy            =      -0.0000000000000000 [Eh]
	 Same-Spin Energy          =      -0.0872440420014331 [Eh]
	 Opposite-Spin Energy      =      -0.2023757809715233 [Eh]
	 Correlation Energy        =      -0.2896198229729564 [Eh]
	 Total Energy              =   -2572.8232955037260581 [Eh]
	 SCS Total Energy          =   -2572.8056079652528751 [Eh]
                               Psi4 1.9 release
    Molecular point group: c1
  Multiplicity = 1
  Basis Set: AUG-CC-PVTZ
    Blend: AUG-CC-PVTZ
  Basis Set: (AUG-CC-PVTZ AUX)
    Blend: AUG-CC-PVTZ-JKFIT
  @DF-RHF Final Energy:   -76.05854272721706
    Total Energy =                        -76.0585427272170591
  Basis Set: (AUG-CC-PVTZ AUX)
	 Singles Energy            =      -0.0000000000000000 [Eh]
	 Same-Spin Energy          =      -0.0686779103450737 [Eh]
	 Opposite-Spin Energy      =      -0.2162847259255710 [Eh]
	 Correlation Energy        =      -0.2849626362706448 [Eh]
	 Total Energy              =     -76.3435053634877079 [Eh]
	 SCS Total Energy          =     -76.3409770351094323 [Eh]
                               Psi4 1.9 release
    Molecular point group: c1

    Geometry (in Bohr), charge = -1, multiplicity = 1:

       Center              X                  Y                   Z               Mass
    ------------   -----------------  -----------------  -----------------  -----------------
         O            0.000000000000     0.000000000000     0.000000000000    15.994914619570
         H            0.744877126324     1.029694758227    -1.290167048455     1.007825032230
         H            0.372506593302    -1.704997837790    -0.645199742384     1.007825032230
         BR           6.069925036895     0.000000000000     0.000000000000    78.918337600000

  Charge       = -1
  Multiplicity = 1
  Basis Set: AUG-CC-PVTZ
    Blend: AUG-CC-PVTZ
  Basis Set: (AUG-CC-PVTZ AUX)
    Blend: AUG-CC-PVTZ-JKFIT

    Orbital Energies [Eh]
    ---------------------

    Doubly Occupied:

       1A   -489.724266     2A    -64.864484     3A    -58.218973
       4A    -58.218968     5A    -58.218896     6A    -20.406062
       7A     -9.536971     8A     -7.144467     9A     -7.144426
      10A     -7.144113    11A     -2.886284    12A     -2.886283
      13A     -2.885851    14A     -2.885807    15A     -2.885677
      16A     -1.185706    17A     -0.692346    18A     -0.541379
      19A     -0.429361    20A     -0.349274    21A     -0.145947
      22A     -0.145441    23A     -0.142019

  @DF-RHF Final Energy: -2648.59186235354173

   => Energetics <=

    Nuclear Repulsion Energy =             67.3278573052330245
    One-Electron Energy =               -3834.4734366026891621
    Two-Electron Energy =                1118.5537169439146510
    Total Energy =                      -2648.5918623535417282
 Dipole X            :       -219.0928266          213.5647600           -5.5280666
 Dipole Y            :          0.4725335           -0.6753031           -0.2027695
 Dipole Z            :          1.4051223           -1.9353668           -0.5302445
 Magnitude           :                                                    5.5571391
  Basis Set: (AUG-CC-PVTZ AUX)
    Blend: AUG-CC-PVTZ-RI
	 Reference Energy          =   -2648.5918623535417282 [Eh]
	 Singles Energy            =      -0.0000000000000000 [Eh]
	 Same-Spin Energy          =      -0.1577072304546051 [Eh]
	 Opposite-Spin Energy      =      -0.4202771418430251 [Eh]
	 Correlation Energy        =      -0.5779843722976302 [Eh]
	 Total Energy              =   -2649.1698467258393066 [Eh]

	 ================> DF-SCS-MP2 Energies <==================
	-----------------------------------------------------------
	 SCS Same-Spin Scale       =       0.3333333333333333 [-]
	 SCS Opposite-Spin Scale   =       1.2000000000000000 [-]
	 SCS Same-Spin Energy      =      -0.0525690768182017 [Eh]
	 SCS Opposite-Spin Energy  =      -0.5043325702116301 [Eh]
	 SCS Correlation Energy    =      -0.5569016470298318 [Eh]
	 SCS Total Energy          =   -2649.1487640005716457 [Eh]
	-----------------------------------------------------------

*** Psi4 exiting successfully. Buy a developer a beer!
