                               Psi4 1.9 release

  ==> Input File <==

--------------------------------------------------------------------------
MEMORY 60 GB

molecule dimer {
0 1
O      0.000000     0.000000     0.000000
H     -0.038859     0.955172     0.067305
H      0.489245    -0.109698    -0.847397
--
-1 1
Br     3.212066     0.000000     0.000000

units ang
no_reorient
no_com
symmetry c1
}

set {
basis        aug-cc-pVTZ
scf_type     df
}

energy("mp2", bsse_type="cp")
--------------------------------------------------------------------------

                               Psi4 1.9 release
    Molecular point group: c1
  Charge       = -1
  Multiplicity = 1
  Basis Set: AUG-CC-PVTZ
    Blend: AUG-CC-PVTZ
  Basis Set: (AUG-CC-PVTZ AUX)
    Blend: AUG-CC-PVTZ-JKFIT
  @DF-RHF Final Energy: -2572.53367586293280
    Total Energy =                      -2572.5336758629327960
 Dipole X            :       -218.5172869          212.4473763           -6.0699106
 Dipole Y            :         -0.0000349            0.0000000           -0.0000349
 Dipole Z            :         -0.0000219            0.0000000           -0.0000219
 Magnitude           :                                                    6.0699106
  Basis Set: (AUG-CC-PVTZ AUX)
    Blend: AUG-CC-PVTZ-RI
	 Reference Energy          =   -2572.5336758629327960 [Eh]
	 Singles Energy            =      -0.0000000000000000 [Eh]
	 Same-Spin Energy          =      -0.0872464556555395 [Eh]
	 Opposite-Spin Energy      =      -0.2023872421258725 [Eh]
	 Correlation Energy        =      -0.2896336977814120 [Eh]
	 Total Energy              =   -2572.8233095607142786 [Eh]
	 SCS Total Energy          =   -2572.8056227053689327 [Eh]
                               Psi4 1.9 release
    Molecular point group: c1
  Multiplicity = 1
  Basis Set: AUG-CC-PVTZ
    Blend: AUG-CC-PVTZ
  Basis Set: (AUG-CC-PVTZ AUX)
    Blend: AUG-CC-PVTZ-JKFIT
  @DF-RHF Final Energy:   -76.05854639720805
    Total Energy =                        -76.0585463972080333
  Basis Set: (AUG-CC-PVTZ AUX)
	 Singles Energy            =      -0.0000000000000000 [Eh]
	 Same-Spin Energy          =      -0.0686787039478573 [Eh]
	 Opposite-Spin Energy      =      -0.2162969777507070 [Eh]
	 Correlation Energy        =      -0.2849756816985643 [Eh]
	 Total Energy              =     -76.3435220789066165 [Eh]
	 SCS Total Energy          =     -76.3409956718248424 [Eh]
                               Psi4 1.9 release
    Molecular point group: c1

    Geometry (in Bohr), charge = -1, multiplicity = 1:

       Center              X                  Y                   Z               Mass
    ------------   -----------------  -----------------  -----------------  -----------------
         O            0.000000000000     0.000000000000     0.000000000000    15.994914619570
         H           -0.073432867509     1.805013482706     0.127188016874     1.007825032230
         H            0.924539058250    -0.207299176510    -1.601348249535     1.007825032230
         BR           6.069925036895     0.000000000000     0.000000000000    78.918337600000

  Charge       = -1
  Multiplicity = 1
  Basis Set: AUG-CC-PVTZ
    Blend: AUG-CC-PVTZ
  Basis Set: (AUG-CC-PVTZ AUX)
    Blend: AUG-CC-PVTZ-JKFIT

    Orbital Energies [Eh]
    ---------------------

    Doubly Occupied:

       1A   -489.723202     2A    -64.863417     3A    -58.217910
       4A    -58.217898     5A    -58.217827     6A    -20.406899
       7A     -9.535899     8A     -7.143419     9A     -7.143333
      10A     -7.143032    11A     -2.885224    12A     -2.885219
      13A     -2.884802    14A     -2.884701    15A     -2.884590
      16A     -1.186737    17A     -0.691324    18A     -0.541998
      19A     -0.429597    20A     -0.349821    21A     -0.145122
      22A     -0.144124    23A     -0.140811

  @DF-RHF Final Energy: -2648.59061597984282

   => Energetics <=

    Nuclear Repulsion Energy =             67.1541515085544631
    One-Electron Energy =               -3834.1557215376756176
    Two-Electron Energy =                1118.4109540492777342
    Total Energy =                      -2648.5906159798432782
 Dipole X            :       -218.9206608          213.2984825           -5.6221783
 Dipole Y            :         -1.1149336            1.5977143            0.4827807
 Dipole Z            :          1.0944628           -1.4741602           -0.3796974
 Magnitude           :                                                    5.6556287
  Basis Set: (AUG-CC-PVTZ AUX)
    Blend: AUG-CC-PVTZ-RI
	 Reference Energy          =   -2648.5906159798428234 [Eh]
	 Singles Energy            =      -0.0000000000000000 [Eh]
	 Same-Spin Energy          =      -0.1577958420311572 [Eh]
	 Opposite-Spin Energy      =      -0.4204320065587040 [Eh]
	 Correlation Energy        =      -0.5782278485898611 [Eh]
	 Total Energy              =   -2649.1688438284327276 [Eh]

	 ================> DF-SCS-MP2 Energies <==================
	-----------------------------------------------------------
	 SCS Same-Spin Scale       =       0.3333333333333333 [-]
	 SCS Opposite-Spin Scale   =       1.2000000000000000 [-]
	 SCS Same-Spin Energy      =      -0.0525986140103857 [Eh]
	 SCS Opposite-Spin Energy  =      -0.5045184078704448 [Eh]
	 SCS Correlation Energy    =      -0.5571170218808305 [Eh]
	 SCS Total Energy          =   -2649.1477330017237364 [Eh]
	-----------------------------------------------------------

*** Psi4 exiting successfully. Buy a developer a beer!
