                               Psi4 1.9 release

  ==> Input File <==

--------------------------------------------------------------------------
MEMORY 60 GB

molecule dimer {
0 1
O      0.000000     0.000000     0.000000
H      0.205141     0.866062    -0.355314
H      0.396274    -0.584246    -0.686367
--
-1 1
Br     3.212066     0.000000     0.000000

units ang
no_reorient
no_com
symmetry c1
}

set {
basis        aug-cc-pVTZ
scf_type     df
}

energy("mp2", bsse_type="cp")
--------------------------------------------------------------------------

                               Psi4 1.9 release
    Molecular point group: c1
  Charge       = -1
  Multiplicity = 1
  Basis Set: AUG-CC-PVTZ
    Blend: AUG-CC-PVTZ
  Basis Set: (AUG-CC-PVTZ AUX)
    Blend: AUG-CC-PVTZ-JKFIT
  @DF-RHF Final Energy: -2572.53367565628514
    Total Energy =                      -2572.5336756562846858
 Dipole X            :       -218.5172540          212.4473763           -6.0698778
 Dipole Y            :         -0.0000301            0.0000000           -0.0000301
 Dipole Z            :          0.0000166            0.0000000            0.0000166
 Magnitude           :                                                    6.0698778
  Basis Set: (AUG-CC-PVTZ AUX)
    Blend: AUG-CC-PVTZ-RI
	 Reference Energy          =   -2572.5336756562851406 [Eh]
	 Singles Energy            =      -0.0000000000000000 [Eh]
	 Same-Spin Energy          =      -0.0872439127266899 [Eh]
	 Opposite-Spin Energy      =      -0.2023754446494241 [Eh]
	 Correlation Energy        =      -0.2896193573761139 [Eh]
	 Total Energy              =   -2572.8232950136612089 [Eh]
	 SCS Total Energy          =   -2572.8056074941068800 [Eh]
                               Psi4 1.9 release
    Molecular point group: c1
  Multiplicity = 1
  Basis Set: AUG-CC-PVTZ
    Blend: AUG-CC-PVTZ
  Basis Set: (AUG-CC-PVTZ AUX)
    Blend: AUG-CC-PVTZ-JKFIT
  @DF-RHF Final Energy:   -76.05854278147982
    Total Energy =                        -76.0585427814798152
  Basis Set: (AUG-CC-PVTZ AUX)
	 Singles Energy            =      -0.0000000000000000 [Eh]
	 Same-Spin Energy          =      -0.0686778555115496 [Eh]
	 Opposite-Spin Energy      =      -0.2162823816648095 [Eh]
	 Correlation Energy        =      -0.2849602371763591 [Eh]
	 Total Energy              =     -76.3435030186561789 [Eh]
	 SCS Total Energy          =     -76.3409742579814434 [Eh]
                               Psi4 1.9 release
    Molecular point group: c1

    Geometry (in Bohr), charge = -1, multiplicity = 1:

       Center              X                  Y                   Z               Mass
    ------------   -----------------  -----------------  -----------------  -----------------
         O            0.000000000000     0.000000000000     0.000000000000    15.994914619570
         H            0.387660307103     1.636619987666    -0.671446148541     1.007825032230
         H            0.748849330640    -1.104064929894    -1.297045651552     1.007825032230
         BR           6.069925036895     0.000000000000     0.000000000000    78.918337600000

  Charge       = -1
  Multiplicity = 1
  Basis Set: AUG-CC-PVTZ
    Blend: AUG-CC-PVTZ
  Basis Set: (AUG-CC-PVTZ AUX)
    Blend: AUG-CC-PVTZ-JKFIT

    Orbital Energies [Eh]
    ---------------------

    Doubly Occupied:

       1A   -489.724391     2A    -64.864610     3A    -58.219099
       4A    -58.219094     5A    -58.219021     6A    -20.405731
       7A     -9.537097     8A     -7.144594     9A     -7.144552
      10A     -7.144238    11A     -2.886411    12A     -2.886410
      13A     -2.885978    14A     -2.885932    15A     -2.885802
      16A     -1.185526    17A     -0.692480    18A     -0.541131
      19A     -0.429172    20A     -0.349035    21A     -0.146066
      22A     -0.145574    23A     -0.142122

  @DF-RHF Final Energy: -2648.59194755170529

   => Energetics <=

    Nuclear Repulsion Energy =             67.3445317038909224
    One-Electron Energy =               -3834.5048318123508579
    Two-Electron Energy =                1118.5683525567551442
    Total Energy =                      -2648.5919475517048340
 Dipole X            :       -219.1045211          213.5838859           -5.5206352
 Dipole Y            :         -0.3653290            0.5325551            0.1672260
 Dipole Z            :          1.4294331           -1.9684918           -0.5390587
 Magnitude           :                                                    5.5494109
  Basis Set: (AUG-CC-PVTZ AUX)
    Blend: AUG-CC-PVTZ-RI
	 Reference Energy          =   -2648.5919475517052888 [Eh]
	 Singles Energy            =      -0.0000000000000000 [Eh]
	 Same-Spin Energy          =      -0.1577221211914296 [Eh]
	 Opposite-Spin Energy      =      -0.4202754749956508 [Eh]
	 Correlation Energy        =      -0.5779975961870804 [Eh]
	 Total Energy              =   -2649.1699451478925766 [Eh]

	 ================> DF-SCS-MP2 Energies <==================
	-----------------------------------------------------------
	 SCS Same-Spin Scale       =       0.3333333333333333 [-]
	 SCS Opposite-Spin Scale   =       1.2000000000000000 [-]
	 SCS Same-Spin Energy      =      -0.0525740403971432 [Eh]
	 SCS Opposite-Spin Energy  =      -0.5043305699947809 [Eh]
	 SCS Correlation Energy    =      -0.5569046103919241 [Eh]
	 SCS Total Energy          =   -2649.1488521620972278 [Eh]
	-----------------------------------------------------------

*** Psi4 exiting successfully. Buy a developer a beer!
