                               Psi4 1.9 release

  ==> Input File <==

--------------------------------------------------------------------------
MEMORY 60 GB

molecule dimer {
0 1
O      0.000000     0.000000     0.000000
H     -0.272445     0.788345     0.471889
H      0.451123     0.394244    -0.781368
--
-1 1
Br     3.212066     0.000000     0.000000

units ang
no_reorient
no_com
symmetry c1
}

set {
basis        aug-cc-pVTZ
scf_type     df
}

energy("mp2", bsse_type="cp")
--------------------------------------------------------------------------

                               Psi4 1.9 release
    Molecular point group: c1
  Charge       = -1
  Multiplicity = 1
  Basis Set: AUG-CC-PVTZ
    Blend: AUG-CC-PVTZ
  Basis Set: (AUG-CC-PVTZ AUX)
    Blend: AUG-CC-PVTZ-JKFIT
  @DF-RHF Final Energy: -2572.53367528268791
    Total Energy =                      -2572.5336752826879092
 Dipole X            :       -218.5172578          212.4473763           -6.0698815
 Dipole Y            :         -0.0000227            0.0000000           -0.0000227
 Dipole Z            :         -0.0000174            0.0000000           -0.0000174
 Magnitude           :                                                    6.0698815
  Basis Set: (AUG-CC-PVTZ AUX)
    Blend: AUG-CC-PVTZ-RI
	 Reference Energy          =   -2572.5336752826879092 [Eh]
	 Singles Energy            =      -0.0000000000000000 [Eh]
	 Same-Spin Energy          =      -0.0872115899220905 [Eh]
	 Opposite-Spin Energy      =      -0.2022954876621261 [Eh]
	 Correlation Energy        =      -0.2895070775842165 [Eh]
	 Total Energy              =   -2572.8231823602723125 [Eh]
	 SCS Total Energy          =   -2572.8055003978565765 [Eh]
                               Psi4 1.9 release
    Molecular point group: c1
  Multiplicity = 1
  Basis Set: AUG-CC-PVTZ
    Blend: AUG-CC-PVTZ
  Basis Set: (AUG-CC-PVTZ AUX)
    Blend: AUG-CC-PVTZ-JKFIT
  @DF-RHF Final Energy:   -76.05854809783354
    Total Energy =                        -76.0585480978335511
  Basis Set: (AUG-CC-PVTZ AUX)
	 Singles Energy            =      -0.0000000000000000 [Eh]
	 Same-Spin Energy          =      -0.0686797954423167 [Eh]
	 Opposite-Spin Energy      =      -0.2162974125354131 [Eh]
	 Correlation Energy        =      -0.2849772079777299 [Eh]
	 Total Energy              =     -76.3435253058112693 [Eh]
	 SCS Total Energy          =     -76.3409982580234754 [Eh]
                               Psi4 1.9 release
    Molecular point group: c1

    Geometry (in Bohr), charge = -1, multiplicity = 1:

       Center              X                  Y                   Z               Mass
    ------------   -----------------  -----------------  -----------------  -----------------
         O            0.000000000000     0.000000000000     0.000000000000    15.994914619570
         H           -0.514846434250     1.489756142374     0.891740971616     1.007825032230
         H            0.852498918895     0.745013186605    -1.476571523197     1.007825032230
         BR           6.069925036895     0.000000000000     0.000000000000    78.918337600000

  Charge       = -1
  Multiplicity = 1
  Basis Set: AUG-CC-PVTZ
    Blend: AUG-CC-PVTZ
  Basis Set: (AUG-CC-PVTZ AUX)
    Blend: AUG-CC-PVTZ-JKFIT

    Orbital Energies [Eh]
    ---------------------

    Doubly Occupied:

       1A   -489.719966     2A    -64.860169     3A    -58.214664
       4A    -58.214649     5A    -58.214579     6A    -20.410594
       7A     -9.532644     8A     -7.140168     9A     -7.140072
      10A     -7.139767    11A     -2.881976    12A     -2.881969
      13A     -2.881548    14A     -2.881433    15A     -2.881323
      16A     -1.190031    17A     -0.687881    18A     -0.544810
      19A     -0.431488    20A     -0.352458    21A     -0.141784
      22A     -0.140699    23A     -0.137348

  @DF-RHF Final Energy: -2648.58740954466748

   => Energetics <=

    Nuclear Repulsion Energy =             66.7332667764784730
    One-Electron Energy =               -3833.3973089138239629
    Two-Electron Energy =                1118.0766325926781519
    Total Energy =                      -2648.5874095446670253
 Dipole X            :       -218.6170872          212.7850288           -5.8320584
 Dipole Y            :         -1.5790786            2.2347693            0.6556907
 Dipole Z            :          0.4719797           -0.5848306           -0.1128508
 Magnitude           :                                                    5.8698868
  Basis Set: (AUG-CC-PVTZ AUX)
    Blend: AUG-CC-PVTZ-RI
	 Reference Energy          =   -2648.5874095446674801 [Eh]
	 Singles Energy            =      -0.0000000000000000 [Eh]
	 Same-Spin Energy          =      -0.1577604212793175 [Eh]
	 Opposite-Spin Energy      =      -0.4204907084780070 [Eh]
	 Correlation Energy        =      -0.5782511297573245 [Eh]
	 Total Energy              =   -2649.1656606744249984 [Eh]

	 ================> DF-SCS-MP2 Energies <==================
	-----------------------------------------------------------
	 SCS Same-Spin Scale       =       0.3333333333333333 [-]
	 SCS Opposite-Spin Scale   =       1.2000000000000000 [-]
	 SCS Same-Spin Energy      =      -0.0525868070931058 [Eh]
	 SCS Opposite-Spin Energy  =      -0.5045888501736084 [Eh]
	 SCS Correlation Energy    =      -0.5571756572667143 [Eh]
	 SCS Total Energy          =   -2649.1445852019342055 [Eh]
	-----------------------------------------------------------

*** Psi4 exiting successfully. Buy a developer a beer!
