                               Psi4 1.9 release

  ==> Input File <==

--------------------------------------------------------------------------
MEMORY 60 GB

molecule dimer {
0 1
O      0.000000     0.000000     0.000000
H     -0.161143     0.902511     0.279107
H      0.486770     0.147292    -0.843111
--
-1 1
Br     3.212066     0.000000     0.000000

units ang
no_reorient
no_com
symmetry c1
}

set {
basis        aug-cc-pVTZ
scf_type     df
}

energy("mp2", bsse_type="cp")
--------------------------------------------------------------------------

                               Psi4 1.9 release
    Molecular point group: c1
  Charge       = -1
  Multiplicity = 1
  Basis Set: AUG-CC-PVTZ
    Blend: AUG-CC-PVTZ
  Basis Set: (AUG-CC-PVTZ AUX)
    Blend: AUG-CC-PVTZ-JKFIT
  @DF-RHF Final Energy: -2572.53367565076087
    Total Energy =                      -2572.5336756507604150
 Dipole X            :       -218.5172804          212.4473763           -6.0699042
 Dipole Y            :         -0.0000250            0.0000000           -0.0000250
 Dipole Z            :         -0.0000236            0.0000000           -0.0000236
 Magnitude           :                                                    6.0699042
  Basis Set: (AUG-CC-PVTZ AUX)
    Blend: AUG-CC-PVTZ-RI
	 Reference Energy          =   -2572.5336756507608698 [Eh]
	 Singles Energy            =      -0.0000000000000000 [Eh]
	 Same-Spin Energy          =      -0.0872345255362923 [Eh]
	 Opposite-Spin Energy      =      -0.2023568760056469 [Eh]
	 Correlation Energy        =      -0.2895914015419392 [Eh]
	 Total Energy              =   -2572.8232670523029810 [Eh]
	 SCS Total Energy          =   -2572.8055820771464823 [Eh]
                               Psi4 1.9 release
    Molecular point group: c1
  Multiplicity = 1
  Basis Set: AUG-CC-PVTZ
    Blend: AUG-CC-PVTZ
  Basis Set: (AUG-CC-PVTZ AUX)
    Blend: AUG-CC-PVTZ-JKFIT
  @DF-RHF Final Energy:   -76.05854761431702
    Total Energy =                        -76.0585476143170354
  Basis Set: (AUG-CC-PVTZ AUX)
	 Singles Energy            =      -0.0000000000000000 [Eh]
	 Same-Spin Energy          =      -0.0686792897602860 [Eh]
	 Opposite-Spin Energy      =      -0.2163003050563911 [Eh]
	 Correlation Energy        =      -0.2849795948166772 [Eh]
	 Total Energy              =     -76.3435272091336969 [Eh]
	 SCS Total Energy          =     -76.3410010769714518 [Eh]
                               Psi4 1.9 release
    Molecular point group: c1

    Geometry (in Bohr), charge = -1, multiplicity = 1:

       Center              X                  Y                   Z               Mass
    ------------   -----------------  -----------------  -----------------  -----------------
         O            0.000000000000     0.000000000000     0.000000000000    15.994914619570
         H           -0.304516137035     1.705498615213     0.527435789698     1.007825032230
         H            0.919861986089     0.278341540471    -1.593248883361     1.007825032230
         BR           6.069925036895     0.000000000000     0.000000000000    78.918337600000

  Charge       = -1
  Multiplicity = 1
  Basis Set: AUG-CC-PVTZ
    Blend: AUG-CC-PVTZ
  Basis Set: (AUG-CC-PVTZ AUX)
    Blend: AUG-CC-PVTZ-JKFIT

    Orbital Energies [Eh]
    ---------------------

    Doubly Occupied:

       1A   -489.721845     2A    -64.862055     3A    -58.216549
       4A    -58.216535     5A    -58.216465     6A    -20.408434
       7A     -9.534534     8A     -7.142059     9A     -7.141963
      10A     -7.141662    11A     -2.883863    12A     -2.883857
      13A     -2.883441    14A     -2.883327    15A     -2.883218
      16A     -1.188131    17A     -0.689902    18A     -0.543150
      19A     -0.430346    20A     -0.350905    21A     -0.143767
      22A     -0.142663    23A     -0.139357

  @DF-RHF Final Energy: -2648.58924754652708

   => Energetics <=

    Nuclear Repulsion Energy =             66.9699980735082931
    One-Electron Energy =               -3833.8224328357509876
    Two-Electron Energy =                1118.2631872157160160
    Total Energy =                      -2648.5892475465270763
 Dipole X            :       -218.7781720          213.0627221           -5.7154498
 Dipole Y            :         -1.3937419            1.9838402            0.5900982
 Dipole Z            :          0.8109750           -1.0658131           -0.2548381
 Magnitude           :                                                    5.7514803
  Basis Set: (AUG-CC-PVTZ AUX)
    Blend: AUG-CC-PVTZ-RI
	 Reference Energy          =   -2648.5892475465270763 [Eh]
	 Singles Energy            =      -0.0000000000000000 [Eh]
	 Same-Spin Energy          =      -0.1577974192208425 [Eh]
	 Opposite-Spin Energy      =      -0.4204835497157293 [Eh]
	 Correlation Energy        =      -0.5782809689365718 [Eh]
	 Total Energy              =   -2649.1675285154638004 [Eh]

	 ================> DF-SCS-MP2 Energies <==================
	-----------------------------------------------------------
	 SCS Same-Spin Scale       =       0.3333333333333333 [-]
	 SCS Opposite-Spin Scale   =       1.2000000000000000 [-]
	 SCS Same-Spin Energy      =      -0.0525991397402808 [Eh]
	 SCS Opposite-Spin Energy  =      -0.5045802596588751 [Eh]
	 SCS Correlation Energy    =      -0.5571793993991560 [Eh]
	 SCS Total Energy          =   -2649.1464269459261232 [Eh]
	-----------------------------------------------------------

*** Psi4 exiting successfully. Buy a developer a beer!
