                               Psi4 1.9 release

  ==> Input File <==

--------------------------------------------------------------------------
MEMORY 60 GB

molecule dimer {
0 1
O      0.000000     0.000000     0.000000
H     -0.365181     0.620454     0.632513
H      0.384733     0.614329    -0.666376
--
-1 1
Br     3.212066     0.000000     0.000000

units ang
no_reorient
no_com
symmetry c1
}

set {
basis        aug-cc-pVTZ
scf_type     df
}

energy("mp2", bsse_type="cp")
--------------------------------------------------------------------------

                               Psi4 1.9 release
    Molecular point group: c1
  Charge       = -1
  Multiplicity = 1
  Basis Set: AUG-CC-PVTZ
    Blend: AUG-CC-PVTZ
  Basis Set: (AUG-CC-PVTZ AUX)
    Blend: AUG-CC-PVTZ-JKFIT
  @DF-RHF Final Energy: -2572.53367486616526
    Total Energy =                      -2572.5336748661652564
 Dipole X            :       -218.5172292          212.4473763           -6.0698529
 Dipole Y            :         -0.0000245            0.0000000           -0.0000245
 Dipole Z            :         -0.0000110            0.0000000           -0.0000110
 Magnitude           :                                                    6.0698529
  Basis Set: (AUG-CC-PVTZ AUX)
    Blend: AUG-CC-PVTZ-RI
	 Reference Energy          =   -2572.5336748661652564 [Eh]
	 Singles Energy            =      -0.0000000000000000 [Eh]
	 Same-Spin Energy          =      -0.0871814507286869 [Eh]
	 Opposite-Spin Energy      =      -0.2022143832737124 [Eh]
	 Correlation Energy        =      -0.2893958340023993 [Eh]
	 Total Energy              =   -2572.8230707001675910 [Eh]
	 SCS Total Energy          =   -2572.8053926096699797 [Eh]
                               Psi4 1.9 release
    Molecular point group: c1
  Multiplicity = 1
  Basis Set: AUG-CC-PVTZ
    Blend: AUG-CC-PVTZ
  Basis Set: (AUG-CC-PVTZ AUX)
    Blend: AUG-CC-PVTZ-JKFIT
  @DF-RHF Final Energy:   -76.05854824864863
    Total Energy =                        -76.0585482486486484
  Basis Set: (AUG-CC-PVTZ AUX)
	 Singles Energy            =      -0.0000000000000000 [Eh]
	 Same-Spin Energy          =      -0.0686801327446992 [Eh]
	 Opposite-Spin Energy      =      -0.2162896902470198 [Eh]
	 Correlation Energy        =      -0.2849698229917190 [Eh]
	 Total Energy              =     -76.3435180716403465 [Eh]
	 SCS Total Energy          =     -76.3409892545266189 [Eh]
                               Psi4 1.9 release
    Molecular point group: c1

    Geometry (in Bohr), charge = -1, multiplicity = 1:

       Center              X                  Y                   Z               Mass
    ------------   -----------------  -----------------  -----------------  -----------------
         O            0.000000000000     0.000000000000     0.000000000000    15.994914619570
         H           -0.690092076221     1.172488133445     1.195276340792     1.007825032230
         H            0.727040001426     1.160913560926    -1.259268136578     1.007825032230
         BR           6.069925036895     0.000000000000     0.000000000000    78.918337600000

  Charge       = -1
  Multiplicity = 1
  Basis Set: AUG-CC-PVTZ
    Blend: AUG-CC-PVTZ
  Basis Set: (AUG-CC-PVTZ AUX)
    Blend: AUG-CC-PVTZ-JKFIT

    Orbital Energies [Eh]
    ---------------------

    Doubly Occupied:

       1A   -489.717718     2A    -64.857914     3A    -58.212408
       4A    -58.212394     5A    -58.212323     6A    -20.413133
       7A     -9.530385     8A     -7.137903     9A     -7.137815
      10A     -7.137503    11A     -2.879717    12A     -2.879712
      13A     -2.879282    14A     -2.879176    15A     -2.879061
      16A     -1.192246    17A     -0.685441    18A     -0.546831
      19A     -0.432882    20A     -0.354304    21A     -0.139355
      22A     -0.138386    23A     -0.134934

  @DF-RHF Final Energy: -2648.58522402960034

   => Energetics <=

    Nuclear Repulsion Energy =             66.4626693482343711
    One-Electron Energy =               -3832.9141402902969276
    Two-Electron Energy =                1117.8662469124626568
    Total Energy =                      -2648.5852240295998854
 Dipole X            :       -218.4472421          212.4843242           -5.9629179
 Dipole Y            :         -1.6561283            2.3334017            0.6772734
 Dipole Z            :          0.1009177           -0.0639918            0.0369259
 Magnitude           :                                                    6.0013709
  Basis Set: (AUG-CC-PVTZ AUX)
    Blend: AUG-CC-PVTZ-RI
	 Reference Energy          =   -2648.5852240296003401 [Eh]
	 Singles Energy            =      -0.0000000000000000 [Eh]
	 Same-Spin Energy          =      -0.1576952572756706 [Eh]
	 Opposite-Spin Energy      =      -0.4204632565750303 [Eh]
	 Correlation Energy        =      -0.5781585138507008 [Eh]
	 Total Energy              =   -2649.1633825434510072 [Eh]

	 ================> DF-SCS-MP2 Energies <==================
	-----------------------------------------------------------
	 SCS Same-Spin Scale       =       0.3333333333333333 [-]
	 SCS Opposite-Spin Scale   =       1.2000000000000000 [-]
	 SCS Same-Spin Energy      =      -0.0525650857585569 [Eh]
	 SCS Opposite-Spin Energy  =      -0.5045559078900363 [Eh]
	 SCS Correlation Energy    =      -0.5571209936485932 [Eh]
	 SCS Total Energy          =   -2649.1423450232487085 [Eh]
	-----------------------------------------------------------

*** Psi4 exiting successfully. Buy a developer a beer!
