                               Psi4 1.9 release

  ==> Input File <==

--------------------------------------------------------------------------
MEMORY 60 GB

molecule dimer {
0 1
O      0.000000     0.000000     0.000000
H      0.310227     0.730363    -0.537329
H      0.307164    -0.769465    -0.532024
--
-1 1
Br     3.212066     0.000000     0.000000

units ang
no_reorient
no_com
symmetry c1
}

set {
basis        aug-cc-pVTZ
scf_type     df
}

energy("mp2", bsse_type="cp")
--------------------------------------------------------------------------

                               Psi4 1.9 release
    Molecular point group: c1
  Charge       = -1
  Multiplicity = 1
  Basis Set: AUG-CC-PVTZ
    Blend: AUG-CC-PVTZ
  Basis Set: (AUG-CC-PVTZ AUX)
    Blend: AUG-CC-PVTZ-JKFIT
  @DF-RHF Final Energy: -2572.53367556253261
    Total Energy =                      -2572.5336755625330625
 Dipole X            :       -218.5172462          212.4473763           -6.0698699
 Dipole Y            :          0.0000010            0.0000000            0.0000010
 Dipole Z            :          0.0000268            0.0000000            0.0000268
 Magnitude           :                                                    6.0698699
  Basis Set: (AUG-CC-PVTZ AUX)
    Blend: AUG-CC-PVTZ-RI
	 Reference Energy          =   -2572.5336755625326077 [Eh]
	 Singles Energy            =      -0.0000000000000000 [Eh]
	 Same-Spin Energy          =      -0.0872416031277483 [Eh]
	 Opposite-Spin Energy      =      -0.2023683802499032 [Eh]
	 Correlation Energy        =      -0.2896099833776515 [Eh]
	 Total Energy              =   -2572.8232855459100392 [Eh]
	 SCS Total Energy          =   -2572.8055981532083933 [Eh]
                               Psi4 1.9 release
    Molecular point group: c1
  Multiplicity = 1
  Basis Set: AUG-CC-PVTZ
    Blend: AUG-CC-PVTZ
  Basis Set: (AUG-CC-PVTZ AUX)
    Blend: AUG-CC-PVTZ-JKFIT
  @DF-RHF Final Energy:   -76.05854208932116
    Total Energy =                        -76.0585420893211648
  Basis Set: (AUG-CC-PVTZ AUX)
	 Singles Energy            =      -0.0000000000000000 [Eh]
	 Same-Spin Energy          =      -0.0686777466559792 [Eh]
	 Opposite-Spin Energy      =      -0.2162801340225589 [Eh]
	 Correlation Energy        =      -0.2849578806785382 [Eh]
	 Total Energy              =     -76.3434999699996979 [Eh]
	 SCS Total Energy          =     -76.3409708323668923 [Eh]
                               Psi4 1.9 release
    Molecular point group: c1

    Geometry (in Bohr), charge = -1, multiplicity = 1:

       Center              X                  Y                   Z               Mass
    ------------   -----------------  -----------------  -----------------  -----------------
         O            0.000000000000     0.000000000000     0.000000000000    15.994914619570
         H            0.586244066722     1.380186042168    -1.015404649266     1.007825032230
         H            0.580455835600    -1.454078113125    -1.005379652171     1.007825032230
         BR           6.069925036895     0.000000000000     0.000000000000    78.918337600000

  Charge       = -1
  Multiplicity = 1
  Basis Set: AUG-CC-PVTZ
    Blend: AUG-CC-PVTZ
  Basis Set: (AUG-CC-PVTZ AUX)
    Blend: AUG-CC-PVTZ-JKFIT

    Orbital Energies [Eh]
    ---------------------

    Doubly Occupied:

       1A   -489.724453     2A    -64.864673     3A    -58.219160
       4A    -58.219158     5A    -58.219084     6A    -20.405769
       7A     -9.537161     8A     -7.144650     9A     -7.144622
      10A     -7.144303    11A     -2.886473    12A     -2.886472
      13A     -2.886031    14A     -2.886007    15A     -2.885868
      16A     -1.185483    17A     -0.692524    18A     -0.541160
      19A     -0.429233    20A     -0.349072    21A     -0.146040
      22A     -0.145716    23A     -0.142210

  @DF-RHF Final Energy: -2648.59205772251107

   => Energetics <=

    Nuclear Repulsion Energy =             67.3599511206950723
    One-Electron Energy =               -3834.5333774325895320
    Two-Electron Energy =                1118.5813685893836009
    Total Energy =                      -2648.5920577225110719
 Dipole X            :       -219.1254085          213.6140762           -5.5113323
 Dipole Y            :          0.0552903           -0.0738921           -0.0186018
 Dipole Z            :          1.4634427           -2.0207843           -0.5573416
 Magnitude           :                                                    5.5394728
  Basis Set: (AUG-CC-PVTZ AUX)
    Blend: AUG-CC-PVTZ-RI
	 Reference Energy          =   -2648.5920577225110719 [Eh]
	 Singles Energy            =      -0.0000000000000000 [Eh]
	 Same-Spin Energy          =      -0.1576996372113613 [Eh]
	 Opposite-Spin Energy      =      -0.4202454284198436 [Eh]
	 Correlation Energy        =      -0.5779450656312048 [Eh]
	 Total Energy              =   -2649.1700027881424830 [Eh]

	 ================> DF-SCS-MP2 Energies <==================
	-----------------------------------------------------------
	 SCS Same-Spin Scale       =       0.3333333333333333 [-]
	 SCS Opposite-Spin Scale   =       1.2000000000000000 [-]
	 SCS Same-Spin Energy      =      -0.0525665457371204 [Eh]
	 SCS Opposite-Spin Energy  =      -0.5042945141038123 [Eh]
	 SCS Correlation Energy    =      -0.5568610598409327 [Eh]
	 SCS Total Energy          =   -2649.1489187823522116 [Eh]
	-----------------------------------------------------------

*** Psi4 exiting successfully. Buy a developer a beer!
