                               Psi4 1.9 release

  ==> Input File <==

--------------------------------------------------------------------------
MEMORY 60 GB

molecule dimer {
0 1
O      0.000000     0.000000     0.000000
H      0.086074     0.942740    -0.149084
H      0.458378    -0.359212    -0.793935
--
-1 1
Br     3.212066     0.000000     0.000000

units ang
no_reorient
no_com
symmetry c1
}

set {
basis        aug-cc-pVTZ
scf_type     df
}

energy("mp2", bsse_type="cp")
--------------------------------------------------------------------------

                               Psi4 1.9 release
    Molecular point group: c1
  Charge       = -1
  Multiplicity = 1
  Basis Set: AUG-CC-PVTZ
    Blend: AUG-CC-PVTZ
  Basis Set: (AUG-CC-PVTZ AUX)
    Blend: AUG-CC-PVTZ-JKFIT
  @DF-RHF Final Energy: -2572.53367583721001
    Total Energy =                      -2572.5336758372095574
 Dipole X            :       -218.5172733          212.4473763           -6.0698970
 Dipole Y            :         -0.0000421            0.0000000           -0.0000421
 Dipole Z            :         -0.0000058            0.0000000           -0.0000058
 Magnitude           :                                                    6.0698970
  Basis Set: (AUG-CC-PVTZ AUX)
    Blend: AUG-CC-PVTZ-RI
	 Reference Energy          =   -2572.5336758372100121 [Eh]
	 Singles Energy            =      -0.0000000000000000 [Eh]
	 Same-Spin Energy          =      -0.0872478722006801 [Eh]
	 Opposite-Spin Energy      =      -0.2023883590314992 [Eh]
	 Correlation Energy        =      -0.2896362312321793 [Eh]
	 Total Energy              =   -2572.8233120684421920 [Eh]
	 SCS Total Energy          =   -2572.8056244921149300 [Eh]
                               Psi4 1.9 release
    Molecular point group: c1
  Multiplicity = 1
  Basis Set: AUG-CC-PVTZ
    Blend: AUG-CC-PVTZ
  Basis Set: (AUG-CC-PVTZ AUX)
    Blend: AUG-CC-PVTZ-JKFIT
  @DF-RHF Final Energy:   -76.05854453443013
    Total Energy =                        -76.0585445344301263
  Basis Set: (AUG-CC-PVTZ AUX)
	 Singles Energy            =      -0.0000000000000000 [Eh]
	 Same-Spin Energy          =      -0.0686781911124239 [Eh]
	 Opposite-Spin Energy      =      -0.2162895196442756 [Eh]
	 Correlation Energy        =      -0.2849677107566996 [Eh]
	 Total Energy              =     -76.3435122451868295 [Eh]
	 SCS Total Energy          =     -76.3409846883740641 [Eh]
                               Psi4 1.9 release
    Molecular point group: c1

    Geometry (in Bohr), charge = -1, multiplicity = 1:

       Center              X                  Y                   Z               Mass
    ------------   -----------------  -----------------  -----------------  -----------------
         O            0.000000000000     0.000000000000     0.000000000000    15.994914619570
         H            0.162656286523     1.781520407514    -0.281727929688     1.007825032230
         H            0.866208881935    -0.678812300978    -1.500319711415     1.007825032230
         BR           6.069925036895     0.000000000000     0.000000000000    78.918337600000

  Charge       = -1
  Multiplicity = 1
  Basis Set: AUG-CC-PVTZ
    Blend: AUG-CC-PVTZ
  Basis Set: (AUG-CC-PVTZ AUX)
    Blend: AUG-CC-PVTZ-JKFIT

    Orbital Energies [Eh]
    ---------------------

    Doubly Occupied:

       1A   -489.724017     2A    -64.864235     3A    -58.218726
       4A    -58.218717     5A    -58.218646     6A    -20.406043
       7A     -9.536720     8A     -7.144230     9A     -7.144164
      10A     -7.143858    11A     -2.886039    12A     -2.886036
      13A     -2.885614    14A     -2.885537    15A     -2.885419
      16A     -1.185899    17A     -0.692137    18A     -0.541363
      19A     -0.429245    20A     -0.349234    21A     -0.145839
      22A     -0.145064    23A     -0.141698

  @DF-RHF Final Energy: -2648.59149485818398

   => Energetics <=

    Nuclear Repulsion Energy =             67.2781257886804553
    One-Electron Energy =               -3834.3822791831785253
    Two-Electron Energy =                1118.5126585363138929
    Total Energy =                      -2648.5914948581839781
 Dipole X            :       -219.0332995          213.4762415           -5.5570581
 Dipole Y            :         -0.7639133            1.1027081            0.3387948
 Dipole Z            :          1.3044775           -1.7820476           -0.4775702
 Magnitude           :                                                    5.5878215
  Basis Set: (AUG-CC-PVTZ AUX)
    Blend: AUG-CC-PVTZ-RI
	 Reference Energy          =   -2648.5914948581839781 [Eh]
	 Singles Energy            =      -0.0000000000000000 [Eh]
	 Same-Spin Energy          =      -0.1577629740555762 [Eh]
	 Opposite-Spin Energy      =      -0.4203507215514058 [Eh]
	 Correlation Energy        =      -0.5781136956069820 [Eh]
	 Total Energy              =   -2649.1696085537910221 [Eh]

	 ================> DF-SCS-MP2 Energies <==================
	-----------------------------------------------------------
	 SCS Same-Spin Scale       =       0.3333333333333333 [-]
	 SCS Opposite-Spin Scale   =       1.2000000000000000 [-]
	 SCS Same-Spin Energy      =      -0.0525876580185254 [Eh]
	 SCS Opposite-Spin Energy  =      -0.5044208658616869 [Eh]
	 SCS Correlation Energy    =      -0.5570085238802123 [Eh]
	 SCS Total Energy          =   -2649.1485033820640638 [Eh]
	-----------------------------------------------------------

*** Psi4 exiting successfully. Buy a developer a beer!
