                               Psi4 1.9 release

  ==> Input File <==

--------------------------------------------------------------------------
MEMORY 60 GB

molecule dimer {
0 1
O      0.000000     0.000000     0.000000
H     -0.433031     0.410281     0.750031
H      0.292123     0.792548    -0.505972
--
-1 1
Br     3.212066     0.000000     0.000000

units ang
no_reorient
no_com
symmetry c1
}

set {
basis        aug-cc-pVTZ
scf_type     df
}

energy("mp2", bsse_type="cp")
--------------------------------------------------------------------------

                               Psi4 1.9 release
    Molecular point group: c1
  Charge       = -1
  Multiplicity = 1
  Basis Set: AUG-CC-PVTZ
    Blend: AUG-CC-PVTZ
  Basis Set: (AUG-CC-PVTZ AUX)
    Blend: AUG-CC-PVTZ-JKFIT
  @DF-RHF Final Energy: -2572.53367449075586
    Total Energy =                      -2572.5336744907554021
 Dipole X            :       -218.5172062          212.4473763           -6.0698299
 Dipole Y            :         -0.0000237            0.0000000           -0.0000237
 Dipole Z            :         -0.0000075            0.0000000           -0.0000075
 Magnitude           :                                                    6.0698299
  Basis Set: (AUG-CC-PVTZ AUX)
    Blend: AUG-CC-PVTZ-RI
	 Reference Energy          =   -2572.5336744907558568 [Eh]
	 Singles Energy            =      -0.0000000000000000 [Eh]
	 Same-Spin Energy          =      -0.0871496805965027 [Eh]
	 Opposite-Spin Energy      =      -0.2021298812896560 [Eh]
	 Correlation Energy        =      -0.2892795618861588 [Eh]
	 Total Energy              =   -2572.8229540526422170 [Eh]
	 SCS Total Energy          =   -2572.8052802418355895 [Eh]
                               Psi4 1.9 release
    Molecular point group: c1
  Multiplicity = 1
  Basis Set: AUG-CC-PVTZ
    Blend: AUG-CC-PVTZ
  Basis Set: (AUG-CC-PVTZ AUX)
    Blend: AUG-CC-PVTZ-JKFIT
  @DF-RHF Final Energy:   -76.05854877371752
    Total Energy =                        -76.0585487737175185
  Basis Set: (AUG-CC-PVTZ AUX)
	 Singles Energy            =      -0.0000000000000000 [Eh]
	 Same-Spin Energy          =      -0.0686803618572798 [Eh]
	 Opposite-Spin Energy      =      -0.2162809258619045 [Eh]
	 Correlation Energy        =      -0.2849612877191843 [Eh]
	 Total Energy              =     -76.3435100614367030 [Eh]
	 SCS Total Energy          =     -76.3409793387042299 [Eh]
                               Psi4 1.9 release
    Molecular point group: c1

    Geometry (in Bohr), charge = -1, multiplicity = 1:

       Center              X                  Y                   Z               Mass
    ------------   -----------------  -----------------  -----------------  -----------------
         O            0.000000000000     0.000000000000     0.000000000000    15.994914619570
         H           -0.818309993833     0.775318724479     1.417353175603     1.007825032230
         H            0.552032464947     1.497698661279    -0.956148507150     1.007825032230
         BR           6.069925036895     0.000000000000     0.000000000000    78.918337600000

  Charge       = -1
  Multiplicity = 1
  Basis Set: AUG-CC-PVTZ
    Blend: AUG-CC-PVTZ
  Basis Set: (AUG-CC-PVTZ AUX)
    Blend: AUG-CC-PVTZ-JKFIT

    Orbital Energies [Eh]
    ---------------------

    Doubly Occupied:

       1A   -489.715339     2A    -64.855528     3A    -58.210020
       4A    -58.210009     5A    -58.209937     6A    -20.415718
       7A     -9.527996     8A     -7.135505     9A     -7.135430
      10A     -7.135109    11A     -2.877327    12A     -2.877323
      13A     -2.876883    14A     -2.876792    15A     -2.876670
      16A     -1.194516    17A     -0.682859    18A     -0.548988
      19A     -0.434322    20A     -0.356202    21A     -0.136762
      22A     -0.135961    23A     -0.132353

  @DF-RHF Final Energy: -2648.58288579099508

   => Energetics <=

    Nuclear Repulsion Energy =             66.1835048089041322
    One-Electron Energy =               -3832.4176844627277205
    Two-Electron Energy =                1117.6512938628286520
    Total Energy =                      -2648.5828857909946237
 Dipole X            :       -218.2777733          212.1810988           -6.0966745
 Dipole Y            :         -1.6185763            2.2730174            0.6544411
 Dipole Z            :         -0.2756925            0.4612047            0.1855122
 Magnitude           :                                                    6.1345047
  Basis Set: (AUG-CC-PVTZ AUX)
    Blend: AUG-CC-PVTZ-RI
	 Reference Energy          =   -2648.5828857909950784 [Eh]
	 Singles Energy            =      -0.0000000000000000 [Eh]
	 Same-Spin Energy          =      -0.1576212773962474 [Eh]
	 Opposite-Spin Energy      =      -0.4204237173595091 [Eh]
	 Correlation Energy        =      -0.5780449947557564 [Eh]
	 Total Energy              =   -2649.1609307857506792 [Eh]

	 ================> DF-SCS-MP2 Energies <==================
	-----------------------------------------------------------
	 SCS Same-Spin Scale       =       0.3333333333333333 [-]
	 SCS Opposite-Spin Scale   =       1.2000000000000000 [-]
	 SCS Same-Spin Energy      =      -0.0525404257987491 [Eh]
	 SCS Opposite-Spin Energy  =      -0.5045084608314109 [Eh]
	 SCS Correlation Energy    =      -0.5570488866301601 [Eh]
	 SCS Total Energy          =   -2649.1399346776252059 [Eh]
	-----------------------------------------------------------

*** Psi4 exiting successfully. Buy a developer a beer!
