                               Psi4 1.9 release

  ==> Input File <==

--------------------------------------------------------------------------
MEMORY 60 GB

molecule dimer {
0 1
F      0.000000     0.000000     0.000000
Li     0.000000     1.584155     0.000000
--
1 1
Li     2.376232     0.000000     0.000000

units ang
no_reorient
no_com
symmetry c1
}

set {
basis        aug-cc-pVTZ
scf_type     df
}

energy("mp2", bsse_type="cp")
--------------------------------------------------------------------------

                               Psi4 1.9 release
    Molecular point group: c1
  Charge       = 1
  Multiplicity = 1
  Basis Set: AUG-CC-PVTZ
    Blend: AUG-CC-PVTZ
  Basis Set: (AUG-CC-PVTZ AUX)
    Blend: AUG-CC-PVTZ-JKFIT + DEF2-UNIVERSAL-JKFIT
  @DF-RHF Final Energy:    -7.23638321843328
    Total Energy =                         -7.2363832184332759
 Dipole X            :         -8.9809396           13.4712831            4.4903435
 Dipole Y            :          0.0000229            0.0000000            0.0000229
 Dipole Z            :          0.0000000            0.0000000            0.0000000
 Magnitude           :                                                    4.4903435
  Basis Set: (AUG-CC-PVTZ AUX)
    Blend: AUG-CC-PVTZ-RI + DEF2-QZVPP-RI
	 Reference Energy          =      -7.2363832184332750 [Eh]
	 Singles Energy            =      -0.0000000000000000 [Eh]
	 Same-Spin Energy          =       0.0000000000000000 [Eh]
	 Opposite-Spin Energy      =      -0.0117995429917761 [Eh]
	 Correlation Energy        =      -0.0117995429917761 [Eh]
	 Total Energy              =      -7.2481827614250509 [Eh]
	 SCS Total Energy          =      -7.2505426700234059 [Eh]
                               Psi4 1.9 release
    Molecular point group: c1
  Multiplicity = 1
  Basis Set: AUG-CC-PVTZ
    Blend: AUG-CC-PVTZ
  Basis Set: (AUG-CC-PVTZ AUX)
    Blend: AUG-CC-PVTZ-JKFIT + DEF2-UNIVERSAL-JKFIT
  @DF-RHF Final Energy:  -106.98282914437095
    Total Energy =                       -106.9828291443709531
  Basis Set: (AUG-CC-PVTZ AUX)
	 Singles Energy            =      -0.0000000000000000 [Eh]
	 Same-Spin Energy          =      -0.0796221006291446 [Eh]
	 Opposite-Spin Energy      =      -0.2359476882273984 [Eh]
	 Correlation Energy        =      -0.3155697888565430 [Eh]
	 Total Energy              =    -107.2983989332275030 [Eh]
	 SCS Total Energy          =    -107.2925070704535528 [Eh]
                               Psi4 1.9 release
    Molecular point group: c1

    Geometry (in Bohr), charge = 1, multiplicity = 1:

       Center              X                  Y                   Z               Mass
    ------------   -----------------  -----------------  -----------------  -----------------
         F            0.000000000000     0.000000000000     0.000000000000    18.998403162730
         LI           0.000000000000     2.993619090275     0.000000000000     7.016003436600
         LI           4.490427690549     0.000000000000     0.000000000000     7.016003436600

  Charge       = 1
  Multiplicity = 1
  Basis Set: AUG-CC-PVTZ
    Blend: AUG-CC-PVTZ
  Basis Set: (AUG-CC-PVTZ AUX)
    Blend: AUG-CC-PVTZ-JKFIT + DEF2-UNIVERSAL-JKFIT

    Orbital Energies [Eh]
    ---------------------

    Doubly Occupied:

       1A    -26.341134     2A     -2.736256     3A     -2.626484
       4A     -1.602765     5A     -0.721025     6A     -0.701574
       7A     -0.698830

  @DF-RHF Final Energy:  -114.26201201345663

   => Energetics <=

    Nuclear Repulsion Energy =             16.6996216864033826
    One-Electron Energy =                -191.0671311557809702
    Two-Electron Energy =                  60.1054974559209612
    Total Energy =                       -114.2620120134566264
 Dipole X            :         -9.3321358           13.4712831            4.1391472
 Dipole Y            :         -6.3929041            8.9808573            2.5879532
 Dipole Z            :          0.0000000            0.0000000            0.0000000
 Magnitude           :                                                    4.8816024
  Basis Set: (AUG-CC-PVTZ AUX)
    Blend: AUG-CC-PVTZ-RI + DEF2-QZVPP-RI
	 Reference Energy          =    -114.2620120134566264 [Eh]
	 Singles Energy            =      -0.0000000000000000 [Eh]
	 Same-Spin Energy          =      -0.0798152452122090 [Eh]
	 Opposite-Spin Energy      =      -0.2483988920569830 [Eh]
	 Correlation Energy        =      -0.3282141372691920 [Eh]
	 Total Energy              =    -114.5902261507258117 [Eh]

	 ================> DF-SCS-MP2 Energies <==================
	-----------------------------------------------------------
	 SCS Same-Spin Scale       =       0.3333333333333333 [-]
	 SCS Opposite-Spin Scale   =       1.2000000000000000 [-]
	 SCS Same-Spin Energy      =      -0.0266050817374030 [Eh]
	 SCS Opposite-Spin Energy  =      -0.2980786704683795 [Eh]
	 SCS Correlation Energy    =      -0.3246837522057825 [Eh]
	 SCS Total Energy          =    -114.5866957656624123 [Eh]
	-----------------------------------------------------------

*** Psi4 exiting successfully. Buy a developer a beer!
