                               Psi4 1.8.2 release

  ==> Input File <==

--------------------------------------------------------------------------
MEMORY 60 GB

molecule dimer {
-1 1
F          0.000000     0.000000     0.000000
Gh(Li)     0.000000     1.584155     0.000000
Gh(Li)     3.168310     0.000000     0.000000

units ang
no_reorient
no_com
symmetry c1
}

set {
basis        aug-cc-pVTZ
scf_type     df
}

energy("mp2")
--------------------------------------------------------------------------

    Molecular point group: c1

    Geometry (in Angstrom), charge = -1, multiplicity = 1:

       Center              X                  Y                   Z               Mass
    ------------   -----------------  -----------------  -----------------  -----------------
         F            0.000000000000     0.000000000000     0.000000000000    18.998403162730
      Gh(LI)          0.000000000000     1.584155000000     0.000000000000     7.016003436600
      Gh(LI)          3.168310000000     0.000000000000     0.000000000000     7.016003436600

  Charge       = -1
  Multiplicity = 1
  Basis Set: AUG-CC-PVTZ
    Blend: AUG-CC-PVTZ
  Basis Set: (AUG-CC-PVTZ AUX)
    Blend: AUG-CC-PVTZ-JKFIT + DEF2-UNIVERSAL-JKFIT

    Orbital Energies [Eh]
    ---------------------

    Doubly Occupied:

       1A    -25.833789     2A     -1.076038     3A     -0.181000
       4A     -0.180987     5A     -0.180984

  @DF-RHF Final Energy:   -99.45089584232572

   => Energetics <=

    Nuclear Repulsion Energy =              0.0000000000000000
    One-Electron Energy =                -143.9961957833432109
    Two-Electron Energy =                  44.5452999410174968
    Total Energy =                        -99.4508958423257070
 Dipole X            :          0.0001161            0.0000000            0.0001161
 Dipole Y            :          0.0002265            0.0000000            0.0002265
 Dipole Z            :          0.0000000            0.0000000            0.0000000
 Magnitude           :                                                    0.0002545
  Basis Set: (AUG-CC-PVTZ AUX)
    Blend: AUG-CC-PVTZ-RI + DEF2-QZVPP-RI
	 Reference Energy          =     -99.4508958423257212 [Eh]
	 Singles Energy            =      -0.0000000000000000 [Eh]
	 Same-Spin Energy          =      -0.0817640093302109 [Eh]
	 Opposite-Spin Energy      =      -0.2276500188289846 [Eh]
	 Correlation Energy        =      -0.3094140281591955 [Eh]
	 Total Energy              =     -99.7603098704849174 [Eh]

	 ================> DF-SCS-MP2 Energies <==================
	-----------------------------------------------------------
	 SCS Same-Spin Scale       =       0.3333333333333333 [-]
	 SCS Opposite-Spin Scale   =       1.2000000000000000 [-]
	 SCS Same-Spin Energy      =      -0.0272546697767370 [Eh]
	 SCS Opposite-Spin Energy  =      -0.2731800225947816 [Eh]
	 SCS Correlation Energy    =      -0.3004346923715185 [Eh]
	 SCS Total Energy          =     -99.7513305346972459 [Eh]
	-----------------------------------------------------------

*** Psi4 exiting successfully. Buy a developer a beer!
