                               Psi4 1.8.2 release

  ==> Input File <==

--------------------------------------------------------------------------
MEMORY 60 GB

molecule dimer {
-1 1
F      0.000000     0.000000     0.000000
--
1 1
Li     0.000000     1.584155     0.000000
--
1 1
Li     1.900986     0.000000     0.000000

units ang
no_reorient
no_com
symmetry c1
}

set {
basis        aug-cc-pVTZ
scf_type     df
}

energy("mp2", bsse_type="cp")
--------------------------------------------------------------------------

                               Psi4 1.8.2 release
    Molecular point group: c1
  Charge       = -1
  Multiplicity = 1
  Basis Set: AUG-CC-PVTZ
    Blend: AUG-CC-PVTZ
  Basis Set: (AUG-CC-PVTZ AUX)
    Blend: AUG-CC-PVTZ-JKFIT + DEF2-UNIVERSAL-JKFIT
  @DF-RHF Final Energy:   -99.45094629672437
    Total Energy =                        -99.4509462967243678
 Dipole X            :          0.0000328            0.0000000            0.0000328
 Dipole Y            :         -0.0000180            0.0000000           -0.0000180
 Dipole Z            :          0.0000000            0.0000000            0.0000000
 Magnitude           :                                                    0.0000374
  Basis Set: (AUG-CC-PVTZ AUX)
    Blend: AUG-CC-PVTZ-RI + DEF2-QZVPP-RI
	 Reference Energy          =     -99.4509462967243678 [Eh]
	 Singles Energy            =      -0.0000000000000000 [Eh]
	 Same-Spin Energy          =      -0.0818155365307125 [Eh]
	 Opposite-Spin Energy      =      -0.2281903120196336 [Eh]
	 Correlation Energy        =      -0.3100058485503461 [Eh]
	 Total Energy              =     -99.7609521452747146 [Eh]
	 SCS Total Energy          =     -99.7520465166581687 [Eh]
                               Psi4 1.8.2 release
    Molecular point group: c1
  Basis Set: AUG-CC-PVTZ
    Blend: AUG-CC-PVTZ
  Basis Set: (AUG-CC-PVTZ AUX)
    Blend: AUG-CC-PVTZ-JKFIT + DEF2-UNIVERSAL-JKFIT
  @DF-RHF Final Energy:    -7.23638354433414
    Total Energy =                         -7.2363835443341387
  Basis Set: (AUG-CC-PVTZ AUX)
                               Psi4 1.8.2 release
  @DF-RHF Final Energy:   -14.25925663568613
    Total Energy =                        -14.2592566356861319
                               Psi4 1.8.2 release
  @DF-RHF Final Energy:  -106.96262419591353
    Total Energy =                       -106.9626241959135200
                               Psi4 1.8.2 release
  @DF-RHF Final Energy:  -106.98296292728735
    Total Energy =                       -106.9829629272873461
                               Psi4 1.8.2 release
  Multiplicity = 1
  @DF-RHF Final Energy:    -7.23638343236723
    Total Energy =                         -7.2363834323672265
	 Singles Energy            =      -0.0000000000000000 [Eh]
	 Same-Spin Energy          =       0.0000000000000000 [Eh]
	 Opposite-Spin Energy      =      -0.0125943766817517 [Eh]
	 Correlation Energy        =      -0.0125943766817517 [Eh]
	 Total Energy              =      -7.2489778090489780 [Eh]
	 SCS Total Energy          =      -7.2514966843853284 [Eh]
                               Psi4 1.8.2 release
    Molecular point group: c1

    Geometry (in Bohr), charge = 1, multiplicity = 1:

       Center              X                  Y                   Z               Mass
    ------------   -----------------  -----------------  -----------------  -----------------
         F            0.000000000000     0.000000000000     0.000000000000    18.998403162730
         LI           0.000000000000     2.993619090275     0.000000000000     7.016003436600
         LI           3.592342908330     0.000000000000     0.000000000000     7.016003436600

  Charge       = 1
  Multiplicity = 1
  Basis Set: AUG-CC-PVTZ
    Blend: AUG-CC-PVTZ
  Basis Set: (AUG-CC-PVTZ AUX)
    Blend: AUG-CC-PVTZ-JKFIT + DEF2-UNIVERSAL-JKFIT

    Orbital Energies [Eh]
    ---------------------

    Doubly Occupied:

       1A    -26.379697     2A     -2.702721     3A     -2.654182
       4A     -1.647780     5A     -0.762996     6A     -0.753109
       7A     -0.740755

  @DF-RHF Final Energy:  -114.28097406274841

   => Energetics <=

    Nuclear Repulsion Energy =             18.4598166735736626
    One-Electron Energy =                -194.1990992467817421
    Two-Electron Energy =                  61.4583085104596591
    Total Energy =                       -114.2809740627484132
 Dipole X            :         -7.5721618           10.7770287            3.2048669
 Dipole Y            :         -6.3795673            8.9808573            2.6012900
 Dipole Z            :          0.0000000            0.0000000            0.0000000
 Magnitude           :                                                    4.1276969
  Basis Set: (AUG-CC-PVTZ AUX)
    Blend: AUG-CC-PVTZ-RI + DEF2-QZVPP-RI
	 Reference Energy          =    -114.2809740627484132 [Eh]
	 Singles Energy            =      -0.0000000000000000 [Eh]
	 Same-Spin Energy          =      -0.0792001332161065 [Eh]
	 Opposite-Spin Energy      =      -0.2480349442347338 [Eh]
	 Correlation Energy        =      -0.3272350774508402 [Eh]
	 Total Energy              =    -114.6082091401992500 [Eh]

	 ================> DF-SCS-MP2 Energies <==================
	-----------------------------------------------------------
	 SCS Same-Spin Scale       =       0.3333333333333333 [-]
	 SCS Opposite-Spin Scale   =       1.2000000000000000 [-]
	 SCS Same-Spin Energy      =      -0.0264000444053688 [Eh]
	 SCS Opposite-Spin Energy  =      -0.2976419330816805 [Eh]
	 SCS Correlation Energy    =      -0.3240419774870493 [Eh]
	 SCS Total Energy          =    -114.6050160402354692 [Eh]
	-----------------------------------------------------------

*** Psi4 exiting successfully. Buy a developer a beer!
