                               Psi4 1.9 release

  ==> Input File <==

--------------------------------------------------------------------------
MEMORY 60 GB

molecule dimer {
0 1
F      0.000000     0.000000     0.000000
Li     0.000000     1.584155     0.000000
--
1 1
Li     1.742571     0.000000     0.000000

units ang
no_reorient
no_com
symmetry c1
}

set {
basis        aug-cc-pVTZ
scf_type     df
}

energy("mp2", bsse_type="cp")
--------------------------------------------------------------------------

                               Psi4 1.9 release
    Molecular point group: c1
  Charge       = 1
  Multiplicity = 1
  Basis Set: AUG-CC-PVTZ
    Blend: AUG-CC-PVTZ
  Basis Set: (AUG-CC-PVTZ AUX)
    Blend: AUG-CC-PVTZ-JKFIT + DEF2-UNIVERSAL-JKFIT
  @DF-RHF Final Energy:    -7.23638347768136
    Total Energy =                         -7.2363834776813647
 Dipole X            :         -6.5859868            9.8789458            3.2929591
 Dipole Y            :          0.0000518            0.0000000            0.0000518
 Dipole Z            :         -0.0000000            0.0000000           -0.0000000
 Magnitude           :                                                    3.2929591
  Basis Set: (AUG-CC-PVTZ AUX)
    Blend: AUG-CC-PVTZ-RI + DEF2-QZVPP-RI
	 Reference Energy          =      -7.2363834776813647 [Eh]
	 Singles Energy            =      -0.0000000000000000 [Eh]
	 Same-Spin Energy          =       0.0000000000000000 [Eh]
	 Opposite-Spin Energy      =      -0.0130266991610814 [Eh]
	 Correlation Energy        =      -0.0130266991610814 [Eh]
	 Total Energy              =      -7.2494101768424457 [Eh]
	 SCS Total Energy          =      -7.2520155166746623 [Eh]
                               Psi4 1.9 release
    Molecular point group: c1
  Multiplicity = 1
  Basis Set: AUG-CC-PVTZ
    Blend: AUG-CC-PVTZ
  Basis Set: (AUG-CC-PVTZ AUX)
    Blend: AUG-CC-PVTZ-JKFIT + DEF2-UNIVERSAL-JKFIT
  @DF-RHF Final Energy:  -106.98300542174067
    Total Energy =                       -106.9830054217406712
  Basis Set: (AUG-CC-PVTZ AUX)
	 Singles Energy            =      -0.0000000000000000 [Eh]
	 Same-Spin Energy          =      -0.0796835871294426 [Eh]
	 Opposite-Spin Energy      =      -0.2367074306662121 [Eh]
	 Correlation Energy        =      -0.3163910177956548 [Eh]
	 Total Energy              =    -107.2993964395363236 [Eh]
	 SCS Total Energy          =    -107.2936155342499376 [Eh]
                               Psi4 1.9 release
    Molecular point group: c1

    Geometry (in Bohr), charge = 1, multiplicity = 1:

       Center              X                  Y                   Z               Mass
    ------------   -----------------  -----------------  -----------------  -----------------
         F            0.000000000000     0.000000000000     0.000000000000    18.998403162730
         LI           0.000000000000     2.993619090275     0.000000000000     7.016003436600
         LI           3.292981944165     0.000000000000     0.000000000000     7.016003436600

  Charge       = 1
  Multiplicity = 1
  Basis Set: AUG-CC-PVTZ
    Blend: AUG-CC-PVTZ
  Basis Set: (AUG-CC-PVTZ AUX)
    Blend: AUG-CC-PVTZ-JKFIT + DEF2-UNIVERSAL-JKFIT

    Orbital Energies [Eh]
    ---------------------

    Doubly Occupied:

       1A    -26.391974     2A     -2.689103     3A     -2.664370
       4A     -1.665319     5A     -0.779238     6A     -0.772843
       7A     -0.756496

  @DF-RHF Final Energy:  -114.28433287859831

   => Energetics <=

    Nuclear Repulsion Energy =             19.2407584133115108
    One-Electron Energy =                -195.6114937656550978
    Two-Electron Energy =                  62.0864024737452809
    Total Energy =                       -114.2843328785983061
 Dipole X            :         -6.9721343            9.8789458            2.9068115
 Dipole Y            :         -6.3728433            8.9808573            2.6080139
 Dipole Z            :         -0.0000000            0.0000000           -0.0000000
 Magnitude           :                                                    3.9052900
  Basis Set: (AUG-CC-PVTZ AUX)
    Blend: AUG-CC-PVTZ-RI + DEF2-QZVPP-RI
	 Reference Energy          =    -114.2843328785983061 [Eh]
	 Singles Energy            =      -0.0000000000000000 [Eh]
	 Same-Spin Energy          =      -0.0788521702186314 [Eh]
	 Opposite-Spin Energy      =      -0.2476390330435387 [Eh]
	 Correlation Energy        =      -0.3264912032621701 [Eh]
	 Total Energy              =    -114.6108240818604713 [Eh]

	 ================> DF-SCS-MP2 Energies <==================
	-----------------------------------------------------------
	 SCS Same-Spin Scale       =       0.3333333333333333 [-]
	 SCS Opposite-Spin Scale   =       1.2000000000000000 [-]
	 SCS Same-Spin Energy      =      -0.0262840567395438 [Eh]
	 SCS Opposite-Spin Energy  =      -0.2971668396522465 [Eh]
	 SCS Correlation Energy    =      -0.3234508963917903 [Eh]
	 SCS Total Energy          =    -114.6077837749900965 [Eh]
	-----------------------------------------------------------

*** Psi4 exiting successfully. Buy a developer a beer!
