                               Psi4 1.8.2 release

  ==> Input File <==

--------------------------------------------------------------------------
MEMORY 60 GB

molecule dimer {
-1 1
F      0.000000     0.000000     0.000000
--
1 1
Li     0.000000     1.584155     0.000000
--
1 1
Li     3.168310     0.000000     0.000000

units ang
no_reorient
no_com
symmetry c1
}

set {
basis        aug-cc-pVTZ
scf_type     df
}

energy("mp2", bsse_type="cp")
--------------------------------------------------------------------------

                               Psi4 1.8.2 release
    Molecular point group: c1
  Charge       = -1
  Multiplicity = 1
  Basis Set: AUG-CC-PVTZ
    Blend: AUG-CC-PVTZ
  Basis Set: (AUG-CC-PVTZ AUX)
    Blend: AUG-CC-PVTZ-JKFIT + DEF2-UNIVERSAL-JKFIT
  @DF-RHF Final Energy:   -99.45089584232582
    Total Energy =                        -99.4508958423258207
 Dipole X            :          0.0001161            0.0000000            0.0001161
 Dipole Y            :          0.0002265            0.0000000            0.0002265
 Dipole Z            :          0.0000000            0.0000000            0.0000000
 Magnitude           :                                                    0.0002545
  Basis Set: (AUG-CC-PVTZ AUX)
    Blend: AUG-CC-PVTZ-RI + DEF2-QZVPP-RI
	 Reference Energy          =     -99.4508958423258207 [Eh]
	 Singles Energy            =      -0.0000000000000000 [Eh]
	 Same-Spin Energy          =      -0.0817640093302109 [Eh]
	 Opposite-Spin Energy      =      -0.2276500188289849 [Eh]
	 Correlation Energy        =      -0.3094140281591958 [Eh]
	 Total Energy              =     -99.7603098704850169 [Eh]
	 SCS Total Energy          =     -99.7513305346973453 [Eh]
                               Psi4 1.8.2 release
    Molecular point group: c1
  Basis Set: AUG-CC-PVTZ
    Blend: AUG-CC-PVTZ
  Basis Set: (AUG-CC-PVTZ AUX)
    Blend: AUG-CC-PVTZ-JKFIT + DEF2-UNIVERSAL-JKFIT
  @DF-RHF Final Energy:    -7.23638336207293
    Total Energy =                         -7.2363833620729254
  Basis Set: (AUG-CC-PVTZ AUX)
                               Psi4 1.8.2 release
  @DF-RHF Final Energy:   -14.32344755216542
    Total Energy =                        -14.3234475521654243
                               Psi4 1.8.2 release
  @DF-RHF Final Energy:  -106.85918540432253
    Total Energy =                       -106.8591854043225311
                               Psi4 1.8.2 release
  @DF-RHF Final Energy:  -106.98272342060811
    Total Energy =                       -106.9827234206080959
                               Psi4 1.8.2 release
  Multiplicity = 1
  @DF-RHF Final Energy:    -7.23638299175279
    Total Energy =                         -7.2363829917527855
	 Singles Energy            =      -0.0000000000000000 [Eh]
	 Same-Spin Energy          =       0.0000000000000000 [Eh]
	 Opposite-Spin Energy      =      -0.0114070166157942 [Eh]
	 Correlation Energy        =      -0.0114070166157942 [Eh]
	 Total Energy              =      -7.2477900083685798 [Eh]
	 SCS Total Energy          =      -7.2500714116917386 [Eh]
                               Psi4 1.8.2 release
    Molecular point group: c1

    Geometry (in Bohr), charge = 1, multiplicity = 1:

       Center              X                  Y                   Z               Mass
    ------------   -----------------  -----------------  -----------------  -----------------
         F            0.000000000000     0.000000000000     0.000000000000    18.998403162730
         LI           0.000000000000     2.993619090275     0.000000000000     7.016003436600
         LI           5.987238180549     0.000000000000     0.000000000000     7.016003436600

  Charge       = 1
  Multiplicity = 1
  Basis Set: AUG-CC-PVTZ
    Blend: AUG-CC-PVTZ
  Basis Set: (AUG-CC-PVTZ AUX)
    Blend: AUG-CC-PVTZ-JKFIT + DEF2-UNIVERSAL-JKFIT

    Orbital Energies [Eh]
    ---------------------

    Doubly Occupied:

       1A    -26.286326     2A     -2.767269     3A     -2.589534
       4A     -1.547847     5A     -0.667437     6A     -0.644830
       7A     -0.643933

  @DF-RHF Final Energy:  -114.23968025131829

   => Energetics <=

    Nuclear Repulsion Energy =             14.8732757965592555
    One-Electron Energy =                -187.9315606891122457
    Two-Electron Energy =                  58.8186046412346997
    Total Energy =                       -114.2396802513182905
 Dipole X            :        -12.2097843           17.9617145            5.7519303
 Dipole Y            :         -6.4005209            8.9808573            2.5803364
 Dipole Z            :         -0.0000000            0.0000000           -0.0000000
 Magnitude           :                                                    6.3041921
  Basis Set: (AUG-CC-PVTZ AUX)
    Blend: AUG-CC-PVTZ-RI + DEF2-QZVPP-RI
	 Reference Energy          =    -114.2396802513182905 [Eh]
	 Singles Energy            =      -0.0000000000000000 [Eh]
	 Same-Spin Energy          =      -0.0798796907602235 [Eh]
	 Opposite-Spin Energy      =      -0.2476408385201184 [Eh]
	 Correlation Energy        =      -0.3275205292803420 [Eh]
	 Total Energy              =    -114.5672007805986254 [Eh]

	 ================> DF-SCS-MP2 Energies <==================
	-----------------------------------------------------------
	 SCS Same-Spin Scale       =       0.3333333333333333 [-]
	 SCS Opposite-Spin Scale   =       1.2000000000000000 [-]
	 SCS Same-Spin Energy      =      -0.0266265635867412 [Eh]
	 SCS Opposite-Spin Energy  =      -0.2971690062241421 [Eh]
	 SCS Correlation Energy    =      -0.3237955698108833 [Eh]
	 SCS Total Energy          =    -114.5634758211291739 [Eh]
	-----------------------------------------------------------

*** Psi4 exiting successfully. Buy a developer a beer!
