                               Psi4 1.8.2 release

  ==> Input File <==

--------------------------------------------------------------------------
MEMORY 60 GB

molecule dimer {
-1 1
F      0.000000     0.000000     0.000000
--
1 1
Li     0.000000     1.584155     0.000000
--
1 1
Li     2.059401     0.000000     0.000000

units ang
no_reorient
no_com
symmetry c1
}

set {
basis        aug-cc-pVTZ
scf_type     df
}

energy("mp2", bsse_type="cp")
--------------------------------------------------------------------------

                               Psi4 1.8.2 release
    Molecular point group: c1
  Charge       = -1
  Multiplicity = 1
  Basis Set: AUG-CC-PVTZ
    Blend: AUG-CC-PVTZ
  Basis Set: (AUG-CC-PVTZ AUX)
    Blend: AUG-CC-PVTZ-JKFIT + DEF2-UNIVERSAL-JKFIT
  @DF-RHF Final Energy:   -99.45093583779615
    Total Energy =                        -99.4509358377961661
 Dipole X            :         -0.0000051            0.0000000           -0.0000051
 Dipole Y            :         -0.0000019            0.0000000           -0.0000019
 Dipole Z            :         -0.0000000            0.0000000           -0.0000000
 Magnitude           :                                                    0.0000054
  Basis Set: (AUG-CC-PVTZ AUX)
    Blend: AUG-CC-PVTZ-RI + DEF2-QZVPP-RI
	 Reference Energy          =     -99.4509358377961519 [Eh]
	 Singles Energy            =      -0.0000000000000000 [Eh]
	 Same-Spin Energy          =      -0.0818038295487694 [Eh]
	 Opposite-Spin Energy      =      -0.2280745359211054 [Eh]
	 Correlation Energy        =      -0.3098783654698749 [Eh]
	 Total Energy              =     -99.7608142032660226 [Eh]
	 SCS Total Energy          =     -99.7518932240843981 [Eh]
                               Psi4 1.8.2 release
    Molecular point group: c1
  Basis Set: AUG-CC-PVTZ
    Blend: AUG-CC-PVTZ
  Basis Set: (AUG-CC-PVTZ AUX)
    Blend: AUG-CC-PVTZ-JKFIT + DEF2-UNIVERSAL-JKFIT
  @DF-RHF Final Energy:    -7.23638353927556
    Total Energy =                         -7.2363835392755558
  Basis Set: (AUG-CC-PVTZ AUX)
                               Psi4 1.8.2 release
  @DF-RHF Final Energy:   -14.26937133320073
    Total Energy =                        -14.2693713332007270
                               Psi4 1.8.2 release
  @DF-RHF Final Energy:  -106.94736306232227
    Total Energy =                       -106.9473630623222675
                               Psi4 1.8.2 release
  @DF-RHF Final Energy:  -106.98291464319939
    Total Energy =                       -106.9829146431993934
                               Psi4 1.8.2 release
  Multiplicity = 1
  @DF-RHF Final Energy:    -7.23638334032898
    Total Energy =                         -7.2363833403289757
	 Singles Energy            =      -0.0000000000000000 [Eh]
	 Same-Spin Energy          =       0.0000000000000000 [Eh]
	 Opposite-Spin Energy      =      -0.0122439798214703 [Eh]
	 Correlation Energy        =      -0.0122439798214703 [Eh]
	 Total Energy              =      -7.2486273201504456 [Eh]
	 SCS Total Energy          =      -7.2510761161147403 [Eh]
                               Psi4 1.8.2 release
    Molecular point group: c1

    Geometry (in Bohr), charge = 1, multiplicity = 1:

       Center              X                  Y                   Z               Mass
    ------------   -----------------  -----------------  -----------------  -----------------
         F            0.000000000000     0.000000000000     0.000000000000    18.998403162730
         LI           0.000000000000     2.993619090275     0.000000000000     7.016003436600
         LI           3.891703872494     0.000000000000     0.000000000000     7.016003436600

  Charge       = 1
  Multiplicity = 1
  Basis Set: AUG-CC-PVTZ
    Blend: AUG-CC-PVTZ
  Basis Set: (AUG-CC-PVTZ AUX)
    Blend: AUG-CC-PVTZ-JKFIT + DEF2-UNIVERSAL-JKFIT

    Orbital Energies [Eh]
    ---------------------

    Doubly Occupied:

       1A    -26.366879     2A     -2.715286     3A     -2.644479
       4A     -1.631597     5A     -0.748118     6A     -0.734382
       7A     -0.725989

  @DF-RHF Final Energy:  -114.27503480921739

   => Energetics <=

    Nuclear Repulsion Energy =             17.7900500666376153
    One-Electron Energy =                -192.9967076625425193
    Two-Electron Energy =                  60.9316227866875266
    Total Energy =                       -114.2750348092173880
 Dipole X            :         -8.1648746           11.6751116            3.5102370
 Dipole Y            :         -6.3851062            8.9808573            2.5957511
 Dipole Z            :         -0.0000000            0.0000000           -0.0000000
 Magnitude           :                                                    4.3657402
  Basis Set: (AUG-CC-PVTZ AUX)
    Blend: AUG-CC-PVTZ-RI + DEF2-QZVPP-RI
	 Reference Energy          =    -114.2750348092173880 [Eh]
	 Singles Energy            =      -0.0000000000000000 [Eh]
	 Same-Spin Energy          =      -0.0794767758367911 [Eh]
	 Opposite-Spin Energy      =      -0.2482744229792942 [Eh]
	 Correlation Energy        =      -0.3277511988160853 [Eh]
	 Total Energy              =    -114.6027860080334762 [Eh]

	 ================> DF-SCS-MP2 Energies <==================
	-----------------------------------------------------------
	 SCS Same-Spin Scale       =       0.3333333333333333 [-]
	 SCS Opposite-Spin Scale   =       1.2000000000000000 [-]
	 SCS Same-Spin Energy      =      -0.0264922586122637 [Eh]
	 SCS Opposite-Spin Energy  =      -0.2979293075751530 [Eh]
	 SCS Correlation Energy    =      -0.3244215661874167 [Eh]
	 SCS Total Energy          =    -114.5994563754047988 [Eh]
	-----------------------------------------------------------

*** Psi4 exiting successfully. Buy a developer a beer!
