                               Psi4 1.8.2 release

  ==> Input File <==

--------------------------------------------------------------------------
MEMORY 60 GB

molecule dimer {
1 1
F          0.000000     0.000000     0.000000
Li         0.000000     1.584155     0.000000
Li         1.900986     0.000000     0.000000

units ang
no_reorient
no_com
symmetry c1
}

set {
basis        aug-cc-pVTZ
scf_type     df
}

energy("mp2")
--------------------------------------------------------------------------

    Molecular point group: c1

    Geometry (in Angstrom), charge = 1, multiplicity = 1:

       Center              X                  Y                   Z               Mass
    ------------   -----------------  -----------------  -----------------  -----------------
         F            0.000000000000     0.000000000000     0.000000000000    18.998403162730
         LI           0.000000000000     1.584155000000     0.000000000000     7.016003436600
         LI           1.900986000000     0.000000000000     0.000000000000     7.016003436600

  Charge       = 1
  Multiplicity = 1
  Basis Set: AUG-CC-PVTZ
    Blend: AUG-CC-PVTZ
  Basis Set: (AUG-CC-PVTZ AUX)
    Blend: AUG-CC-PVTZ-JKFIT + DEF2-UNIVERSAL-JKFIT

    Orbital Energies [Eh]
    ---------------------

    Doubly Occupied:

       1A    -26.379697     2A     -2.702721     3A     -2.654182
       4A     -1.647780     5A     -0.762996     6A     -0.753109
       7A     -0.740755

  @DF-RHF Final Energy:  -114.28097406274838

   => Energetics <=

    Nuclear Repulsion Energy =             18.4598166735736626
    One-Electron Energy =                -194.1990992467816000
    Two-Electron Energy =                  61.4583085104595455
    Total Energy =                       -114.2809740627483848
 Dipole X            :         -7.5721618           10.7770287            3.2048669
 Dipole Y            :         -6.3795673            8.9808573            2.6012900
 Dipole Z            :          0.0000000            0.0000000            0.0000000
 Magnitude           :                                                    4.1276969
  Basis Set: (AUG-CC-PVTZ AUX)
    Blend: AUG-CC-PVTZ-RI + DEF2-QZVPP-RI
	 Reference Energy          =    -114.2809740627483848 [Eh]
	 Singles Energy            =      -0.0000000000000000 [Eh]
	 Same-Spin Energy          =      -0.0792001332161058 [Eh]
	 Opposite-Spin Energy      =      -0.2480349442347393 [Eh]
	 Correlation Energy        =      -0.3272350774508451 [Eh]
	 Total Energy              =    -114.6082091401992358 [Eh]

	 ================> DF-SCS-MP2 Energies <==================
	-----------------------------------------------------------
	 SCS Same-Spin Scale       =       0.3333333333333333 [-]
	 SCS Opposite-Spin Scale   =       1.2000000000000000 [-]
	 SCS Same-Spin Energy      =      -0.0264000444053686 [Eh]
	 SCS Opposite-Spin Energy  =      -0.2976419330816871 [Eh]
	 SCS Correlation Energy    =      -0.3240419774870558 [Eh]
	 SCS Total Energy          =    -114.6050160402354408 [Eh]
	-----------------------------------------------------------

*** Psi4 exiting successfully. Buy a developer a beer!
