                               Psi4 1.9 release

  ==> Input File <==

--------------------------------------------------------------------------
MEMORY 60 GB

molecule dimer {
0 1
F      0.000000     0.000000     0.000000
Li     0.000000     1.584155     0.000000
--
1 1
Li     3.168310     0.000000     0.000000

units ang
no_reorient
no_com
symmetry c1
}

set {
basis        aug-cc-pVTZ
scf_type     df
}

energy("mp2", bsse_type="cp")
--------------------------------------------------------------------------

                               Psi4 1.9 release
    Molecular point group: c1
  Charge       = 1
  Multiplicity = 1
  Basis Set: AUG-CC-PVTZ
    Blend: AUG-CC-PVTZ
  Basis Set: (AUG-CC-PVTZ AUX)
    Blend: AUG-CC-PVTZ-JKFIT + DEF2-UNIVERSAL-JKFIT
  @DF-RHF Final Energy:    -7.23638299175280
    Total Energy =                         -7.2363829917528015
 Dipole X            :        -11.9745223           17.9617145            5.9871923
 Dipole Y            :          0.0000192            0.0000000            0.0000192
 Dipole Z            :          0.0000000            0.0000000            0.0000000
 Magnitude           :                                                    5.9871923
  Basis Set: (AUG-CC-PVTZ AUX)
    Blend: AUG-CC-PVTZ-RI + DEF2-QZVPP-RI
	 Reference Energy          =      -7.2363829917528015 [Eh]
	 Singles Energy            =      -0.0000000000000000 [Eh]
	 Same-Spin Energy          =       0.0000000000000000 [Eh]
	 Opposite-Spin Energy      =      -0.0114070166157958 [Eh]
	 Correlation Energy        =      -0.0114070166157958 [Eh]
	 Total Energy              =      -7.2477900083685975 [Eh]
	 SCS Total Energy          =      -7.2500714116917564 [Eh]
                               Psi4 1.9 release
    Molecular point group: c1
  Multiplicity = 1
  Basis Set: AUG-CC-PVTZ
    Blend: AUG-CC-PVTZ
  Basis Set: (AUG-CC-PVTZ AUX)
    Blend: AUG-CC-PVTZ-JKFIT + DEF2-UNIVERSAL-JKFIT
  @DF-RHF Final Energy:  -106.98272342060902
    Total Energy =                       -106.9827234206090196
  Basis Set: (AUG-CC-PVTZ AUX)
	 Singles Energy            =      -0.0000000000000000 [Eh]
	 Same-Spin Energy          =      -0.0795884012682889 [Eh]
	 Opposite-Spin Energy      =      -0.2355121040051451 [Eh]
	 Correlation Energy        =      -0.3151005052734339 [Eh]
	 Total Energy              =    -107.2978239258824544 [Eh]
	 SCS Total Energy          =    -107.2918674125046294 [Eh]
                               Psi4 1.9 release
    Molecular point group: c1

    Geometry (in Bohr), charge = 1, multiplicity = 1:

       Center              X                  Y                   Z               Mass
    ------------   -----------------  -----------------  -----------------  -----------------
         F            0.000000000000     0.000000000000     0.000000000000    18.998403162730
         LI           0.000000000000     2.993619090275     0.000000000000     7.016003436600
         LI           5.987238180549     0.000000000000     0.000000000000     7.016003436600

  Charge       = 1
  Multiplicity = 1
  Basis Set: AUG-CC-PVTZ
    Blend: AUG-CC-PVTZ
  Basis Set: (AUG-CC-PVTZ AUX)
    Blend: AUG-CC-PVTZ-JKFIT + DEF2-UNIVERSAL-JKFIT

    Orbital Energies [Eh]
    ---------------------

    Doubly Occupied:

       1A    -26.286326     2A     -2.767269     3A     -2.589534
       4A     -1.547847     5A     -0.667437     6A     -0.644830
       7A     -0.643933

  @DF-RHF Final Energy:  -114.23968025131948

   => Energetics <=

    Nuclear Repulsion Energy =             14.8732757965592555
    One-Electron Energy =                -187.9315606891135246
    Two-Electron Energy =                  58.8186046412347849
    Total Energy =                       -114.2396802513194842
 Dipole X            :        -12.2097843           17.9617145            5.7519303
 Dipole Y            :         -6.4005209            8.9808573            2.5803364
 Dipole Z            :         -0.0000000            0.0000000           -0.0000000
 Magnitude           :                                                    6.3041921
  Basis Set: (AUG-CC-PVTZ AUX)
    Blend: AUG-CC-PVTZ-RI + DEF2-QZVPP-RI
	 Reference Energy          =    -114.2396802513194842 [Eh]
	 Singles Energy            =      -0.0000000000000000 [Eh]
	 Same-Spin Energy          =      -0.0798796907602182 [Eh]
	 Opposite-Spin Energy      =      -0.2476408385202057 [Eh]
	 Correlation Energy        =      -0.3275205292804239 [Eh]
	 Total Energy              =    -114.5672007805999044 [Eh]

	 ================> DF-SCS-MP2 Energies <==================
	-----------------------------------------------------------
	 SCS Same-Spin Scale       =       0.3333333333333333 [-]
	 SCS Opposite-Spin Scale   =       1.2000000000000000 [-]
	 SCS Same-Spin Energy      =      -0.0266265635867394 [Eh]
	 SCS Opposite-Spin Energy  =      -0.2971690062242468 [Eh]
	 SCS Correlation Energy    =      -0.3237955698109862 [Eh]
	 SCS Total Energy          =    -114.5634758211304671 [Eh]
	-----------------------------------------------------------

*** Psi4 exiting successfully. Buy a developer a beer!
