                               Psi4 1.8.2 release

  ==> Input File <==

--------------------------------------------------------------------------
MEMORY 60 GB

molecule dimer {
1 1
F          0.000000     0.000000     0.000000
Li         0.000000     1.584155     0.000000
Li         3.168310     0.000000     0.000000

units ang
no_reorient
no_com
symmetry c1
}

set {
basis        aug-cc-pVTZ
scf_type     df
}

energy("mp2")
--------------------------------------------------------------------------

    Molecular point group: c1

    Geometry (in Angstrom), charge = 1, multiplicity = 1:

       Center              X                  Y                   Z               Mass
    ------------   -----------------  -----------------  -----------------  -----------------
         F            0.000000000000     0.000000000000     0.000000000000    18.998403162730
         LI           0.000000000000     1.584155000000     0.000000000000     7.016003436600
         LI           3.168310000000     0.000000000000     0.000000000000     7.016003436600

  Charge       = 1
  Multiplicity = 1
  Basis Set: AUG-CC-PVTZ
    Blend: AUG-CC-PVTZ
  Basis Set: (AUG-CC-PVTZ AUX)
    Blend: AUG-CC-PVTZ-JKFIT + DEF2-UNIVERSAL-JKFIT

    Orbital Energies [Eh]
    ---------------------

    Doubly Occupied:

       1A    -26.286326     2A     -2.767269     3A     -2.589534
       4A     -1.547847     5A     -0.667437     6A     -0.644830
       7A     -0.643933

  @DF-RHF Final Energy:  -114.23968025131816

   => Energetics <=

    Nuclear Repulsion Energy =             14.8732757965592555
    One-Electron Energy =                -187.9315606891119899
    Two-Electron Energy =                  58.8186046412345789
    Total Energy =                       -114.2396802513181626
 Dipole X            :        -12.2097843           17.9617145            5.7519303
 Dipole Y            :         -6.4005209            8.9808573            2.5803364
 Dipole Z            :         -0.0000000            0.0000000           -0.0000000
 Magnitude           :                                                    6.3041921
  Basis Set: (AUG-CC-PVTZ AUX)
    Blend: AUG-CC-PVTZ-RI + DEF2-QZVPP-RI
	 Reference Energy          =    -114.2396802513181626 [Eh]
	 Singles Energy            =      -0.0000000000000000 [Eh]
	 Same-Spin Energy          =      -0.0798796907602241 [Eh]
	 Opposite-Spin Energy      =      -0.2476408385201214 [Eh]
	 Correlation Energy        =      -0.3275205292803456 [Eh]
	 Total Energy              =    -114.5672007805985118 [Eh]

	 ================> DF-SCS-MP2 Energies <==================
	-----------------------------------------------------------
	 SCS Same-Spin Scale       =       0.3333333333333333 [-]
	 SCS Opposite-Spin Scale   =       1.2000000000000000 [-]
	 SCS Same-Spin Energy      =      -0.0266265635867414 [Eh]
	 SCS Opposite-Spin Energy  =      -0.2971690062241457 [Eh]
	 SCS Correlation Energy    =      -0.3237955698108871 [Eh]
	 SCS Total Energy          =    -114.5634758211290460 [Eh]
	-----------------------------------------------------------

*** Psi4 exiting successfully. Buy a developer a beer!
