                               Psi4 1.8.2 release

  ==> Input File <==

--------------------------------------------------------------------------
MEMORY 60 GB

molecule dimer {
1 1
F          0.000000     0.000000     0.000000
Li         0.000000     1.584155     0.000000
Li         1.742571     0.000000     0.000000

units ang
no_reorient
no_com
symmetry c1
}

set {
basis        aug-cc-pVTZ
scf_type     df
}

energy("mp2")
--------------------------------------------------------------------------

    Molecular point group: c1

    Geometry (in Angstrom), charge = 1, multiplicity = 1:

       Center              X                  Y                   Z               Mass
    ------------   -----------------  -----------------  -----------------  -----------------
         F            0.000000000000     0.000000000000     0.000000000000    18.998403162730
         LI           0.000000000000     1.584155000000     0.000000000000     7.016003436600
         LI           1.742571000000     0.000000000000     0.000000000000     7.016003436600

  Charge       = 1
  Multiplicity = 1
  Basis Set: AUG-CC-PVTZ
    Blend: AUG-CC-PVTZ
  Basis Set: (AUG-CC-PVTZ AUX)
    Blend: AUG-CC-PVTZ-JKFIT + DEF2-UNIVERSAL-JKFIT

    Orbital Energies [Eh]
    ---------------------

    Doubly Occupied:

       1A    -26.391974     2A     -2.689103     3A     -2.664370
       4A     -1.665319     5A     -0.779238     6A     -0.772843
       7A     -0.756496

  @DF-RHF Final Energy:  -114.28433287860210

   => Energetics <=

    Nuclear Repulsion Energy =             19.2407584133115108
    One-Electron Energy =                -195.6114937656538757
    Two-Electron Energy =                  62.0864024737402573
    Total Energy =                       -114.2843328786021004
 Dipole X            :         -6.9721343            9.8789458            2.9068115
 Dipole Y            :         -6.3728433            8.9808573            2.6080139
 Dipole Z            :          0.0000000            0.0000000            0.0000000
 Magnitude           :                                                    3.9052900
  Basis Set: (AUG-CC-PVTZ AUX)
    Blend: AUG-CC-PVTZ-RI + DEF2-QZVPP-RI
	 Reference Energy          =    -114.2843328786021004 [Eh]
	 Singles Energy            =      -0.0000000000000000 [Eh]
	 Same-Spin Energy          =      -0.0788521702186252 [Eh]
	 Opposite-Spin Energy      =      -0.2476390330438627 [Eh]
	 Correlation Energy        =      -0.3264912032624879 [Eh]
	 Total Energy              =    -114.6108240818645925 [Eh]

	 ================> DF-SCS-MP2 Energies <==================
	-----------------------------------------------------------
	 SCS Same-Spin Scale       =       0.3333333333333333 [-]
	 SCS Opposite-Spin Scale   =       1.2000000000000000 [-]
	 SCS Same-Spin Energy      =      -0.0262840567395417 [Eh]
	 SCS Opposite-Spin Energy  =      -0.2971668396526352 [Eh]
	 SCS Correlation Energy    =      -0.3234508963921770 [Eh]
	 SCS Total Energy          =    -114.6077837749942745 [Eh]
	-----------------------------------------------------------

*** Psi4 exiting successfully. Buy a developer a beer!
