                               Psi4 1.8.2 release

  ==> Input File <==

--------------------------------------------------------------------------
MEMORY 60 GB

molecule dimer {
1 1
F          0.000000     0.000000     0.000000
Li         0.000000     1.584155     0.000000
Li         1.584155     0.000000     0.000000

units ang
no_reorient
no_com
symmetry c1
}

set {
basis        aug-cc-pVTZ
scf_type     df
}

energy("mp2")
--------------------------------------------------------------------------

    Molecular point group: c1

    Geometry (in Angstrom), charge = 1, multiplicity = 1:

       Center              X                  Y                   Z               Mass
    ------------   -----------------  -----------------  -----------------  -----------------
         F            0.000000000000     0.000000000000     0.000000000000    18.998403162730
         LI           0.000000000000     1.584155000000     0.000000000000     7.016003436600
         LI           1.584155000000     0.000000000000     0.000000000000     7.016003436600

  Charge       = 1
  Multiplicity = 1
  Basis Set: AUG-CC-PVTZ
    Blend: AUG-CC-PVTZ
  Basis Set: (AUG-CC-PVTZ AUX)
    Blend: AUG-CC-PVTZ-JKFIT + DEF2-UNIVERSAL-JKFIT

    Orbital Energies [Eh]
    ---------------------

    Doubly Occupied:

       1A    -26.403219     2A     -2.676929     3A     -2.673503
       4A     -1.684176     5A     -0.797737     6A     -0.792357
       7A     -0.773604

  @DF-RHF Final Energy:  -114.28115868539426

   => Energetics <=

    Nuclear Repulsion Energy =             20.1642090093502588
    One-Electron Energy =                -197.2876831829439084
    Two-Electron Energy =                  62.8423154881993895
    Total Energy =                       -114.2811586853942600
 Dipole X            :         -6.3649372            8.9808573            2.6159201
 Dipole Y            :         -6.3649372            8.9808573            2.6159201
 Dipole Z            :         -0.0000000            0.0000000           -0.0000000
 Magnitude           :                                                    3.6994697
  Basis Set: (AUG-CC-PVTZ AUX)
    Blend: AUG-CC-PVTZ-RI + DEF2-QZVPP-RI
	 Reference Energy          =    -114.2811586853942600 [Eh]
	 Singles Energy            =      -0.0000000000000000 [Eh]
	 Same-Spin Energy          =      -0.0784514679623478 [Eh]
	 Opposite-Spin Energy      =      -0.2470724613322046 [Eh]
	 Correlation Energy        =      -0.3255239292945524 [Eh]
	 Total Energy              =    -114.6066826146888076 [Eh]

	 ================> DF-SCS-MP2 Energies <==================
	-----------------------------------------------------------
	 SCS Same-Spin Scale       =       0.3333333333333333 [-]
	 SCS Opposite-Spin Scale   =       1.2000000000000000 [-]
	 SCS Same-Spin Energy      =      -0.0261504893207826 [Eh]
	 SCS Opposite-Spin Energy  =      -0.2964869535986456 [Eh]
	 SCS Correlation Energy    =      -0.3226374429194281 [Eh]
	 SCS Total Energy          =    -114.6037961283136895 [Eh]
	-----------------------------------------------------------

*** Psi4 exiting successfully. Buy a developer a beer!
