                               Psi4 1.9 release

  ==> Input File <==

--------------------------------------------------------------------------
MEMORY 60 GB

molecule dimer {
0 1
F      0.000000     0.000000     0.000000
Li     0.000000     1.584155     0.000000
--
1 1
Li     1.584155     0.000000     0.000000

units ang
no_reorient
no_com
symmetry c1
}

set {
basis        aug-cc-pVTZ
scf_type     df
}

energy("mp2", bsse_type="cp")
--------------------------------------------------------------------------

                               Psi4 1.9 release
    Molecular point group: c1
  Charge       = 1
  Multiplicity = 1
  Basis Set: AUG-CC-PVTZ
    Blend: AUG-CC-PVTZ
  Basis Set: (AUG-CC-PVTZ AUX)
    Blend: AUG-CC-PVTZ-JKFIT + DEF2-UNIVERSAL-JKFIT
  @DF-RHF Final Energy:    -7.23638354326399
    Total Energy =                         -7.2363835432639902
 Dipole X            :         -5.9872472            8.9808573            2.9936101
 Dipole Y            :          0.0000597            0.0000000            0.0000597
 Dipole Z            :         -0.0000000            0.0000000           -0.0000000
 Magnitude           :                                                    2.9936101
  Basis Set: (AUG-CC-PVTZ AUX)
    Blend: AUG-CC-PVTZ-RI + DEF2-QZVPP-RI
	 Reference Energy          =      -7.2363835432639902 [Eh]
	 Singles Energy            =      -0.0000000000000000 [Eh]
	 Same-Spin Energy          =      -0.0000000000000000 [Eh]
	 Opposite-Spin Energy      =      -0.0135267298203471 [Eh]
	 Correlation Energy        =      -0.0135267298203471 [Eh]
	 Total Energy              =      -7.2499102730843372 [Eh]
	 SCS Total Energy          =      -7.2526156190484068 [Eh]
                               Psi4 1.9 release
    Molecular point group: c1
  Multiplicity = 1
  Basis Set: AUG-CC-PVTZ
    Blend: AUG-CC-PVTZ
  Basis Set: (AUG-CC-PVTZ AUX)
    Blend: AUG-CC-PVTZ-JKFIT + DEF2-UNIVERSAL-JKFIT
  @DF-RHF Final Energy:  -106.98303637483120
    Total Energy =                       -106.9830363748312010
  Basis Set: (AUG-CC-PVTZ AUX)
	 Singles Energy            =      -0.0000000000000000 [Eh]
	 Same-Spin Energy          =      -0.0797032998331847 [Eh]
	 Opposite-Spin Energy      =      -0.2369602891729249 [Eh]
	 Correlation Energy        =      -0.3166635890061096 [Eh]
	 Total Energy              =    -107.2996999638373126 [Eh]
	 SCS Total Energy          =    -107.2939564884497656 [Eh]
                               Psi4 1.9 release
    Molecular point group: c1

    Geometry (in Bohr), charge = 1, multiplicity = 1:

       Center              X                  Y                   Z               Mass
    ------------   -----------------  -----------------  -----------------  -----------------
         F            0.000000000000     0.000000000000     0.000000000000    18.998403162730
         LI           0.000000000000     2.993619090275     0.000000000000     7.016003436600
         LI           2.993619090275     0.000000000000     0.000000000000     7.016003436600

  Charge       = 1
  Multiplicity = 1
  Basis Set: AUG-CC-PVTZ
    Blend: AUG-CC-PVTZ
  Basis Set: (AUG-CC-PVTZ AUX)
    Blend: AUG-CC-PVTZ-JKFIT + DEF2-UNIVERSAL-JKFIT

    Orbital Energies [Eh]
    ---------------------

    Doubly Occupied:

       1A    -26.403219     2A     -2.676929     3A     -2.673503
       4A     -1.684176     5A     -0.797737     6A     -0.792357
       7A     -0.773604

  @DF-RHF Final Energy:  -114.28115868539945

   => Energetics <=

    Nuclear Repulsion Energy =             20.1642090093502588
    One-Electron Energy =                -197.2876831829449600
    Two-Electron Energy =                  62.8423154881952470
    Total Energy =                       -114.2811586853994470
 Dipole X            :         -6.3649372            8.9808573            2.6159201
 Dipole Y            :         -6.3649372            8.9808573            2.6159201
 Dipole Z            :         -0.0000000            0.0000000           -0.0000000
 Magnitude           :                                                    3.6994697
  Basis Set: (AUG-CC-PVTZ AUX)
    Blend: AUG-CC-PVTZ-RI + DEF2-QZVPP-RI
	 Reference Energy          =    -114.2811586853994470 [Eh]
	 Singles Energy            =      -0.0000000000000000 [Eh]
	 Same-Spin Energy          =      -0.0784514679623672 [Eh]
	 Opposite-Spin Energy      =      -0.2470724613318345 [Eh]
	 Correlation Energy        =      -0.3255239292942017 [Eh]
	 Total Energy              =    -114.6066826146936535 [Eh]

	 ================> DF-SCS-MP2 Energies <==================
	-----------------------------------------------------------
	 SCS Same-Spin Scale       =       0.3333333333333333 [-]
	 SCS Opposite-Spin Scale   =       1.2000000000000000 [-]
	 SCS Same-Spin Energy      =      -0.0261504893207891 [Eh]
	 SCS Opposite-Spin Energy  =      -0.2964869535982014 [Eh]
	 SCS Correlation Energy    =      -0.3226374429189905 [Eh]
	 SCS Total Energy          =    -114.6037961283184359 [Eh]
	-----------------------------------------------------------

*** Psi4 exiting successfully. Buy a developer a beer!
