                               Psi4 1.8.2 release

  ==> Input File <==

--------------------------------------------------------------------------
MEMORY 60 GB

molecule dimer {
1 1
F          0.000000     0.000000     0.000000
Li         0.000000     1.584155     0.000000
Li         2.376232     0.000000     0.000000

units ang
no_reorient
no_com
symmetry c1
}

set {
basis        aug-cc-pVTZ
scf_type     df
}

energy("mp2")
--------------------------------------------------------------------------

    Molecular point group: c1

    Geometry (in Angstrom), charge = 1, multiplicity = 1:

       Center              X                  Y                   Z               Mass
    ------------   -----------------  -----------------  -----------------  -----------------
         F            0.000000000000     0.000000000000     0.000000000000    18.998403162730
         LI           0.000000000000     1.584155000000     0.000000000000     7.016003436600
         LI           2.376232000000     0.000000000000     0.000000000000     7.016003436600

  Charge       = 1
  Multiplicity = 1
  Basis Set: AUG-CC-PVTZ
    Blend: AUG-CC-PVTZ
  Basis Set: (AUG-CC-PVTZ AUX)
    Blend: AUG-CC-PVTZ-JKFIT + DEF2-UNIVERSAL-JKFIT

    Orbital Energies [Eh]
    ---------------------

    Doubly Occupied:

       1A    -26.341134     2A     -2.736256     3A     -2.626484
       4A     -1.602765     5A     -0.721025     6A     -0.701574
       7A     -0.698830

  @DF-RHF Final Energy:  -114.26201201344688

   => Energetics <=

    Nuclear Repulsion Energy =             16.6996216864033826
    One-Electron Energy =                -191.0671311557803165
    Two-Electron Energy =                  60.1054974559300561
    Total Energy =                       -114.2620120134468777
 Dipole X            :         -9.3321358           13.4712831            4.1391472
 Dipole Y            :         -6.3929041            8.9808573            2.5879532
 Dipole Z            :         -0.0000000            0.0000000           -0.0000000
 Magnitude           :                                                    4.8816024
  Basis Set: (AUG-CC-PVTZ AUX)
    Blend: AUG-CC-PVTZ-RI + DEF2-QZVPP-RI
	 Reference Energy          =    -114.2620120134468777 [Eh]
	 Singles Energy            =      -0.0000000000000000 [Eh]
	 Same-Spin Energy          =      -0.0798152452122325 [Eh]
	 Opposite-Spin Energy      =      -0.2483988920569262 [Eh]
	 Correlation Energy        =      -0.3282141372691587 [Eh]
	 Total Energy              =    -114.5902261507160347 [Eh]

	 ================> DF-SCS-MP2 Energies <==================
	-----------------------------------------------------------
	 SCS Same-Spin Scale       =       0.3333333333333333 [-]
	 SCS Opposite-Spin Scale   =       1.2000000000000000 [-]
	 SCS Same-Spin Energy      =      -0.0266050817374108 [Eh]
	 SCS Opposite-Spin Energy  =      -0.2980786704683114 [Eh]
	 SCS Correlation Energy    =      -0.3246837522057223 [Eh]
	 SCS Total Energy          =    -114.5866957656526068 [Eh]
	-----------------------------------------------------------

*** Psi4 exiting successfully. Buy a developer a beer!
