                               Psi4 1.8.2 release

  ==> Input File <==

--------------------------------------------------------------------------
MEMORY 60 GB

molecule dimer {
-1 1
F      0.000000     0.000000     0.000000
--
1 1
Li     0.000000     1.584155     0.000000
--
1 1
Li     2.376232     0.000000     0.000000

units ang
no_reorient
no_com
symmetry c1
}

set {
basis        aug-cc-pVTZ
scf_type     df
}

energy("mp2", bsse_type="cp")
--------------------------------------------------------------------------

                               Psi4 1.8.2 release
    Molecular point group: c1
  Charge       = -1
  Multiplicity = 1
  Basis Set: AUG-CC-PVTZ
    Blend: AUG-CC-PVTZ
  Basis Set: (AUG-CC-PVTZ AUX)
    Blend: AUG-CC-PVTZ-JKFIT + DEF2-UNIVERSAL-JKFIT
  @DF-RHF Final Energy:   -99.45091670442848
    Total Energy =                        -99.4509167044284936
 Dipole X            :         -0.0000556            0.0000000           -0.0000556
 Dipole Y            :          0.0000732            0.0000000            0.0000732
 Dipole Z            :         -0.0000000            0.0000000           -0.0000000
 Magnitude           :                                                    0.0000920
  Basis Set: (AUG-CC-PVTZ AUX)
    Blend: AUG-CC-PVTZ-RI + DEF2-QZVPP-RI
	 Reference Energy          =     -99.4509167044284794 [Eh]
	 Singles Energy            =      -0.0000000000000000 [Eh]
	 Same-Spin Energy          =      -0.0817873998455413 [Eh]
	 Opposite-Spin Energy      =      -0.2278954101067691 [Eh]
	 Correlation Energy        =      -0.3096828099523103 [Eh]
	 Total Energy              =     -99.7605995143807860 [Eh]
	 SCS Total Energy          =     -99.7516536631717798 [Eh]
                               Psi4 1.8.2 release
    Molecular point group: c1
  Basis Set: AUG-CC-PVTZ
    Blend: AUG-CC-PVTZ
  Basis Set: (AUG-CC-PVTZ AUX)
    Blend: AUG-CC-PVTZ-JKFIT + DEF2-UNIVERSAL-JKFIT
  @DF-RHF Final Energy:    -7.23638349956802
    Total Energy =                         -7.2363834995680163
  Basis Set: (AUG-CC-PVTZ AUX)
                               Psi4 1.8.2 release
  @DF-RHF Final Energy:   -14.28765221530071
    Total Energy =                        -14.2876522153007137
                               Psi4 1.8.2 release
  @DF-RHF Final Energy:  -106.91710067552614
    Total Energy =                       -106.9171006755261430
                               Psi4 1.8.2 release
  @DF-RHF Final Energy:  -106.98282914436305
    Total Energy =                       -106.9828291443630519
                               Psi4 1.8.2 release
  Multiplicity = 1
  @DF-RHF Final Energy:    -7.23638321843323
    Total Energy =                         -7.2363832184332315
	 Singles Energy            =      -0.0000000000000000 [Eh]
	 Same-Spin Energy          =       0.0000000000000000 [Eh]
	 Opposite-Spin Energy      =      -0.0117995429917687 [Eh]
	 Correlation Energy        =      -0.0117995429917687 [Eh]
	 Total Energy              =      -7.2481827614249994 [Eh]
	 SCS Total Energy          =      -7.2505426700233535 [Eh]
                               Psi4 1.8.2 release
    Molecular point group: c1

    Geometry (in Bohr), charge = 1, multiplicity = 1:

       Center              X                  Y                   Z               Mass
    ------------   -----------------  -----------------  -----------------  -----------------
         F            0.000000000000     0.000000000000     0.000000000000    18.998403162730
         LI           0.000000000000     2.993619090275     0.000000000000     7.016003436600
         LI           4.490427690549     0.000000000000     0.000000000000     7.016003436600

  Charge       = 1
  Multiplicity = 1
  Basis Set: AUG-CC-PVTZ
    Blend: AUG-CC-PVTZ
  Basis Set: (AUG-CC-PVTZ AUX)
    Blend: AUG-CC-PVTZ-JKFIT + DEF2-UNIVERSAL-JKFIT

    Orbital Energies [Eh]
    ---------------------

    Doubly Occupied:

       1A    -26.341134     2A     -2.736256     3A     -2.626484
       4A     -1.602765     5A     -0.721025     6A     -0.701574
       7A     -0.698830

  @DF-RHF Final Energy:  -114.26201201344689

   => Energetics <=

    Nuclear Repulsion Energy =             16.6996216864033826
    One-Electron Energy =                -191.0671311557805723
    Two-Electron Energy =                  60.1054974559302977
    Total Energy =                       -114.2620120134468777
 Dipole X            :         -9.3321358           13.4712831            4.1391472
 Dipole Y            :         -6.3929041            8.9808573            2.5879532
 Dipole Z            :         -0.0000000            0.0000000           -0.0000000
 Magnitude           :                                                    4.8816024
  Basis Set: (AUG-CC-PVTZ AUX)
    Blend: AUG-CC-PVTZ-RI + DEF2-QZVPP-RI
	 Reference Energy          =    -114.2620120134468920 [Eh]
	 Singles Energy            =      -0.0000000000000000 [Eh]
	 Same-Spin Energy          =      -0.0798152452122331 [Eh]
	 Opposite-Spin Energy      =      -0.2483988920569324 [Eh]
	 Correlation Energy        =      -0.3282141372691655 [Eh]
	 Total Energy              =    -114.5902261507160631 [Eh]

	 ================> DF-SCS-MP2 Energies <==================
	-----------------------------------------------------------
	 SCS Same-Spin Scale       =       0.3333333333333333 [-]
	 SCS Opposite-Spin Scale   =       1.2000000000000000 [-]
	 SCS Same-Spin Energy      =      -0.0266050817374110 [Eh]
	 SCS Opposite-Spin Energy  =      -0.2980786704683188 [Eh]
	 SCS Correlation Energy    =      -0.3246837522057299 [Eh]
	 SCS Total Energy          =    -114.5866957656526210 [Eh]
	-----------------------------------------------------------

*** Psi4 exiting successfully. Buy a developer a beer!
