                               Psi4 1.9 release

  ==> Input File <==

--------------------------------------------------------------------------
MEMORY 60 GB

molecule dimer {
0 1
F      0.000000     0.000000     0.000000
Li     0.000000     1.584155     0.000000
--
1 1
Li     2.059401     0.000000     0.000000

units ang
no_reorient
no_com
symmetry c1
}

set {
basis        aug-cc-pVTZ
scf_type     df
}

energy("mp2", bsse_type="cp")
--------------------------------------------------------------------------

                               Psi4 1.9 release
    Molecular point group: c1
  Charge       = 1
  Multiplicity = 1
  Basis Set: AUG-CC-PVTZ
    Blend: AUG-CC-PVTZ
  Basis Set: (AUG-CC-PVTZ AUX)
    Blend: AUG-CC-PVTZ-JKFIT + DEF2-UNIVERSAL-JKFIT
  @DF-RHF Final Energy:    -7.23638334032889
    Total Energy =                         -7.2363833403288886
 Dipole X            :         -7.7834626           11.6751116            3.8916491
 Dipole Y            :          0.0000380            0.0000000            0.0000380
 Dipole Z            :          0.0000000            0.0000000            0.0000000
 Magnitude           :                                                    3.8916491
  Basis Set: (AUG-CC-PVTZ AUX)
    Blend: AUG-CC-PVTZ-RI + DEF2-QZVPP-RI
	 Reference Energy          =      -7.2363833403288886 [Eh]
	 Singles Energy            =      -0.0000000000000000 [Eh]
	 Same-Spin Energy          =      -0.0000000000000000 [Eh]
	 Opposite-Spin Energy      =      -0.0122439798214560 [Eh]
	 Correlation Energy        =      -0.0122439798214560 [Eh]
	 Total Energy              =      -7.2486273201503444 [Eh]
	 SCS Total Energy          =      -7.2510761161146355 [Eh]
                               Psi4 1.9 release
    Molecular point group: c1
  Multiplicity = 1
  Basis Set: AUG-CC-PVTZ
    Blend: AUG-CC-PVTZ
  Basis Set: (AUG-CC-PVTZ AUX)
    Blend: AUG-CC-PVTZ-JKFIT + DEF2-UNIVERSAL-JKFIT
  @DF-RHF Final Energy:  -106.98291464319418
    Total Energy =                       -106.9829146431941780
  Basis Set: (AUG-CC-PVTZ AUX)
	 Singles Energy            =      -0.0000000000000000 [Eh]
	 Same-Spin Energy          =      -0.0796478221997474 [Eh]
	 Opposite-Spin Energy      =      -0.2362741004114753 [Eh]
	 Correlation Energy        =      -0.3159219226112226 [Eh]
	 Total Energy              =    -107.2988365658054022 [Eh]
	 SCS Total Energy          =    -107.2929928377545252 [Eh]
                               Psi4 1.9 release
    Molecular point group: c1

    Geometry (in Bohr), charge = 1, multiplicity = 1:

       Center              X                  Y                   Z               Mass
    ------------   -----------------  -----------------  -----------------  -----------------
         F            0.000000000000     0.000000000000     0.000000000000    18.998403162730
         LI           0.000000000000     2.993619090275     0.000000000000     7.016003436600
         LI           3.891703872494     0.000000000000     0.000000000000     7.016003436600

  Charge       = 1
  Multiplicity = 1
  Basis Set: AUG-CC-PVTZ
    Blend: AUG-CC-PVTZ
  Basis Set: (AUG-CC-PVTZ AUX)
    Blend: AUG-CC-PVTZ-JKFIT + DEF2-UNIVERSAL-JKFIT

    Orbital Energies [Eh]
    ---------------------

    Doubly Occupied:

       1A    -26.366879     2A     -2.715286     3A     -2.644479
       4A     -1.631597     5A     -0.748118     6A     -0.734382
       7A     -0.725989

  @DF-RHF Final Energy:  -114.27503480921152

   => Energetics <=

    Nuclear Repulsion Energy =             17.7900500666376153
    One-Electron Energy =                -192.9967076625380571
    Two-Electron Energy =                  60.9316227866889264
    Total Energy =                       -114.2750348092115189
 Dipole X            :         -8.1648746           11.6751116            3.5102370
 Dipole Y            :         -6.3851062            8.9808573            2.5957511
 Dipole Z            :          0.0000000            0.0000000            0.0000000
 Magnitude           :                                                    4.3657402
  Basis Set: (AUG-CC-PVTZ AUX)
    Blend: AUG-CC-PVTZ-RI + DEF2-QZVPP-RI
	 Reference Energy          =    -114.2750348092115189 [Eh]
	 Singles Energy            =      -0.0000000000000000 [Eh]
	 Same-Spin Energy          =      -0.0794767758367928 [Eh]
	 Opposite-Spin Energy      =      -0.2482744229793376 [Eh]
	 Correlation Energy        =      -0.3277511988161304 [Eh]
	 Total Energy              =    -114.6027860080276497 [Eh]

	 ================> DF-SCS-MP2 Energies <==================
	-----------------------------------------------------------
	 SCS Same-Spin Scale       =       0.3333333333333333 [-]
	 SCS Opposite-Spin Scale   =       1.2000000000000000 [-]
	 SCS Same-Spin Energy      =      -0.0264922586122643 [Eh]
	 SCS Opposite-Spin Energy  =      -0.2979293075752051 [Eh]
	 SCS Correlation Energy    =      -0.3244215661874694 [Eh]
	 SCS Total Energy          =    -114.5994563753989866 [Eh]
	-----------------------------------------------------------

*** Psi4 exiting successfully. Buy a developer a beer!
