                               Psi4 1.8.2 release

  ==> Input File <==

--------------------------------------------------------------------------
MEMORY 60 GB

molecule dimer {
1 1
F          0.000000     0.000000     0.000000
Li         0.000000     1.584155     0.000000
Li         2.217817     0.000000     0.000000

units ang
no_reorient
no_com
symmetry c1
}

set {
basis        aug-cc-pVTZ
scf_type     df
}

energy("mp2")
--------------------------------------------------------------------------

    Molecular point group: c1

    Geometry (in Angstrom), charge = 1, multiplicity = 1:

       Center              X                  Y                   Z               Mass
    ------------   -----------------  -----------------  -----------------  -----------------
         F            0.000000000000     0.000000000000     0.000000000000    18.998403162730
         LI           0.000000000000     1.584155000000     0.000000000000     7.016003436600
         LI           2.217817000000     0.000000000000     0.000000000000     7.016003436600

  Charge       = 1
  Multiplicity = 1
  Basis Set: AUG-CC-PVTZ
    Blend: AUG-CC-PVTZ
  Basis Set: (AUG-CC-PVTZ AUX)
    Blend: AUG-CC-PVTZ-JKFIT + DEF2-UNIVERSAL-JKFIT

    Orbital Energies [Eh]
    ---------------------

    Doubly Occupied:

       1A    -26.353918     2A     -2.726482     3A     -2.635251
       4A     -1.616633     5A     -0.734167     6A     -0.717175
       7A     -0.712028

  @DF-RHF Final Energy:  -114.26842007036672

   => Energetics <=

    Nuclear Repulsion Energy =             17.2088887983607179
    One-Electron Energy =                -191.9633106486317331
    Two-Electron Energy =                  60.4860017799042851
    Total Energy =                       -114.2684200703667159
 Dipole X            :         -8.7510885           12.5732002            3.8221117
 Dipole Y            :         -6.3895123            8.9808573            2.5913449
 Dipole Z            :          0.0000000            0.0000000            0.0000000
 Magnitude           :                                                    4.6177490
  Basis Set: (AUG-CC-PVTZ AUX)
    Blend: AUG-CC-PVTZ-RI + DEF2-QZVPP-RI
	 Reference Energy          =    -114.2684200703667159 [Eh]
	 Singles Energy            =      -0.0000000000000000 [Eh]
	 Same-Spin Energy          =      -0.0796797182649246 [Eh]
	 Opposite-Spin Energy      =      -0.2483872562221262 [Eh]
	 Correlation Energy        =      -0.3280669744870508 [Eh]
	 Total Energy              =    -114.5964870448537738 [Eh]

	 ================> DF-SCS-MP2 Energies <==================
	-----------------------------------------------------------
	 SCS Same-Spin Scale       =       0.3333333333333333 [-]
	 SCS Opposite-Spin Scale   =       1.2000000000000000 [-]
	 SCS Same-Spin Energy      =      -0.0265599060883082 [Eh]
	 SCS Opposite-Spin Energy  =      -0.2980647074665514 [Eh]
	 SCS Correlation Energy    =      -0.3246246135548597 [Eh]
	 SCS Total Energy          =    -114.5930446839215762 [Eh]
	-----------------------------------------------------------

*** Psi4 exiting successfully. Buy a developer a beer!
