                               Psi4 1.8.2 release

  ==> Input File <==

--------------------------------------------------------------------------
MEMORY 60 GB

molecule dimer {
-1 1
F      0.000000     0.000000     0.000000
--
1 1
Li     0.000000     1.584155     0.000000
--
1 1
Li     1.742571     0.000000     0.000000

units ang
no_reorient
no_com
symmetry c1
}

set {
basis        aug-cc-pVTZ
scf_type     df
}

energy("mp2", bsse_type="cp")
--------------------------------------------------------------------------

                               Psi4 1.8.2 release
    Molecular point group: c1
  Charge       = -1
  Multiplicity = 1
  Basis Set: AUG-CC-PVTZ
    Blend: AUG-CC-PVTZ
  Basis Set: (AUG-CC-PVTZ AUX)
    Blend: AUG-CC-PVTZ-JKFIT + DEF2-UNIVERSAL-JKFIT
  @DF-RHF Final Energy:   -99.45095227060223
    Total Energy =                        -99.4509522706022437
 Dipole X            :          0.0000135            0.0000000            0.0000135
 Dipole Y            :         -0.0000240            0.0000000           -0.0000240
 Dipole Z            :          0.0000000            0.0000000            0.0000000
 Magnitude           :                                                    0.0000276
  Basis Set: (AUG-CC-PVTZ AUX)
    Blend: AUG-CC-PVTZ-RI + DEF2-QZVPP-RI
	 Reference Energy          =     -99.4509522706022295 [Eh]
	 Singles Energy            =      -0.0000000000000000 [Eh]
	 Same-Spin Energy          =      -0.0818300701118365 [Eh]
	 Opposite-Spin Energy      =      -0.2283313794172024 [Eh]
	 Correlation Energy        =      -0.3101614495290389 [Eh]
	 Total Energy              =     -99.7611137201312630 [Eh]
	 SCS Total Energy          =     -99.7522266159401454 [Eh]
                               Psi4 1.8.2 release
    Molecular point group: c1
  Basis Set: AUG-CC-PVTZ
    Blend: AUG-CC-PVTZ
  Basis Set: (AUG-CC-PVTZ AUX)
    Blend: AUG-CC-PVTZ-JKFIT + DEF2-UNIVERSAL-JKFIT
  @DF-RHF Final Energy:    -7.23638354350629
    Total Energy =                         -7.2363835435062889
  Basis Set: (AUG-CC-PVTZ AUX)
                               Psi4 1.8.2 release
  @DF-RHF Final Energy:   -14.24848270337300
    Total Energy =                        -14.2484827033729982
                               Psi4 1.8.2 release
  @DF-RHF Final Energy:  -106.97581693011415
    Total Energy =                       -106.9758169301141493
                               Psi4 1.8.2 release
  @DF-RHF Final Energy:  -106.98300542174594
    Total Energy =                       -106.9830054217459434
                               Psi4 1.8.2 release
  Multiplicity = 1
  @DF-RHF Final Energy:    -7.23638347768120
    Total Energy =                         -7.2363834776812039
	 Singles Energy            =      -0.0000000000000000 [Eh]
	 Same-Spin Energy          =       0.0000000000000000 [Eh]
	 Opposite-Spin Energy      =      -0.0130266991611084 [Eh]
	 Correlation Energy        =      -0.0130266991611084 [Eh]
	 Total Energy              =      -7.2494101768423116 [Eh]
	 SCS Total Energy          =      -7.2520155166745335 [Eh]
                               Psi4 1.8.2 release
    Molecular point group: c1

    Geometry (in Bohr), charge = 1, multiplicity = 1:

       Center              X                  Y                   Z               Mass
    ------------   -----------------  -----------------  -----------------  -----------------
         F            0.000000000000     0.000000000000     0.000000000000    18.998403162730
         LI           0.000000000000     2.993619090275     0.000000000000     7.016003436600
         LI           3.292981944165     0.000000000000     0.000000000000     7.016003436600

  Charge       = 1
  Multiplicity = 1
  Basis Set: AUG-CC-PVTZ
    Blend: AUG-CC-PVTZ
  Basis Set: (AUG-CC-PVTZ AUX)
    Blend: AUG-CC-PVTZ-JKFIT + DEF2-UNIVERSAL-JKFIT

    Orbital Energies [Eh]
    ---------------------

    Doubly Occupied:

       1A    -26.391974     2A     -2.689103     3A     -2.664370
       4A     -1.665319     5A     -0.779238     6A     -0.772843
       7A     -0.756496

  @DF-RHF Final Energy:  -114.28433287860217

   => Energetics <=

    Nuclear Repulsion Energy =             19.2407584133115108
    One-Electron Energy =                -195.6114937656540462
    Two-Electron Energy =                  62.0864024737403639
    Total Energy =                       -114.2843328786021715
 Dipole X            :         -6.9721343            9.8789458            2.9068115
 Dipole Y            :         -6.3728433            8.9808573            2.6080139
 Dipole Z            :          0.0000000            0.0000000            0.0000000
 Magnitude           :                                                    3.9052900
  Basis Set: (AUG-CC-PVTZ AUX)
    Blend: AUG-CC-PVTZ-RI + DEF2-QZVPP-RI
	 Reference Energy          =    -114.2843328786021715 [Eh]
	 Singles Energy            =      -0.0000000000000000 [Eh]
	 Same-Spin Energy          =      -0.0788521702186257 [Eh]
	 Opposite-Spin Energy      =      -0.2476390330438610 [Eh]
	 Correlation Energy        =      -0.3264912032624867 [Eh]
	 Total Energy              =    -114.6108240818646635 [Eh]

	 ================> DF-SCS-MP2 Energies <==================
	-----------------------------------------------------------
	 SCS Same-Spin Scale       =       0.3333333333333333 [-]
	 SCS Opposite-Spin Scale   =       1.2000000000000000 [-]
	 SCS Same-Spin Energy      =      -0.0262840567395419 [Eh]
	 SCS Opposite-Spin Energy  =      -0.2971668396526332 [Eh]
	 SCS Correlation Energy    =      -0.3234508963921751 [Eh]
	 SCS Total Energy          =    -114.6077837749943455 [Eh]
	-----------------------------------------------------------

*** Psi4 exiting successfully. Buy a developer a beer!
