                               Psi4 1.8.2 release

  ==> Input File <==

--------------------------------------------------------------------------
MEMORY 60 GB

molecule dimer {
-1 1
F      0.000000     0.000000     0.000000
--
1 1
Li     0.000000     1.584155     0.000000
--
1 1
Li     2.217817     0.000000     0.000000

units ang
no_reorient
no_com
symmetry c1
}

set {
basis        aug-cc-pVTZ
scf_type     df
}

energy("mp2", bsse_type="cp")
--------------------------------------------------------------------------

                               Psi4 1.8.2 release
    Molecular point group: c1
  Charge       = -1
  Multiplicity = 1
  Basis Set: AUG-CC-PVTZ
    Blend: AUG-CC-PVTZ
  Basis Set: (AUG-CC-PVTZ AUX)
    Blend: AUG-CC-PVTZ-JKFIT + DEF2-UNIVERSAL-JKFIT
  @DF-RHF Final Energy:   -99.45092548016588
    Total Energy =                        -99.4509254801658784
 Dipole X            :         -0.0000517            0.0000000           -0.0000517
 Dipole Y            :          0.0000316            0.0000000            0.0000316
 Dipole Z            :          0.0000000            0.0000000            0.0000000
 Magnitude           :                                                    0.0000606
  Basis Set: (AUG-CC-PVTZ AUX)
    Blend: AUG-CC-PVTZ-RI + DEF2-QZVPP-RI
	 Reference Energy          =     -99.4509254801658784 [Eh]
	 Singles Energy            =      -0.0000000000000000 [Eh]
	 Same-Spin Energy          =      -0.0817947320133588 [Eh]
	 Opposite-Spin Energy      =      -0.2279779188419324 [Eh]
	 Correlation Energy        =      -0.3097726508552912 [Eh]
	 Total Energy              =     -99.7606981310211722 [Eh]
	 SCS Total Energy          =     -99.7517638934473183 [Eh]
                               Psi4 1.8.2 release
    Molecular point group: c1
  Basis Set: AUG-CC-PVTZ
    Blend: AUG-CC-PVTZ
  Basis Set: (AUG-CC-PVTZ AUX)
    Blend: AUG-CC-PVTZ-JKFIT + DEF2-UNIVERSAL-JKFIT
  @DF-RHF Final Energy:    -7.23638352431018
    Total Energy =                         -7.2363835243101793
  Basis Set: (AUG-CC-PVTZ AUX)
                               Psi4 1.8.2 release
  @DF-RHF Final Energy:   -14.27882960088063
    Total Energy =                        -14.2788296008806288
                               Psi4 1.8.2 release
  @DF-RHF Final Energy:  -106.93190207866985
    Total Energy =                       -106.9319020786698502
                               Psi4 1.8.2 release
  @DF-RHF Final Energy:  -106.98286884726183
    Total Energy =                       -106.9828688472618268
                               Psi4 1.8.2 release
  Multiplicity = 1
  @DF-RHF Final Energy:    -7.23638325429984
    Total Energy =                         -7.2363832542998416
	 Singles Energy            =      -0.0000000000000000 [Eh]
	 Same-Spin Energy          =       0.0000000000000000 [Eh]
	 Opposite-Spin Energy      =      -0.0119827759618356 [Eh]
	 Correlation Energy        =      -0.0119827759618356 [Eh]
	 Total Energy              =      -7.2483660302616775 [Eh]
	 SCS Total Energy          =      -7.2507625854540443 [Eh]
                               Psi4 1.8.2 release
    Molecular point group: c1

    Geometry (in Bohr), charge = 1, multiplicity = 1:

       Center              X                  Y                   Z               Mass
    ------------   -----------------  -----------------  -----------------  -----------------
         F            0.000000000000     0.000000000000     0.000000000000    18.998403162730
         LI           0.000000000000     2.993619090275     0.000000000000     7.016003436600
         LI           4.191066726385     0.000000000000     0.000000000000     7.016003436600

  Charge       = 1
  Multiplicity = 1
  Basis Set: AUG-CC-PVTZ
    Blend: AUG-CC-PVTZ
  Basis Set: (AUG-CC-PVTZ AUX)
    Blend: AUG-CC-PVTZ-JKFIT + DEF2-UNIVERSAL-JKFIT

    Orbital Energies [Eh]
    ---------------------

    Doubly Occupied:

       1A    -26.353918     2A     -2.726482     3A     -2.635251
       4A     -1.616633     5A     -0.734167     6A     -0.717175
       7A     -0.712028

  @DF-RHF Final Energy:  -114.26842007036669

   => Energetics <=

    Nuclear Repulsion Energy =             17.2088887983607179
    One-Electron Energy =                -191.9633106486317331
    Two-Electron Energy =                  60.4860017799043135
    Total Energy =                       -114.2684200703666875
 Dipole X            :         -8.7510885           12.5732002            3.8221117
 Dipole Y            :         -6.3895123            8.9808573            2.5913449
 Dipole Z            :          0.0000000            0.0000000            0.0000000
 Magnitude           :                                                    4.6177490
  Basis Set: (AUG-CC-PVTZ AUX)
    Blend: AUG-CC-PVTZ-RI + DEF2-QZVPP-RI
	 Reference Energy          =    -114.2684200703666875 [Eh]
	 Singles Energy            =      -0.0000000000000000 [Eh]
	 Same-Spin Energy          =      -0.0796797182649244 [Eh]
	 Opposite-Spin Energy      =      -0.2483872562221277 [Eh]
	 Correlation Energy        =      -0.3280669744870521 [Eh]
	 Total Energy              =    -114.5964870448537454 [Eh]

	 ================> DF-SCS-MP2 Energies <==================
	-----------------------------------------------------------
	 SCS Same-Spin Scale       =       0.3333333333333333 [-]
	 SCS Opposite-Spin Scale   =       1.2000000000000000 [-]
	 SCS Same-Spin Energy      =      -0.0265599060883081 [Eh]
	 SCS Opposite-Spin Energy  =      -0.2980647074665532 [Eh]
	 SCS Correlation Energy    =      -0.3246246135548614 [Eh]
	 SCS Total Energy          =    -114.5930446839215477 [Eh]
	-----------------------------------------------------------

*** Psi4 exiting successfully. Buy a developer a beer!
