                               Psi4 1.9 release

  ==> Input File <==

--------------------------------------------------------------------------
MEMORY 60 GB

molecule dimer {
0 1
F      0.000000     0.000000     0.000000
Li     0.000000     1.584155     0.000000
--
1 1
Li     1.900986     0.000000     0.000000

units ang
no_reorient
no_com
symmetry c1
}

set {
basis        aug-cc-pVTZ
scf_type     df
}

energy("mp2", bsse_type="cp")
--------------------------------------------------------------------------

                               Psi4 1.9 release
    Molecular point group: c1
  Charge       = 1
  Multiplicity = 1
  Basis Set: AUG-CC-PVTZ
    Blend: AUG-CC-PVTZ
  Basis Set: (AUG-CC-PVTZ AUX)
    Blend: AUG-CC-PVTZ-JKFIT + DEF2-UNIVERSAL-JKFIT
  @DF-RHF Final Energy:    -7.23638343236714
    Total Energy =                         -7.2363834323671359
 Dipole X            :         -7.1847233           10.7770287            3.5923055
 Dipole Y            :          0.0000448            0.0000000            0.0000448
 Dipole Z            :         -0.0000000            0.0000000           -0.0000000
 Magnitude           :                                                    3.5923055
  Basis Set: (AUG-CC-PVTZ AUX)
    Blend: AUG-CC-PVTZ-RI + DEF2-QZVPP-RI
	 Reference Energy          =      -7.2363834323671359 [Eh]
	 Singles Energy            =      -0.0000000000000000 [Eh]
	 Same-Spin Energy          =      -0.0000000000000000 [Eh]
	 Opposite-Spin Energy      =      -0.0125943766817627 [Eh]
	 Correlation Energy        =      -0.0125943766817627 [Eh]
	 Total Energy              =      -7.2489778090488990 [Eh]
	 SCS Total Energy          =      -7.2514966843852511 [Eh]
                               Psi4 1.9 release
    Molecular point group: c1
  Multiplicity = 1
  Basis Set: AUG-CC-PVTZ
    Blend: AUG-CC-PVTZ
  Basis Set: (AUG-CC-PVTZ AUX)
    Blend: AUG-CC-PVTZ-JKFIT + DEF2-UNIVERSAL-JKFIT
  @DF-RHF Final Energy:  -106.98296292728148
    Total Energy =                       -106.9829629272814771
  Basis Set: (AUG-CC-PVTZ AUX)
	 Singles Energy            =      -0.0000000000000000 [Eh]
	 Same-Spin Energy          =      -0.0796646238802221 [Eh]
	 Opposite-Spin Energy      =      -0.2364784681150514 [Eh]
	 Correlation Energy        =      -0.3161430919952735 [Eh]
	 Total Energy              =    -107.2991060192767492 [Eh]
	 SCS Total Energy          =    -107.2932919636462827 [Eh]
                               Psi4 1.9 release
    Molecular point group: c1

    Geometry (in Bohr), charge = 1, multiplicity = 1:

       Center              X                  Y                   Z               Mass
    ------------   -----------------  -----------------  -----------------  -----------------
         F            0.000000000000     0.000000000000     0.000000000000    18.998403162730
         LI           0.000000000000     2.993619090275     0.000000000000     7.016003436600
         LI           3.592342908330     0.000000000000     0.000000000000     7.016003436600

  Charge       = 1
  Multiplicity = 1
  Basis Set: AUG-CC-PVTZ
    Blend: AUG-CC-PVTZ
  Basis Set: (AUG-CC-PVTZ AUX)
    Blend: AUG-CC-PVTZ-JKFIT + DEF2-UNIVERSAL-JKFIT

    Orbital Energies [Eh]
    ---------------------

    Doubly Occupied:

       1A    -26.379697     2A     -2.702721     3A     -2.654182
       4A     -1.647780     5A     -0.762996     6A     -0.753109
       7A     -0.740755

  @DF-RHF Final Energy:  -114.28097406274165

   => Energetics <=

    Nuclear Repulsion Energy =             18.4598166735736626
    One-Electron Energy =                -194.1990992467757167
    Two-Electron Energy =                  61.4583085104603981
    Total Energy =                       -114.2809740627416488
 Dipole X            :         -7.5721618           10.7770287            3.2048669
 Dipole Y            :         -6.3795673            8.9808573            2.6012900
 Dipole Z            :         -0.0000000            0.0000000           -0.0000000
 Magnitude           :                                                    4.1276969
  Basis Set: (AUG-CC-PVTZ AUX)
    Blend: AUG-CC-PVTZ-RI + DEF2-QZVPP-RI
	 Reference Energy          =    -114.2809740627416488 [Eh]
	 Singles Energy            =      -0.0000000000000000 [Eh]
	 Same-Spin Energy          =      -0.0792001332161137 [Eh]
	 Opposite-Spin Energy      =      -0.2480349442349102 [Eh]
	 Correlation Energy        =      -0.3272350774510239 [Eh]
	 Total Energy              =    -114.6082091401926704 [Eh]

	 ================> DF-SCS-MP2 Energies <==================
	-----------------------------------------------------------
	 SCS Same-Spin Scale       =       0.3333333333333333 [-]
	 SCS Opposite-Spin Scale   =       1.2000000000000000 [-]
	 SCS Same-Spin Energy      =      -0.0264000444053712 [Eh]
	 SCS Opposite-Spin Energy  =      -0.2976419330818922 [Eh]
	 SCS Correlation Energy    =      -0.3240419774872634 [Eh]
	 SCS Total Energy          =    -114.6050160402289180 [Eh]
	-----------------------------------------------------------

*** Psi4 exiting successfully. Buy a developer a beer!
