                               Psi4 1.8.2 release

  ==> Input File <==

--------------------------------------------------------------------------
MEMORY 60 GB

molecule dimer {
-1 1
F          0.000000     0.000000     0.000000
Gh(Li)     0.000000     1.584155     0.000000
Gh(Li)     1.584155     0.000000     0.000000

units ang
no_reorient
no_com
symmetry c1
}

set {
basis        aug-cc-pVTZ
scf_type     df
}

energy("mp2")
--------------------------------------------------------------------------

    Molecular point group: c1

    Geometry (in Angstrom), charge = -1, multiplicity = 1:

       Center              X                  Y                   Z               Mass
    ------------   -----------------  -----------------  -----------------  -----------------
         F            0.000000000000     0.000000000000     0.000000000000    18.998403162730
      Gh(LI)          0.000000000000     1.584155000000     0.000000000000     7.016003436600
      Gh(LI)          1.584155000000     0.000000000000     0.000000000000     7.016003436600

  Charge       = -1
  Multiplicity = 1
  Basis Set: AUG-CC-PVTZ
    Blend: AUG-CC-PVTZ
  Basis Set: (AUG-CC-PVTZ AUX)
    Blend: AUG-CC-PVTZ-JKFIT + DEF2-UNIVERSAL-JKFIT

    Orbital Energies [Eh]
    ---------------------

    Doubly Occupied:

       1A    -25.833727     2A     -1.075975     3A     -0.180965
       4A     -0.180950     5A     -0.180936

  @DF-RHF Final Energy:   -99.45095141724482

   => Energetics <=

    Nuclear Repulsion Energy =              0.0000000000000000
    One-Electron Energy =                -143.9967961148554707
    Two-Electron Energy =                  44.5458446976106472
    Total Energy =                        -99.4509514172448235
 Dipole X            :         -0.0000494            0.0000000           -0.0000494
 Dipole Y            :         -0.0000494            0.0000000           -0.0000494
 Dipole Z            :         -0.0000000            0.0000000           -0.0000000
 Magnitude           :                                                    0.0000699
  Basis Set: (AUG-CC-PVTZ AUX)
    Blend: AUG-CC-PVTZ-RI + DEF2-QZVPP-RI
	 Reference Energy          =     -99.4509514172448235 [Eh]
	 Singles Energy            =      -0.0000000000000000 [Eh]
	 Same-Spin Energy          =      -0.0818458960666446 [Eh]
	 Opposite-Spin Energy      =      -0.2284984940110693 [Eh]
	 Correlation Energy        =      -0.3103443900777139 [Eh]
	 Total Energy              =     -99.7612958073225400 [Eh]

	 ================> DF-SCS-MP2 Energies <==================
	-----------------------------------------------------------
	 SCS Same-Spin Scale       =       0.3333333333333333 [-]
	 SCS Opposite-Spin Scale   =       1.2000000000000000 [-]
	 SCS Same-Spin Energy      =      -0.0272819653555482 [Eh]
	 SCS Opposite-Spin Energy  =      -0.2741981928132832 [Eh]
	 SCS Correlation Energy    =      -0.3014801581688314 [Eh]
	 SCS Total Energy          =     -99.7524315754136524 [Eh]
	-----------------------------------------------------------

*** Psi4 exiting successfully. Buy a developer a beer!
