                               Psi4 1.8.2 release

  ==> Input File <==

--------------------------------------------------------------------------
MEMORY 60 GB

molecule dimer {
1 1
F          0.000000     0.000000     0.000000
Li         0.000000     1.584155     0.000000
Li         2.059401     0.000000     0.000000

units ang
no_reorient
no_com
symmetry c1
}

set {
basis        aug-cc-pVTZ
scf_type     df
}

energy("mp2")
--------------------------------------------------------------------------

    Molecular point group: c1

    Geometry (in Angstrom), charge = 1, multiplicity = 1:

       Center              X                  Y                   Z               Mass
    ------------   -----------------  -----------------  -----------------  -----------------
         F            0.000000000000     0.000000000000     0.000000000000    18.998403162730
         LI           0.000000000000     1.584155000000     0.000000000000     7.016003436600
         LI           2.059401000000     0.000000000000     0.000000000000     7.016003436600

  Charge       = 1
  Multiplicity = 1
  Basis Set: AUG-CC-PVTZ
    Blend: AUG-CC-PVTZ
  Basis Set: (AUG-CC-PVTZ AUX)
    Blend: AUG-CC-PVTZ-JKFIT + DEF2-UNIVERSAL-JKFIT

    Orbital Energies [Eh]
    ---------------------

    Doubly Occupied:

       1A    -26.366879     2A     -2.715286     3A     -2.644479
       4A     -1.631597     5A     -0.748118     6A     -0.734382
       7A     -0.725989

  @DF-RHF Final Energy:  -114.27503480921754

   => Energetics <=

    Nuclear Repulsion Energy =             17.7900500666376153
    One-Electron Energy =                -192.9967076625428035
    Two-Electron Energy =                  60.9316227866876545
    Total Energy =                       -114.2750348092175443
 Dipole X            :         -8.1648746           11.6751116            3.5102370
 Dipole Y            :         -6.3851062            8.9808573            2.5957511
 Dipole Z            :         -0.0000000            0.0000000           -0.0000000
 Magnitude           :                                                    4.3657402
  Basis Set: (AUG-CC-PVTZ AUX)
    Blend: AUG-CC-PVTZ-RI + DEF2-QZVPP-RI
	 Reference Energy          =    -114.2750348092175443 [Eh]
	 Singles Energy            =      -0.0000000000000000 [Eh]
	 Same-Spin Energy          =      -0.0794767758367910 [Eh]
	 Opposite-Spin Energy      =      -0.2482744229792963 [Eh]
	 Correlation Energy        =      -0.3277511988160873 [Eh]
	 Total Energy              =    -114.6027860080336325 [Eh]

	 ================> DF-SCS-MP2 Energies <==================
	-----------------------------------------------------------
	 SCS Same-Spin Scale       =       0.3333333333333333 [-]
	 SCS Opposite-Spin Scale   =       1.2000000000000000 [-]
	 SCS Same-Spin Energy      =      -0.0264922586122637 [Eh]
	 SCS Opposite-Spin Energy  =      -0.2979293075751556 [Eh]
	 SCS Correlation Energy    =      -0.3244215661874192 [Eh]
	 SCS Total Energy          =    -114.5994563754049693 [Eh]
	-----------------------------------------------------------

*** Psi4 exiting successfully. Buy a developer a beer!
