                               Psi4 1.8.2 release

  ==> Input File <==

--------------------------------------------------------------------------
MEMORY 60 GB

molecule dimer {
-1 1
F          0.000000     0.000000     0.000000
Gh(Li)     0.000000     1.584155     0.000000
Gh(Li)     2.059401     0.000000     0.000000

units ang
no_reorient
no_com
symmetry c1
}

set {
basis        aug-cc-pVTZ
scf_type     df
}

energy("mp2")
--------------------------------------------------------------------------

    Molecular point group: c1

    Geometry (in Angstrom), charge = -1, multiplicity = 1:

       Center              X                  Y                   Z               Mass
    ------------   -----------------  -----------------  -----------------  -----------------
         F            0.000000000000     0.000000000000     0.000000000000    18.998403162730
      Gh(LI)          0.000000000000     1.584155000000     0.000000000000     7.016003436600
      Gh(LI)          2.059401000000     0.000000000000     0.000000000000     7.016003436600

  Charge       = -1
  Multiplicity = 1
  Basis Set: AUG-CC-PVTZ
    Blend: AUG-CC-PVTZ
  Basis Set: (AUG-CC-PVTZ AUX)
    Blend: AUG-CC-PVTZ-JKFIT + DEF2-UNIVERSAL-JKFIT

    Orbital Energies [Eh]
    ---------------------

    Doubly Occupied:

       1A    -25.833746     2A     -1.075997     3A     -0.180989
       4A     -0.180959     5A     -0.180942

  @DF-RHF Final Energy:   -99.45093583779614

   => Energetics <=

    Nuclear Repulsion Energy =              0.0000000000000000
    One-Electron Energy =                -143.9966061744657111
    Two-Electron Energy =                  44.5456703366695663
    Total Energy =                        -99.4509358377961519
 Dipole X            :         -0.0000051            0.0000000           -0.0000051
 Dipole Y            :         -0.0000019            0.0000000           -0.0000019
 Dipole Z            :         -0.0000000            0.0000000           -0.0000000
 Magnitude           :                                                    0.0000054
  Basis Set: (AUG-CC-PVTZ AUX)
    Blend: AUG-CC-PVTZ-RI + DEF2-QZVPP-RI
	 Reference Energy          =     -99.4509358377961377 [Eh]
	 Singles Energy            =      -0.0000000000000000 [Eh]
	 Same-Spin Energy          =      -0.0818038295487687 [Eh]
	 Opposite-Spin Energy      =      -0.2280745359211030 [Eh]
	 Correlation Energy        =      -0.3098783654698717 [Eh]
	 Total Energy              =     -99.7608142032660083 [Eh]

	 ================> DF-SCS-MP2 Energies <==================
	-----------------------------------------------------------
	 SCS Same-Spin Scale       =       0.3333333333333333 [-]
	 SCS Opposite-Spin Scale   =       1.2000000000000000 [-]
	 SCS Same-Spin Energy      =      -0.0272679431829229 [Eh]
	 SCS Opposite-Spin Energy  =      -0.2736894431053237 [Eh]
	 SCS Correlation Energy    =      -0.3009573862882466 [Eh]
	 SCS Total Energy          =     -99.7518932240843839 [Eh]
	-----------------------------------------------------------

*** Psi4 exiting successfully. Buy a developer a beer!
