                               Psi4 1.8.2 release

  ==> Input File <==

--------------------------------------------------------------------------
MEMORY 60 GB

molecule dimer {
1 1
Li     0.000000     0.000000     0.000000
--
-1 1
F      0.000000     1.584155     0.000000
--
-1 1
F      2.376232     0.000000     0.000000

units ang
no_reorient
no_com
symmetry c1
}

set {
basis        aug-cc-pVTZ
scf_type     df
}

energy("mp2", bsse_type="cp")
--------------------------------------------------------------------------

                               Psi4 1.8.2 release
    Molecular point group: c1
  Charge       = 1
  Multiplicity = 1
  Basis Set: AUG-CC-PVTZ
    Blend: AUG-CC-PVTZ
  Basis Set: (AUG-CC-PVTZ AUX)
    Blend: AUG-CC-PVTZ-JKFIT + DEF2-UNIVERSAL-JKFIT
  @DF-RHF Final Energy:    -7.23638344303584
    Total Energy =                         -7.2363834430358418
 Dipole X            :          0.0000554            0.0000000            0.0000554
 Dipole Y            :          0.0000062            0.0000000            0.0000062
 Dipole Z            :         -0.0000000            0.0000000           -0.0000000
 Magnitude           :                                                    0.0000557
  Basis Set: (AUG-CC-PVTZ AUX)
    Blend: AUG-CC-PVTZ-RI + DEF2-QZVPP-RI
	 Reference Energy          =      -7.2363834430358418 [Eh]
	 Singles Energy            =      -0.0000000000000000 [Eh]
	 Same-Spin Energy          =       0.0000000000000000 [Eh]
	 Opposite-Spin Energy      =      -0.0130531417362484 [Eh]
	 Correlation Energy        =      -0.0130531417362484 [Eh]
	 Total Energy              =      -7.2494365847720905 [Eh]
	 SCS Total Energy          =      -7.2520472131193401 [Eh]
                               Psi4 1.8.2 release
    Molecular point group: c1
  Basis Set: AUG-CC-PVTZ
    Blend: AUG-CC-PVTZ
  Basis Set: (AUG-CC-PVTZ AUX)
    Blend: AUG-CC-PVTZ-JKFIT + DEF2-UNIVERSAL-JKFIT
  @DF-RHF Final Energy:   -99.45089580448138
    Total Energy =                        -99.4508958044813767
  Basis Set: (AUG-CC-PVTZ AUX)
                               Psi4 1.8.2 release
  @DF-RHF Final Energy:  -198.72583506135473
    Total Energy =                       -198.7258350613547009
                               Psi4 1.8.2 release
  @DF-RHF Final Energy:  -106.91698370017914
    Total Energy =                       -106.9169837001791450
                               Psi4 1.8.2 release
  @DF-RHF Final Energy:  -106.98273463077177
    Total Energy =                       -106.9827346307717733
                               Psi4 1.8.2 release
  Multiplicity = 1
  @DF-RHF Final Energy:   -99.45085839247849
    Total Energy =                        -99.4508583924784944
	 Singles Energy            =      -0.0000000000000000 [Eh]
	 Same-Spin Energy          =      -0.0816661780283092 [Eh]
	 Opposite-Spin Energy      =      -0.2269052004412244 [Eh]
	 Correlation Energy        =      -0.3085713784695335 [Eh]
	 Total Energy              =     -99.7594297709480315 [Eh]
	 SCS Total Energy          =     -99.7503666923507382 [Eh]
                               Psi4 1.8.2 release
    Molecular point group: c1

    Geometry (in Bohr), charge = -1, multiplicity = 1:

       Center              X                  Y                   Z               Mass
    ------------   -----------------  -----------------  -----------------  -----------------
         LI           0.000000000000     0.000000000000     0.000000000000     7.016003436600
         F            0.000000000000     2.993619090275     0.000000000000    18.998403162730
         F            4.490427690549     0.000000000000     0.000000000000    18.998403162730

  Charge       = -1
  Multiplicity = 1
  Basis Set: AUG-CC-PVTZ
    Blend: AUG-CC-PVTZ
  Basis Set: (AUG-CC-PVTZ AUX)
    Blend: AUG-CC-PVTZ-JKFIT + DEF2-UNIVERSAL-JKFIT

    Orbital Energies [Eh]
    ---------------------

    Doubly Occupied:

       1A    -25.928312     2A    -25.868808     3A     -2.219286
       4A     -1.192012     5A     -1.112762     6A     -0.313047
       7A     -0.291478     8A     -0.290030     9A     -0.218227
      10A     -0.216786    11A     -0.214986

  @DF-RHF Final Energy:  -206.46697048925620

   => Energetics <=

    Nuclear Repulsion Energy =             30.0408046297942448
    One-Electron Energy =                -357.2840816992765554
    Two-Electron Energy =                 120.7763065802261053
    Total Energy =                       -206.4669704892561981
 Dipole X            :        -44.5524895           40.4138492           -4.1386402
 Dipole Y            :        -29.4902055           26.9425718           -2.5476337
 Dipole Z            :          0.0000000            0.0000000            0.0000000
 Magnitude           :                                                    4.8599157
  Basis Set: (AUG-CC-PVTZ AUX)
    Blend: AUG-CC-PVTZ-RI + DEF2-QZVPP-RI
	 Reference Energy          =    -206.4669704892561981 [Eh]
	 Singles Energy            =      -0.0000000000000000 [Eh]
	 Same-Spin Energy          =      -0.1616661590769905 [Eh]
	 Opposite-Spin Energy      =      -0.4627044652124414 [Eh]
	 Correlation Energy        =      -0.6243706242894318 [Eh]
	 Total Energy              =    -207.0913411135456386 [Eh]

	 ================> DF-SCS-MP2 Energies <==================
	-----------------------------------------------------------
	 SCS Same-Spin Scale       =       0.3333333333333333 [-]
	 SCS Opposite-Spin Scale   =       1.2000000000000000 [-]
	 SCS Same-Spin Energy      =      -0.0538887196923302 [Eh]
	 SCS Opposite-Spin Energy  =      -0.5552453582549296 [Eh]
	 SCS Correlation Energy    =      -0.6091340779472598 [Eh]
	 SCS Total Energy          =    -207.0761045672034584 [Eh]
	-----------------------------------------------------------

*** Psi4 exiting successfully. Buy a developer a beer!
