                               Psi4 1.8.2 release

  ==> Input File <==

--------------------------------------------------------------------------
MEMORY 60 GB

molecule dimer {
1 1
Li     0.000000     0.000000     0.000000
--
-1 1
F      0.000000     1.584155     0.000000
--
-1 1
F      2.217817     0.000000     0.000000

units ang
no_reorient
no_com
symmetry c1
}

set {
basis        aug-cc-pVTZ
scf_type     df
}

energy("mp2", bsse_type="cp")
--------------------------------------------------------------------------

                               Psi4 1.8.2 release
    Molecular point group: c1
  Charge       = 1
  Multiplicity = 1
  Basis Set: AUG-CC-PVTZ
    Blend: AUG-CC-PVTZ
  Basis Set: (AUG-CC-PVTZ AUX)
    Blend: AUG-CC-PVTZ-JKFIT + DEF2-UNIVERSAL-JKFIT
  @DF-RHF Final Energy:    -7.23638347807197
    Total Energy =                         -7.2363834780719722
 Dipole X            :          0.0000420            0.0000000            0.0000420
 Dipole Y            :          0.0000045            0.0000000            0.0000045
 Dipole Z            :         -0.0000000            0.0000000           -0.0000000
 Magnitude           :                                                    0.0000423
  Basis Set: (AUG-CC-PVTZ AUX)
    Blend: AUG-CC-PVTZ-RI + DEF2-QZVPP-RI
	 Reference Energy          =      -7.2363834780719722 [Eh]
	 Singles Energy            =      -0.0000000000000000 [Eh]
	 Same-Spin Energy          =       0.0000000000000000 [Eh]
	 Opposite-Spin Energy      =      -0.0132088146355000 [Eh]
	 Correlation Energy        =      -0.0132088146355000 [Eh]
	 Total Energy              =      -7.2495922927074723 [Eh]
	 SCS Total Energy          =      -7.2522340556345721 [Eh]
                               Psi4 1.8.2 release
    Molecular point group: c1
  Basis Set: AUG-CC-PVTZ
    Blend: AUG-CC-PVTZ
  Basis Set: (AUG-CC-PVTZ AUX)
    Blend: AUG-CC-PVTZ-JKFIT + DEF2-UNIVERSAL-JKFIT
  @DF-RHF Final Energy:   -99.45089762403923
    Total Energy =                        -99.4508976240392428
  Basis Set: (AUG-CC-PVTZ AUX)
                               Psi4 1.8.2 release
  @DF-RHF Final Energy:  -198.71811130070876
    Total Energy =                       -198.7181113007087561
                               Psi4 1.8.2 release
  @DF-RHF Final Energy:  -106.93177890993164
    Total Energy =                       -106.9317789099316514
                               Psi4 1.8.2 release
  @DF-RHF Final Energy:  -106.98276678892425
    Total Energy =                       -106.9827667889242520
                               Psi4 1.8.2 release
  Multiplicity = 1
  @DF-RHF Final Energy:   -99.45086878186791
    Total Energy =                        -99.4508687818679107
	 Singles Energy            =      -0.0000000000000000 [Eh]
	 Same-Spin Energy          =      -0.0816805415527950 [Eh]
	 Opposite-Spin Energy      =      -0.2270079009613263 [Eh]
	 Correlation Energy        =      -0.3086884425141214 [Eh]
	 Total Energy              =     -99.7595572243820357 [Eh]
	 SCS Total Energy          =     -99.7505051102057649 [Eh]
                               Psi4 1.8.2 release
    Molecular point group: c1

    Geometry (in Bohr), charge = -1, multiplicity = 1:

       Center              X                  Y                   Z               Mass
    ------------   -----------------  -----------------  -----------------  -----------------
         LI           0.000000000000     0.000000000000     0.000000000000     7.016003436600
         F            0.000000000000     2.993619090275     0.000000000000    18.998403162730
         F            4.191066726385     0.000000000000     0.000000000000    18.998403162730

  Charge       = -1
  Multiplicity = 1
  Basis Set: AUG-CC-PVTZ
    Blend: AUG-CC-PVTZ
  Basis Set: (AUG-CC-PVTZ AUX)
    Blend: AUG-CC-PVTZ-JKFIT + DEF2-UNIVERSAL-JKFIT

    Orbital Energies [Eh]
    ---------------------

    Doubly Occupied:

       1A    -25.919994     2A    -25.872733     3A     -2.204307
       4A     -1.183957     5A     -1.118160     6A     -0.305519
       7A     -0.285485     8A     -0.282269     9A     -0.224336
      10A     -0.221424    11A     -0.217841

  @DF-RHF Final Energy:  -206.47169659699733

   => Energetics <=

    Nuclear Repulsion Energy =             31.1883393182114368
    One-Electron Energy =                -359.6480241187566094
    Two-Electron Energy =                 121.9879882035478431
    Total Energy =                       -206.4716965969973330
 Dipole X            :        -41.5345487           37.7196005           -3.8149482
 Dipole Y            :        -29.4902338           26.9425718           -2.5476620
 Dipole Z            :         -0.0000000            0.0000000           -0.0000000
 Magnitude           :                                                    4.5874188
  Basis Set: (AUG-CC-PVTZ AUX)
    Blend: AUG-CC-PVTZ-RI + DEF2-QZVPP-RI
	 Reference Energy          =    -206.4716965969973330 [Eh]
	 Singles Energy            =      -0.0000000000000000 [Eh]
	 Same-Spin Energy          =      -0.1616639907260370 [Eh]
	 Opposite-Spin Energy      =      -0.4627414691459754 [Eh]
	 Correlation Energy        =      -0.6244054598720125 [Eh]
	 Total Energy              =    -207.0961020568693414 [Eh]

	 ================> DF-SCS-MP2 Energies <==================
	-----------------------------------------------------------
	 SCS Same-Spin Scale       =       0.3333333333333333 [-]
	 SCS Opposite-Spin Scale   =       1.2000000000000000 [-]
	 SCS Same-Spin Energy      =      -0.0538879969086790 [Eh]
	 SCS Opposite-Spin Energy  =      -0.5552897629751705 [Eh]
	 SCS Correlation Energy    =      -0.6091777598838495 [Eh]
	 SCS Total Energy          =    -207.0808743568811963 [Eh]
	-----------------------------------------------------------

*** Psi4 exiting successfully. Buy a developer a beer!
