                               Psi4 1.8.2 release

  ==> Input File <==

--------------------------------------------------------------------------
MEMORY 60 GB

molecule dimer {
-1 1
Gh(Li)     0.000000     0.000000     0.000000
Gh(F)      0.000000     1.584155     0.000000
F          2.217817     0.000000     0.000000

units ang
no_reorient
no_com
symmetry c1
}

set {
basis        aug-cc-pVTZ
scf_type     df
}

energy("mp2")
--------------------------------------------------------------------------

    Molecular point group: c1

    Geometry (in Angstrom), charge = -1, multiplicity = 1:

       Center              X                  Y                   Z               Mass
    ------------   -----------------  -----------------  -----------------  -----------------
      Gh(LI)          0.000000000000     0.000000000000     0.000000000000     7.016003436600
      Gh(F)           0.000000000000     1.584155000000     0.000000000000    18.998403162730
         F            2.217817000000     0.000000000000     0.000000000000    18.998403162730

  Charge       = -1
  Multiplicity = 1
  Basis Set: AUG-CC-PVTZ
    Blend: AUG-CC-PVTZ
  Basis Set: (AUG-CC-PVTZ AUX)
    Blend: AUG-CC-PVTZ-JKFIT + DEF2-UNIVERSAL-JKFIT

    Orbital Energies [Eh]
    ---------------------

    Doubly Occupied:

       1A    -25.833813     2A     -1.076062     3A     -0.181035
       4A     -0.180987     5A     -0.180986

  @DF-RHF Final Energy:   -99.45086878186792

   => Energetics <=

    Nuclear Repulsion Energy =              0.0000000000000000
    One-Electron Energy =                -143.9959711920139682
    Two-Electron Energy =                  44.5451024101460433
    Total Energy =                        -99.4508687818679249
 Dipole X            :        -41.9102579           37.7196005           -4.1906574
 Dipole Y            :          0.0000735            0.0000000            0.0000735
 Dipole Z            :          0.0000000            0.0000000            0.0000000
 Magnitude           :                                                    4.1906574
  Basis Set: (AUG-CC-PVTZ AUX)
    Blend: AUG-CC-PVTZ-RI + DEF2-QZVPP-RI
	 Reference Energy          =     -99.4508687818679249 [Eh]
	 Singles Energy            =      -0.0000000000000000 [Eh]
	 Same-Spin Energy          =      -0.0816805415527956 [Eh]
	 Opposite-Spin Energy      =      -0.2270079009613283 [Eh]
	 Correlation Energy        =      -0.3086884425141239 [Eh]
	 Total Energy              =     -99.7595572243820499 [Eh]

	 ================> DF-SCS-MP2 Energies <==================
	-----------------------------------------------------------
	 SCS Same-Spin Scale       =       0.3333333333333333 [-]
	 SCS Opposite-Spin Scale   =       1.2000000000000000 [-]
	 SCS Same-Spin Energy      =      -0.0272268471842652 [Eh]
	 SCS Opposite-Spin Energy  =      -0.2724094811535939 [Eh]
	 SCS Correlation Energy    =      -0.2996363283378591 [Eh]
	 SCS Total Energy          =     -99.7505051102057791 [Eh]
	-----------------------------------------------------------

*** Psi4 exiting successfully. Buy a developer a beer!
