                               Psi4 1.8.2 release

  ==> Input File <==

--------------------------------------------------------------------------
MEMORY 60 GB

molecule dimer {
-1 1
Li         0.000000     0.000000     0.000000
F          0.000000     1.584155     0.000000
F          1.900986     0.000000     0.000000

units ang
no_reorient
no_com
symmetry c1
}

set {
basis        aug-cc-pVTZ
scf_type     df
}

energy("mp2")
--------------------------------------------------------------------------

    Molecular point group: c1

    Geometry (in Angstrom), charge = -1, multiplicity = 1:

       Center              X                  Y                   Z               Mass
    ------------   -----------------  -----------------  -----------------  -----------------
         LI           0.000000000000     0.000000000000     0.000000000000     7.016003436600
         F            0.000000000000     1.584155000000     0.000000000000    18.998403162730
         F            1.900986000000     0.000000000000     0.000000000000    18.998403162730

  Charge       = -1
  Multiplicity = 1
  Basis Set: AUG-CC-PVTZ
    Blend: AUG-CC-PVTZ
  Basis Set: (AUG-CC-PVTZ AUX)
    Blend: AUG-CC-PVTZ-JKFIT + DEF2-UNIVERSAL-JKFIT

    Orbital Energies [Eh]
    ---------------------

    Doubly Occupied:

       1A    -25.902180     2A    -25.879800     3A     -2.169556
       4A     -1.167617     5A     -1.131022     6A     -0.294271
       7A     -0.275269     8A     -0.267394     9A     -0.239836
      10A     -0.230873    11A     -0.218133

  @DF-RHF Final Energy:  -206.47986428545536

   => Energetics <=

    Nuclear Repulsion Energy =             33.8569915932504983
    One-Electron Energy =                -365.1218127302686298
    Two-Electron Energy =                 124.7849568515627823
    Total Energy =                       -206.4798642854553634
 Dipole X            :        -35.5104198           32.3310862           -3.1793336
 Dipole Y            :        -29.4961119           26.9425718           -2.5535400
 Dipole Z            :          0.0000000            0.0000000            0.0000000
 Magnitude           :                                                    4.0778339
  Basis Set: (AUG-CC-PVTZ AUX)
    Blend: AUG-CC-PVTZ-RI + DEF2-QZVPP-RI
	 Reference Energy          =    -206.4798642854553634 [Eh]
	 Singles Energy            =      -0.0000000000000000 [Eh]
	 Same-Spin Energy          =      -0.1615624184265370 [Eh]
	 Opposite-Spin Energy      =      -0.4625836820842047 [Eh]
	 Correlation Energy        =      -0.6241461005107417 [Eh]
	 Total Energy              =    -207.1040103859660917 [Eh]

	 ================> DF-SCS-MP2 Energies <==================
	-----------------------------------------------------------
	 SCS Same-Spin Scale       =       0.3333333333333333 [-]
	 SCS Opposite-Spin Scale   =       1.2000000000000000 [-]
	 SCS Same-Spin Energy      =      -0.0538541394755123 [Eh]
	 SCS Opposite-Spin Energy  =      -0.5551004185010456 [Eh]
	 SCS Correlation Energy    =      -0.6089545579765580 [Eh]
	 SCS Total Energy          =    -207.0888188434319090 [Eh]
	-----------------------------------------------------------

*** Psi4 exiting successfully. Buy a developer a beer!
