                               Psi4 1.9 release

  ==> Input File <==

--------------------------------------------------------------------------
MEMORY 60 GB

molecule dimer {
0 1
Li     0.000000     0.000000     0.000000
F      0.000000     1.584155     0.000000
--
-1 1
F      3.168310     0.000000     0.000000

units ang
no_reorient
no_com
symmetry c1
}

set {
basis        aug-cc-pVTZ
scf_type     df
}

energy("mp2", bsse_type="cp")
--------------------------------------------------------------------------

                               Psi4 1.9 release
    Molecular point group: c1
  Charge       = -1
  Multiplicity = 1
  Basis Set: AUG-CC-PVTZ
    Blend: AUG-CC-PVTZ
  Basis Set: (AUG-CC-PVTZ AUX)
    Blend: AUG-CC-PVTZ-JKFIT + DEF2-UNIVERSAL-JKFIT
  @DF-RHF Final Energy:   -99.45082782498031
    Total Energy =                        -99.4508278249803084
 Dipole X            :        -59.8718569           53.8851436           -5.9867133
 Dipole Y            :         -0.0001111            0.0000000           -0.0001111
 Dipole Z            :          0.0000000            0.0000000            0.0000000
 Magnitude           :                                                    5.9867133
  Basis Set: (AUG-CC-PVTZ AUX)
    Blend: AUG-CC-PVTZ-RI + DEF2-QZVPP-RI
	 Reference Energy          =     -99.4508278249803084 [Eh]
	 Singles Energy            =      -0.0000000000000000 [Eh]
	 Same-Spin Energy          =      -0.0816170816869852 [Eh]
	 Opposite-Spin Energy      =      -0.2265933626776554 [Eh]
	 Correlation Energy        =      -0.3082104443646406 [Eh]
	 Total Energy              =     -99.7590382693449556 [Eh]
	 SCS Total Energy          =     -99.7499455540891518 [Eh]
                               Psi4 1.9 release
    Molecular point group: c1
  Multiplicity = 1
  Basis Set: AUG-CC-PVTZ
    Blend: AUG-CC-PVTZ
  Basis Set: (AUG-CC-PVTZ AUX)
    Blend: AUG-CC-PVTZ-JKFIT + DEF2-UNIVERSAL-JKFIT
  @DF-RHF Final Energy:  -106.98267758229608
    Total Energy =                       -106.9826775822960769
  Basis Set: (AUG-CC-PVTZ AUX)
	 Singles Energy            =      -0.0000000000000000 [Eh]
	 Same-Spin Energy          =      -0.0795630028216222 [Eh]
	 Opposite-Spin Energy      =      -0.2351837175473053 [Eh]
	 Correlation Energy        =      -0.3147467203689275 [Eh]
	 Total Energy              =    -107.2974243026650072 [Eh]
	 SCS Total Energy          =    -107.2914190442933773 [Eh]
                               Psi4 1.9 release
    Molecular point group: c1

    Geometry (in Bohr), charge = -1, multiplicity = 1:

       Center              X                  Y                   Z               Mass
    ------------   -----------------  -----------------  -----------------  -----------------
         LI           0.000000000000     0.000000000000     0.000000000000     7.016003436600
         F            0.000000000000     2.993619090275     0.000000000000    18.998403162730
         F            5.987238180549     0.000000000000     0.000000000000    18.998403162730

  Charge       = -1
  Multiplicity = 1
  Basis Set: AUG-CC-PVTZ
    Blend: AUG-CC-PVTZ
  Basis Set: (AUG-CC-PVTZ AUX)
    Blend: AUG-CC-PVTZ-JKFIT + DEF2-UNIVERSAL-JKFIT

    Orbital Energies [Eh]
    ---------------------

    Doubly Occupied:

       1A    -25.963495     2A    -25.852433     3A     -2.273787
       4A     -1.226899     5A     -1.094495     6A     -0.347470
       7A     -0.324293     8A     -0.323571     9A     -0.199600
      10A     -0.199495    11A     -0.198735

  @DF-RHF Final Energy:  -206.44984001725535

   => Energetics <=

    Nuclear Repulsion Energy =             25.6292797853776477
    One-Electron Energy =                -348.1496959739846488
    Two-Electron Energy =                 116.0705761713516324
    Total Energy =                       -206.4498400172553545
 Dipole X            :        -59.6444819           53.8851436           -5.7593383
 Dipole Y            :        -29.5008865           26.9425718           -2.5583147
 Dipole Z            :          0.0000000            0.0000000            0.0000000
 Magnitude           :                                                    6.3019800
  Basis Set: (AUG-CC-PVTZ AUX)
    Blend: AUG-CC-PVTZ-RI + DEF2-QZVPP-RI
	 Reference Energy          =    -206.4498400172553545 [Eh]
	 Singles Energy            =      -0.0000000000000000 [Eh]
	 Same-Spin Energy          =      -0.1614386976500028 [Eh]
	 Opposite-Spin Energy      =      -0.4621064659014276 [Eh]
	 Correlation Energy        =      -0.6235451635514304 [Eh]
	 Total Energy              =    -207.0733851808067811 [Eh]

	 ================> DF-SCS-MP2 Energies <==================
	-----------------------------------------------------------
	 SCS Same-Spin Scale       =       0.3333333333333333 [-]
	 SCS Opposite-Spin Scale   =       1.2000000000000000 [-]
	 SCS Same-Spin Energy      =      -0.0538128992166676 [Eh]
	 SCS Opposite-Spin Energy  =      -0.5545277590817130 [Eh]
	 SCS Correlation Energy    =      -0.6083406582983807 [Eh]
	 SCS Total Energy          =    -207.0581806755537286 [Eh]
	-----------------------------------------------------------

*** Psi4 exiting successfully. Buy a developer a beer!
