                               Psi4 1.8.2 release

  ==> Input File <==

--------------------------------------------------------------------------
MEMORY 60 GB

molecule dimer {
-1 1
Li         0.000000     0.000000     0.000000
F          0.000000     1.584155     0.000000
F          2.217817     0.000000     0.000000

units ang
no_reorient
no_com
symmetry c1
}

set {
basis        aug-cc-pVTZ
scf_type     df
}

energy("mp2")
--------------------------------------------------------------------------

    Molecular point group: c1

    Geometry (in Angstrom), charge = -1, multiplicity = 1:

       Center              X                  Y                   Z               Mass
    ------------   -----------------  -----------------  -----------------  -----------------
         LI           0.000000000000     0.000000000000     0.000000000000     7.016003436600
         F            0.000000000000     1.584155000000     0.000000000000    18.998403162730
         F            2.217817000000     0.000000000000     0.000000000000    18.998403162730

  Charge       = -1
  Multiplicity = 1
  Basis Set: AUG-CC-PVTZ
    Blend: AUG-CC-PVTZ
  Basis Set: (AUG-CC-PVTZ AUX)
    Blend: AUG-CC-PVTZ-JKFIT + DEF2-UNIVERSAL-JKFIT

    Orbital Energies [Eh]
    ---------------------

    Doubly Occupied:

       1A    -25.919994     2A    -25.872733     3A     -2.204307
       4A     -1.183957     5A     -1.118160     6A     -0.305519
       7A     -0.285485     8A     -0.282269     9A     -0.224336
      10A     -0.221424    11A     -0.217841

  @DF-RHF Final Energy:  -206.47169659699736

   => Energetics <=

    Nuclear Repulsion Energy =             31.1883393182114368
    One-Electron Energy =                -359.6480241187564957
    Two-Electron Energy =                 121.9879882035477010
    Total Energy =                       -206.4716965969973614
 Dipole X            :        -41.5345487           37.7196005           -3.8149482
 Dipole Y            :        -29.4902338           26.9425718           -2.5476620
 Dipole Z            :          0.0000000            0.0000000            0.0000000
 Magnitude           :                                                    4.5874188
  Basis Set: (AUG-CC-PVTZ AUX)
    Blend: AUG-CC-PVTZ-RI + DEF2-QZVPP-RI
	 Reference Energy          =    -206.4716965969973614 [Eh]
	 Singles Energy            =      -0.0000000000000000 [Eh]
	 Same-Spin Energy          =      -0.1616639907260366 [Eh]
	 Opposite-Spin Energy      =      -0.4627414691459780 [Eh]
	 Correlation Energy        =      -0.6244054598720146 [Eh]
	 Total Energy              =    -207.0961020568693698 [Eh]

	 ================> DF-SCS-MP2 Energies <==================
	-----------------------------------------------------------
	 SCS Same-Spin Scale       =       0.3333333333333333 [-]
	 SCS Opposite-Spin Scale   =       1.2000000000000000 [-]
	 SCS Same-Spin Energy      =      -0.0538879969086789 [Eh]
	 SCS Opposite-Spin Energy  =      -0.5552897629751736 [Eh]
	 SCS Correlation Energy    =      -0.6091777598838525 [Eh]
	 SCS Total Energy          =    -207.0808743568812247 [Eh]
	-----------------------------------------------------------

*** Psi4 exiting successfully. Buy a developer a beer!
