                               Psi4 1.9 release

  ==> Input File <==

--------------------------------------------------------------------------
MEMORY 60 GB

molecule dimer {
0 1
Li     0.000000     0.000000     0.000000
F      0.000000     1.584155     0.000000
--
-1 1
F      1.900986     0.000000     0.000000

units ang
no_reorient
no_com
symmetry c1
}

set {
basis        aug-cc-pVTZ
scf_type     df
}

energy("mp2", bsse_type="cp")
--------------------------------------------------------------------------

                               Psi4 1.9 release
    Molecular point group: c1
  Charge       = -1
  Multiplicity = 1
  Basis Set: AUG-CC-PVTZ
    Blend: AUG-CC-PVTZ
  Basis Set: (AUG-CC-PVTZ AUX)
    Blend: AUG-CC-PVTZ-JKFIT + DEF2-UNIVERSAL-JKFIT
  @DF-RHF Final Energy:   -99.45089940733305
    Total Energy =                        -99.4508994073330399
 Dipole X            :        -35.9238164           32.3310862           -3.5927303
 Dipole Y            :          0.0001173            0.0000000            0.0001173
 Dipole Z            :         -0.0000000            0.0000000           -0.0000000
 Magnitude           :                                                    3.5927303
  Basis Set: (AUG-CC-PVTZ AUX)
    Blend: AUG-CC-PVTZ-RI + DEF2-QZVPP-RI
	 Reference Energy          =     -99.4508994073330541 [Eh]
	 Singles Energy            =      -0.0000000000000000 [Eh]
	 Same-Spin Energy          =      -0.0817211181637396 [Eh]
	 Opposite-Spin Energy      =      -0.2273025333251475 [Eh]
	 Correlation Energy        =      -0.3090236514888871 [Eh]
	 Total Energy              =     -99.7599230588219399 [Eh]
	 SCS Total Energy          =     -99.7509028200444732 [Eh]
                               Psi4 1.9 release
    Molecular point group: c1
  Multiplicity = 1
  Basis Set: AUG-CC-PVTZ
    Blend: AUG-CC-PVTZ
  Basis Set: (AUG-CC-PVTZ AUX)
    Blend: AUG-CC-PVTZ-JKFIT + DEF2-UNIVERSAL-JKFIT
  @DF-RHF Final Energy:  -106.98287264079222
    Total Energy =                       -106.9828726407922090
  Basis Set: (AUG-CC-PVTZ AUX)
	 Singles Energy            =      -0.0000000000000000 [Eh]
	 Same-Spin Energy          =      -0.0796385705710436 [Eh]
	 Opposite-Spin Energy      =      -0.2363314317284383 [Eh]
	 Correlation Energy        =      -0.3159700022994819 [Eh]
	 Total Energy              =    -107.2988426430917031 [Eh]
	 SCS Total Energy          =    -107.2930165490567020 [Eh]
                               Psi4 1.9 release
    Molecular point group: c1

    Geometry (in Bohr), charge = -1, multiplicity = 1:

       Center              X                  Y                   Z               Mass
    ------------   -----------------  -----------------  -----------------  -----------------
         LI           0.000000000000     0.000000000000     0.000000000000     7.016003436600
         F            0.000000000000     2.993619090275     0.000000000000    18.998403162730
         F            3.592342908330     0.000000000000     0.000000000000    18.998403162730

  Charge       = -1
  Multiplicity = 1
  Basis Set: AUG-CC-PVTZ
    Blend: AUG-CC-PVTZ
  Basis Set: (AUG-CC-PVTZ AUX)
    Blend: AUG-CC-PVTZ-JKFIT + DEF2-UNIVERSAL-JKFIT

    Orbital Energies [Eh]
    ---------------------

    Doubly Occupied:

       1A    -25.902180     2A    -25.879800     3A     -2.169556
       4A     -1.167617     5A     -1.131022     6A     -0.294271
       7A     -0.275269     8A     -0.267394     9A     -0.239836
      10A     -0.230873    11A     -0.218133

  @DF-RHF Final Energy:  -206.47986428547199

   => Energetics <=

    Nuclear Repulsion Energy =             33.8569915932504983
    One-Electron Energy =                -365.1218127302677203
    Two-Electron Energy =                 124.7849568515452319
    Total Energy =                       -206.4798642854719901
 Dipole X            :        -35.5104198           32.3310862           -3.1793336
 Dipole Y            :        -29.4961119           26.9425718           -2.5535400
 Dipole Z            :          0.0000000            0.0000000            0.0000000
 Magnitude           :                                                    4.0778339
  Basis Set: (AUG-CC-PVTZ AUX)
    Blend: AUG-CC-PVTZ-RI + DEF2-QZVPP-RI
	 Reference Energy          =    -206.4798642854719901 [Eh]
	 Singles Energy            =      -0.0000000000000000 [Eh]
	 Same-Spin Energy          =      -0.1615624184264660 [Eh]
	 Opposite-Spin Energy      =      -0.4625836820826031 [Eh]
	 Correlation Energy        =      -0.6241461005090692 [Eh]
	 Total Energy              =    -207.1040103859810699 [Eh]

	 ================> DF-SCS-MP2 Energies <==================
	-----------------------------------------------------------
	 SCS Same-Spin Scale       =       0.3333333333333333 [-]
	 SCS Opposite-Spin Scale   =       1.2000000000000000 [-]
	 SCS Same-Spin Energy      =      -0.0538541394754887 [Eh]
	 SCS Opposite-Spin Energy  =      -0.5551004184991237 [Eh]
	 SCS Correlation Energy    =      -0.6089545579746124 [Eh]
	 SCS Total Energy          =    -207.0888188434466031 [Eh]
	-----------------------------------------------------------

*** Psi4 exiting successfully. Buy a developer a beer!
