                               Psi4 1.9 release

  ==> Input File <==

--------------------------------------------------------------------------
MEMORY 60 GB

molecule dimer {
0 1
Li     0.000000     0.000000     0.000000
F      0.000000     1.584155     0.000000
--
-1 1
F      1.742571     0.000000     0.000000

units ang
no_reorient
no_com
symmetry c1
}

set {
basis        aug-cc-pVTZ
scf_type     df
}

energy("mp2", bsse_type="cp")
--------------------------------------------------------------------------

                               Psi4 1.9 release
    Molecular point group: c1
  Charge       = -1
  Multiplicity = 1
  Basis Set: AUG-CC-PVTZ
    Blend: AUG-CC-PVTZ
  Basis Set: (AUG-CC-PVTZ AUX)
    Blend: AUG-CC-PVTZ-JKFIT + DEF2-UNIVERSAL-JKFIT
  @DF-RHF Final Energy:   -99.45091080174191
    Total Energy =                        -99.4509108017419123
 Dipole X            :        -32.9303878           29.6368375           -3.2935503
 Dipole Y            :          0.0001209            0.0000000            0.0001209
 Dipole Z            :          0.0000000            0.0000000            0.0000000
 Magnitude           :                                                    3.2935503
  Basis Set: (AUG-CC-PVTZ AUX)
    Blend: AUG-CC-PVTZ-RI + DEF2-QZVPP-RI
	 Reference Energy          =     -99.4509108017419123 [Eh]
	 Singles Energy            =      -0.0000000000000000 [Eh]
	 Same-Spin Energy          =      -0.0817478422961142 [Eh]
	 Opposite-Spin Energy      =      -0.2275030478269343 [Eh]
	 Correlation Energy        =      -0.3092508901230485 [Eh]
	 Total Energy              =     -99.7601616918649654 [Eh]
	 SCS Total Energy          =     -99.7511637398996101 [Eh]
                               Psi4 1.9 release
    Molecular point group: c1
  Multiplicity = 1
  Basis Set: AUG-CC-PVTZ
    Blend: AUG-CC-PVTZ
  Basis Set: (AUG-CC-PVTZ AUX)
    Blend: AUG-CC-PVTZ-JKFIT + DEF2-UNIVERSAL-JKFIT
  @DF-RHF Final Energy:  -106.98293757598435
    Total Energy =                       -106.9829375759843515
  Basis Set: (AUG-CC-PVTZ AUX)
	 Singles Energy            =      -0.0000000000000000 [Eh]
	 Same-Spin Energy          =      -0.0796594036815536 [Eh]
	 Opposite-Spin Energy      =      -0.2367394705778926 [Eh]
	 Correlation Energy        =      -0.3163988742594462 [Eh]
	 Total Energy              =    -107.2993364502437998 [Eh]
	 SCS Total Energy          =    -107.2935780752383437 [Eh]
                               Psi4 1.9 release
    Molecular point group: c1

    Geometry (in Bohr), charge = -1, multiplicity = 1:

       Center              X                  Y                   Z               Mass
    ------------   -----------------  -----------------  -----------------  -----------------
         LI           0.000000000000     0.000000000000     0.000000000000     7.016003436600
         F            0.000000000000     2.993619090275     0.000000000000    18.998403162730
         F            3.292981944165     0.000000000000     0.000000000000    18.998403162730

  Charge       = -1
  Multiplicity = 1
  Basis Set: AUG-CC-PVTZ
    Blend: AUG-CC-PVTZ
  Basis Set: (AUG-CC-PVTZ AUX)
    Blend: AUG-CC-PVTZ-JKFIT + DEF2-UNIVERSAL-JKFIT

    Orbital Energies [Eh]
    ---------------------

    Doubly Occupied:

       1A    -25.892774     2A    -25.882183     3A     -2.150144
       4A     -1.160593     5A     -1.137751     6A     -0.294611
       7A     -0.268813     8A     -0.262372     9A     -0.249486
      10A     -0.234024    11A     -0.213768

  @DF-RHF Final Energy:  -206.48029141688934

   => Energetics <=

    Nuclear Repulsion Energy =             35.4193142343914786
    One-Electron Energy =                -368.3061739679253606
    Two-Electron Energy =                 126.4065683166445240
    Total Energy =                       -206.4802914168893437
 Dipole X            :        -32.5074631           29.6368375           -2.8706256
 Dipole Y            :        -29.5026942           26.9425718           -2.5601223
 Dipole Z            :          0.0000000            0.0000000            0.0000000
 Magnitude           :                                                    3.8463902
  Basis Set: (AUG-CC-PVTZ AUX)
    Blend: AUG-CC-PVTZ-RI + DEF2-QZVPP-RI
	 Reference Energy          =    -206.4802914168893437 [Eh]
	 Singles Energy            =      -0.0000000000000000 [Eh]
	 Same-Spin Energy          =      -0.1614771875757008 [Eh]
	 Opposite-Spin Energy      =      -0.4623631393959410 [Eh]
	 Correlation Energy        =      -0.6238403269716417 [Eh]
	 Total Energy              =    -207.1041317438609894 [Eh]

	 ================> DF-SCS-MP2 Energies <==================
	-----------------------------------------------------------
	 SCS Same-Spin Scale       =       0.3333333333333333 [-]
	 SCS Opposite-Spin Scale   =       1.2000000000000000 [-]
	 SCS Same-Spin Energy      =      -0.0538257291919002 [Eh]
	 SCS Opposite-Spin Energy  =      -0.5548357672751292 [Eh]
	 SCS Correlation Energy    =      -0.6086614964670294 [Eh]
	 SCS Total Energy          =    -207.0889529133563656 [Eh]
	-----------------------------------------------------------

*** Psi4 exiting successfully. Buy a developer a beer!
