                               Psi4 1.9 release

  ==> Input File <==

--------------------------------------------------------------------------
MEMORY 60 GB

molecule dimer {
0 1
Li     0.000000     0.000000     0.000000
F      0.000000     1.584155     0.000000
--
-1 1
F      1.584155     0.000000     0.000000

units ang
no_reorient
no_com
symmetry c1
}

set {
basis        aug-cc-pVTZ
scf_type     df
}

energy("mp2", bsse_type="cp")
--------------------------------------------------------------------------

                               Psi4 1.9 release
    Molecular point group: c1
  Charge       = -1
  Multiplicity = 1
  Basis Set: AUG-CC-PVTZ
    Blend: AUG-CC-PVTZ
  Basis Set: (AUG-CC-PVTZ AUX)
    Blend: AUG-CC-PVTZ-JKFIT + DEF2-UNIVERSAL-JKFIT
  @DF-RHF Final Energy:   -99.45091466491830
    Total Energy =                        -99.4509146649182867
 Dipole X            :        -29.9367793           26.9425718           -2.9942075
 Dipole Y            :          0.0001168            0.0000000            0.0001168
 Dipole Z            :          0.0000000            0.0000000            0.0000000
 Magnitude           :                                                    2.9942075
  Basis Set: (AUG-CC-PVTZ AUX)
    Blend: AUG-CC-PVTZ-RI + DEF2-QZVPP-RI
	 Reference Energy          =     -99.4509146649183009 [Eh]
	 Singles Energy            =      -0.0000000000000000 [Eh]
	 Same-Spin Energy          =      -0.0817772240973504 [Eh]
	 Opposite-Spin Energy      =      -0.2277366364712444 [Eh]
	 Correlation Energy        =      -0.3095138605685948 [Eh]
	 Total Energy              =     -99.7604285254869012 [Eh]
	 SCS Total Energy          =     -99.7514577033829113 [Eh]
                               Psi4 1.9 release
    Molecular point group: c1
  Multiplicity = 1
  Basis Set: AUG-CC-PVTZ
    Blend: AUG-CC-PVTZ
  Basis Set: (AUG-CC-PVTZ AUX)
    Blend: AUG-CC-PVTZ-JKFIT + DEF2-UNIVERSAL-JKFIT
  @DF-RHF Final Energy:  -106.98300925190119
    Total Energy =                       -106.9830092519011941
  Basis Set: (AUG-CC-PVTZ AUX)
	 Singles Energy            =      -0.0000000000000000 [Eh]
	 Same-Spin Energy          =      -0.0796835533232809 [Eh]
	 Opposite-Spin Energy      =      -0.2372236337404682 [Eh]
	 Correlation Energy        =      -0.3169071870637492 [Eh]
	 Total Energy              =    -107.2999164389649422 [Eh]
	 SCS Total Energy          =    -107.2942387968308537 [Eh]
                               Psi4 1.9 release
    Molecular point group: c1

    Geometry (in Bohr), charge = -1, multiplicity = 1:

       Center              X                  Y                   Z               Mass
    ------------   -----------------  -----------------  -----------------  -----------------
         LI           0.000000000000     0.000000000000     0.000000000000     7.016003436600
         F            0.000000000000     2.993619090275     0.000000000000    18.998403162730
         F            2.993619090275     0.000000000000     0.000000000000    18.998403162730

  Charge       = -1
  Multiplicity = 1
  Basis Set: AUG-CC-PVTZ
    Blend: AUG-CC-PVTZ
  Basis Set: (AUG-CC-PVTZ AUX)
    Blend: AUG-CC-PVTZ-JKFIT + DEF2-UNIVERSAL-JKFIT

    Orbital Energies [Eh]
    ---------------------

    Doubly Occupied:

       1A    -25.883157     2A    -25.883143     3A     -2.130428
       4A     -1.158752     5A     -1.140570     6A     -0.299577
       7A     -0.262500     8A     -0.261586     9A     -0.259626
      10A     -0.233261    11A     -0.206346

  @DF-RHF Final Energy:  -206.47347409290359

   => Energetics <=

    Nuclear Repulsion Energy =             37.1709445726114467
    One-Electron Energy =                -371.8509460863903655
    Two-Electron Energy =                 128.2065274208753181
    Total Energy =                       -206.4734740929035866
 Dipole X            :        -29.5117402           26.9425718           -2.5691684
 Dipole Y            :        -29.5117402           26.9425718           -2.5691684
 Dipole Z            :         -0.0000000            0.0000000           -0.0000000
 Magnitude           :                                                    3.6333528
  Basis Set: (AUG-CC-PVTZ AUX)
    Blend: AUG-CC-PVTZ-RI + DEF2-QZVPP-RI
	 Reference Energy          =    -206.4734740929035866 [Eh]
	 Singles Energy            =      -0.0000000000000000 [Eh]
	 Same-Spin Energy          =      -0.1614120341997538 [Eh]
	 Opposite-Spin Energy      =      -0.4620504019728578 [Eh]
	 Correlation Energy        =      -0.6234624361726117 [Eh]
	 Total Energy              =    -207.0969365290762028 [Eh]

	 ================> DF-SCS-MP2 Energies <==================
	-----------------------------------------------------------
	 SCS Same-Spin Scale       =       0.3333333333333333 [-]
	 SCS Opposite-Spin Scale   =       1.2000000000000000 [-]
	 SCS Same-Spin Energy      =      -0.0538040113999179 [Eh]
	 SCS Opposite-Spin Energy  =      -0.5544604823674294 [Eh]
	 SCS Correlation Energy    =      -0.6082644937673474 [Eh]
	 SCS Total Energy          =    -207.0817385866709230 [Eh]
	-----------------------------------------------------------

*** Psi4 exiting successfully. Buy a developer a beer!
