                               Psi4 1.9 release

  ==> Input File <==

--------------------------------------------------------------------------
MEMORY 60 GB

molecule dimer {
0 1
Li     0.000000     0.000000     0.000000
F      0.000000     1.584155     0.000000
--
-1 1
F      2.376232     0.000000     0.000000

units ang
no_reorient
no_com
symmetry c1
}

set {
basis        aug-cc-pVTZ
scf_type     df
}

energy("mp2", bsse_type="cp")
--------------------------------------------------------------------------

                               Psi4 1.9 release
    Molecular point group: c1
  Charge       = -1
  Multiplicity = 1
  Basis Set: AUG-CC-PVTZ
    Blend: AUG-CC-PVTZ
  Basis Set: (AUG-CC-PVTZ AUX)
    Blend: AUG-CC-PVTZ-JKFIT + DEF2-UNIVERSAL-JKFIT
  @DF-RHF Final Energy:   -99.45085839248100
    Total Energy =                        -99.4508583924809955
 Dipole X            :        -44.9035884           40.4138492           -4.4897392
 Dipole Y            :          0.0000077            0.0000000            0.0000077
 Dipole Z            :          0.0000000            0.0000000            0.0000000
 Magnitude           :                                                    4.4897392
  Basis Set: (AUG-CC-PVTZ AUX)
    Blend: AUG-CC-PVTZ-RI + DEF2-QZVPP-RI
	 Reference Energy          =     -99.4508583924809955 [Eh]
	 Singles Energy            =      -0.0000000000000000 [Eh]
	 Same-Spin Energy          =      -0.0816661780282940 [Eh]
	 Opposite-Spin Energy      =      -0.2269052004411909 [Eh]
	 Correlation Energy        =      -0.3085713784694850 [Eh]
	 Total Energy              =     -99.7594297709504758 [Eh]
	 SCS Total Energy          =     -99.7503666923531824 [Eh]
                               Psi4 1.9 release
    Molecular point group: c1
  Multiplicity = 1
  Basis Set: AUG-CC-PVTZ
    Blend: AUG-CC-PVTZ
  Basis Set: (AUG-CC-PVTZ AUX)
    Blend: AUG-CC-PVTZ-JKFIT + DEF2-UNIVERSAL-JKFIT
  @DF-RHF Final Energy:  -106.98273463076075
    Total Energy =                       -106.9827346307607456
  Basis Set: (AUG-CC-PVTZ AUX)
	 Singles Energy            =      -0.0000000000000000 [Eh]
	 Same-Spin Energy          =      -0.0795902764515905 [Eh]
	 Opposite-Spin Energy      =      -0.2355641208136360 [Eh]
	 Correlation Energy        =      -0.3151543972652265 [Eh]
	 Total Energy              =    -107.2978890280259776 [Eh]
	 SCS Total Energy          =    -107.2919416678876416 [Eh]
                               Psi4 1.9 release
    Molecular point group: c1

    Geometry (in Bohr), charge = -1, multiplicity = 1:

       Center              X                  Y                   Z               Mass
    ------------   -----------------  -----------------  -----------------  -----------------
         LI           0.000000000000     0.000000000000     0.000000000000     7.016003436600
         F            0.000000000000     2.993619090275     0.000000000000    18.998403162730
         F            4.490427690549     0.000000000000     0.000000000000    18.998403162730

  Charge       = -1
  Multiplicity = 1
  Basis Set: AUG-CC-PVTZ
    Blend: AUG-CC-PVTZ
  Basis Set: (AUG-CC-PVTZ AUX)
    Blend: AUG-CC-PVTZ-JKFIT + DEF2-UNIVERSAL-JKFIT

    Orbital Energies [Eh]
    ---------------------

    Doubly Occupied:

       1A    -25.928312     2A    -25.868808     3A     -2.219286
       4A     -1.192012     5A     -1.112762     6A     -0.313047
       7A     -0.291478     8A     -0.290030     9A     -0.218227
      10A     -0.216786    11A     -0.214986

  @DF-RHF Final Energy:  -206.46697048924065

   => Energetics <=

    Nuclear Repulsion Energy =             30.0408046297942448
    One-Electron Energy =                -357.2840816992733153
    Two-Electron Energy =                 120.7763065802384119
    Total Energy =                       -206.4669704892406514
 Dipole X            :        -44.5524895           40.4138492           -4.1386402
 Dipole Y            :        -29.4902055           26.9425718           -2.5476337
 Dipole Z            :          0.0000000            0.0000000            0.0000000
 Magnitude           :                                                    4.8599157
  Basis Set: (AUG-CC-PVTZ AUX)
    Blend: AUG-CC-PVTZ-RI + DEF2-QZVPP-RI
	 Reference Energy          =    -206.4669704892406514 [Eh]
	 Singles Energy            =      -0.0000000000000000 [Eh]
	 Same-Spin Energy          =      -0.1616661590769963 [Eh]
	 Opposite-Spin Energy      =      -0.4627044652131737 [Eh]
	 Correlation Energy        =      -0.6243706242901701 [Eh]
	 Total Energy              =    -207.0913411135308309 [Eh]

	 ================> DF-SCS-MP2 Energies <==================
	-----------------------------------------------------------
	 SCS Same-Spin Scale       =       0.3333333333333333 [-]
	 SCS Opposite-Spin Scale   =       1.2000000000000000 [-]
	 SCS Same-Spin Energy      =      -0.0538887196923321 [Eh]
	 SCS Opposite-Spin Energy  =      -0.5552453582558085 [Eh]
	 SCS Correlation Energy    =      -0.6091340779481406 [Eh]
	 SCS Total Energy          =    -207.0761045671887928 [Eh]
	-----------------------------------------------------------

*** Psi4 exiting successfully. Buy a developer a beer!
