                               Psi4 1.9 release

  ==> Input File <==

--------------------------------------------------------------------------
MEMORY 60 GB

molecule dimer {
0 1
Li     0.000000     0.000000     0.000000
F      0.000000     1.584155     0.000000
--
-1 1
F      2.059401     0.000000     0.000000

units ang
no_reorient
no_com
symmetry c1
}

set {
basis        aug-cc-pVTZ
scf_type     df
}

energy("mp2", bsse_type="cp")
--------------------------------------------------------------------------

                               Psi4 1.9 release
    Molecular point group: c1
  Charge       = -1
  Multiplicity = 1
  Basis Set: AUG-CC-PVTZ
    Blend: AUG-CC-PVTZ
  Basis Set: (AUG-CC-PVTZ AUX)
    Blend: AUG-CC-PVTZ-JKFIT + DEF2-UNIVERSAL-JKFIT
  @DF-RHF Final Energy:   -99.45088335260792
    Total Energy =                        -99.4508833526079030
 Dipole X            :        -38.9170520           35.0253349           -3.8917171
 Dipole Y            :          0.0001061            0.0000000            0.0001061
 Dipole Z            :          0.0000000            0.0000000            0.0000000
 Magnitude           :                                                    3.8917171
  Basis Set: (AUG-CC-PVTZ AUX)
    Blend: AUG-CC-PVTZ-RI + DEF2-QZVPP-RI
	 Reference Energy          =     -99.4508833526079172 [Eh]
	 Singles Energy            =      -0.0000000000000000 [Eh]
	 Same-Spin Energy          =      -0.0816986300589089 [Eh]
	 Opposite-Spin Energy      =      -0.2271384495393678 [Eh]
	 Correlation Energy        =      -0.3088370795982768 [Eh]
	 Total Energy              =     -99.7597204322061941 [Eh]
	 SCS Total Energy          =     -99.7506823687414652 [Eh]
                               Psi4 1.9 release
    Molecular point group: c1
  Multiplicity = 1
  Basis Set: AUG-CC-PVTZ
    Blend: AUG-CC-PVTZ
  Basis Set: (AUG-CC-PVTZ AUX)
    Blend: AUG-CC-PVTZ-JKFIT + DEF2-UNIVERSAL-JKFIT
  @DF-RHF Final Energy:  -106.98281400765978
    Total Energy =                       -106.9828140076597833
  Basis Set: (AUG-CC-PVTZ AUX)
	 Singles Energy            =      -0.0000000000000000 [Eh]
	 Same-Spin Energy          =      -0.0796202784560205 [Eh]
	 Opposite-Spin Energy      =      -0.2360048363991525 [Eh]
	 Correlation Energy        =      -0.3156251148551731 [Eh]
	 Total Energy              =    -107.2984391225149494 [Eh]
	 SCS Total Energy          =    -107.2925599041574429 [Eh]
                               Psi4 1.9 release
    Molecular point group: c1

    Geometry (in Bohr), charge = -1, multiplicity = 1:

       Center              X                  Y                   Z               Mass
    ------------   -----------------  -----------------  -----------------  -----------------
         LI           0.000000000000     0.000000000000     0.000000000000     7.016003436600
         F            0.000000000000     2.993619090275     0.000000000000    18.998403162730
         F            3.891703872494     0.000000000000     0.000000000000    18.998403162730

  Charge       = -1
  Multiplicity = 1
  Basis Set: AUG-CC-PVTZ
    Blend: AUG-CC-PVTZ
  Basis Set: (AUG-CC-PVTZ AUX)
    Blend: AUG-CC-PVTZ-JKFIT + DEF2-UNIVERSAL-JKFIT

    Orbital Energies [Eh]
    ---------------------

    Doubly Occupied:

       1A    -25.911272     2A    -25.876507     3A     -2.187714
       4A     -1.175728     5A     -1.124266     6A     -0.298678
       7A     -0.280280     8A     -0.274535     9A     -0.231496
      10A     -0.226260    11A     -0.219254

  @DF-RHF Final Energy:  -206.47631986527313

   => Energetics <=

    Nuclear Repulsion Energy =             32.4543009794742403
    One-Electron Energy =                -362.2492619116299011
    Two-Electron Energy =                 123.3186410668825346
    Total Energy =                       -206.4763198652731262
 Dipole X            :        -38.5199303           35.0253349           -3.4945954
 Dipole Y            :        -29.4920493           26.9425718           -2.5494775
 Dipole Z            :         -0.0000000            0.0000000           -0.0000000
 Magnitude           :                                                    4.3257407
  Basis Set: (AUG-CC-PVTZ AUX)
    Blend: AUG-CC-PVTZ-RI + DEF2-QZVPP-RI
	 Reference Energy          =    -206.4763198652731262 [Eh]
	 Singles Energy            =      -0.0000000000000000 [Eh]
	 Same-Spin Energy          =      -0.1616293266309275 [Eh]
	 Opposite-Spin Energy      =      -0.4627064162773553 [Eh]
	 Correlation Energy        =      -0.6243357429082828 [Eh]
	 Total Energy              =    -207.1006556081813983 [Eh]

	 ================> DF-SCS-MP2 Energies <==================
	-----------------------------------------------------------
	 SCS Same-Spin Scale       =       0.3333333333333333 [-]
	 SCS Opposite-Spin Scale   =       1.2000000000000000 [-]
	 SCS Same-Spin Energy      =      -0.0538764422103092 [Eh]
	 SCS Opposite-Spin Energy  =      -0.5552476995328263 [Eh]
	 SCS Correlation Energy    =      -0.6091241417431354 [Eh]
	 SCS Total Energy          =    -207.0854440070162639 [Eh]
	-----------------------------------------------------------

*** Psi4 exiting successfully. Buy a developer a beer!
