                               Psi4 1.8.2 release

  ==> Input File <==

--------------------------------------------------------------------------
MEMORY 60 GB

molecule dimer {
-1 1
Gh(Li)     0.000000     0.000000     0.000000
Gh(F)      0.000000     1.584155     0.000000
F          2.376232     0.000000     0.000000

units ang
no_reorient
no_com
symmetry c1
}

set {
basis        aug-cc-pVTZ
scf_type     df
}

energy("mp2")
--------------------------------------------------------------------------

    Molecular point group: c1

    Geometry (in Angstrom), charge = -1, multiplicity = 1:

       Center              X                  Y                   Z               Mass
    ------------   -----------------  -----------------  -----------------  -----------------
      Gh(LI)          0.000000000000     0.000000000000     0.000000000000     7.016003436600
      Gh(F)           0.000000000000     1.584155000000     0.000000000000    18.998403162730
         F            2.376232000000     0.000000000000     0.000000000000    18.998403162730

  Charge       = -1
  Multiplicity = 1
  Basis Set: AUG-CC-PVTZ
    Blend: AUG-CC-PVTZ
  Basis Set: (AUG-CC-PVTZ AUX)
    Blend: AUG-CC-PVTZ-JKFIT + DEF2-UNIVERSAL-JKFIT

    Orbital Energies [Eh]
    ---------------------

    Doubly Occupied:

       1A    -25.833820     2A     -1.076067     3A     -0.181033
       4A     -0.180992     5A     -0.180991

  @DF-RHF Final Energy:   -99.45085839247847

   => Energetics <=

    Nuclear Repulsion Energy =              0.0000000000000000
    One-Electron Energy =                -143.9959106357175358
    Two-Electron Energy =                  44.5450522432390699
    Total Energy =                        -99.4508583924784659
 Dipole X            :        -44.9035884           40.4138492           -4.4897392
 Dipole Y            :          0.0000077            0.0000000            0.0000077
 Dipole Z            :          0.0000000            0.0000000            0.0000000
 Magnitude           :                                                    4.4897392
  Basis Set: (AUG-CC-PVTZ AUX)
    Blend: AUG-CC-PVTZ-RI + DEF2-QZVPP-RI
	 Reference Energy          =     -99.4508583924784659 [Eh]
	 Singles Energy            =      -0.0000000000000000 [Eh]
	 Same-Spin Energy          =      -0.0816661780283098 [Eh]
	 Opposite-Spin Energy      =      -0.2269052004412252 [Eh]
	 Correlation Energy        =      -0.3085713784695350 [Eh]
	 Total Energy              =     -99.7594297709480031 [Eh]

	 ================> DF-SCS-MP2 Energies <==================
	-----------------------------------------------------------
	 SCS Same-Spin Scale       =       0.3333333333333333 [-]
	 SCS Opposite-Spin Scale   =       1.2000000000000000 [-]
	 SCS Same-Spin Energy      =      -0.0272220593427699 [Eh]
	 SCS Opposite-Spin Energy  =      -0.2722862405294703 [Eh]
	 SCS Correlation Energy    =      -0.2995082998722402 [Eh]
	 SCS Total Energy          =     -99.7503666923507097 [Eh]
	-----------------------------------------------------------

*** Psi4 exiting successfully. Buy a developer a beer!
