                               Psi4 1.8.2 release

  ==> Input File <==

--------------------------------------------------------------------------
MEMORY 60 GB

molecule dimer {
-1 1
Li         0.000000     0.000000     0.000000
F          0.000000     1.584155     0.000000
F          3.168310     0.000000     0.000000

units ang
no_reorient
no_com
symmetry c1
}

set {
basis        aug-cc-pVTZ
scf_type     df
}

energy("mp2")
--------------------------------------------------------------------------

    Molecular point group: c1

    Geometry (in Angstrom), charge = -1, multiplicity = 1:

       Center              X                  Y                   Z               Mass
    ------------   -----------------  -----------------  -----------------  -----------------
         LI           0.000000000000     0.000000000000     0.000000000000     7.016003436600
         F            0.000000000000     1.584155000000     0.000000000000    18.998403162730
         F            3.168310000000     0.000000000000     0.000000000000    18.998403162730

  Charge       = -1
  Multiplicity = 1
  Basis Set: AUG-CC-PVTZ
    Blend: AUG-CC-PVTZ
  Basis Set: (AUG-CC-PVTZ AUX)
    Blend: AUG-CC-PVTZ-JKFIT + DEF2-UNIVERSAL-JKFIT

    Orbital Energies [Eh]
    ---------------------

    Doubly Occupied:

       1A    -25.963495     2A    -25.852433     3A     -2.273787
       4A     -1.226899     5A     -1.094495     6A     -0.347470
       7A     -0.324293     8A     -0.323571     9A     -0.199600
      10A     -0.199495    11A     -0.198735

  @DF-RHF Final Energy:  -206.44984001725931

   => Energetics <=

    Nuclear Repulsion Energy =             25.6292797853776477
    One-Electron Energy =                -348.1496959739907311
    Two-Electron Energy =                 116.0705761713537498
    Total Energy =                       -206.4498400172593051
 Dipole X            :        -59.6444819           53.8851436           -5.7593383
 Dipole Y            :        -29.5008865           26.9425718           -2.5583147
 Dipole Z            :         -0.0000000            0.0000000           -0.0000000
 Magnitude           :                                                    6.3019800
  Basis Set: (AUG-CC-PVTZ AUX)
    Blend: AUG-CC-PVTZ-RI + DEF2-QZVPP-RI
	 Reference Energy          =    -206.4498400172593051 [Eh]
	 Singles Energy            =      -0.0000000000000000 [Eh]
	 Same-Spin Energy          =      -0.1614386976499421 [Eh]
	 Opposite-Spin Energy      =      -0.4621064659017446 [Eh]
	 Correlation Energy        =      -0.6235451635516868 [Eh]
	 Total Energy              =    -207.0733851808109875 [Eh]

	 ================> DF-SCS-MP2 Energies <==================
	-----------------------------------------------------------
	 SCS Same-Spin Scale       =       0.3333333333333333 [-]
	 SCS Opposite-Spin Scale   =       1.2000000000000000 [-]
	 SCS Same-Spin Energy      =      -0.0538128992166474 [Eh]
	 SCS Opposite-Spin Energy  =      -0.5545277590820935 [Eh]
	 SCS Correlation Energy    =      -0.6083406582987408 [Eh]
	 SCS Total Energy          =    -207.0581806755580487 [Eh]
	-----------------------------------------------------------

*** Psi4 exiting successfully. Buy a developer a beer!
