                               Psi4 1.8.2 release

  ==> Input File <==

--------------------------------------------------------------------------
MEMORY 60 GB

molecule dimer {
-1 1
Gh(Li)     0.000000     0.000000     0.000000
F          0.000000     1.584155     0.000000
Gh(F)      1.584155     0.000000     0.000000

units ang
no_reorient
no_com
symmetry c1
}

set {
basis        aug-cc-pVTZ
scf_type     df
}

energy("mp2")
--------------------------------------------------------------------------

    Molecular point group: c1

    Geometry (in Angstrom), charge = -1, multiplicity = 1:

       Center              X                  Y                   Z               Mass
    ------------   -----------------  -----------------  -----------------  -----------------
      Gh(LI)          0.000000000000     0.000000000000     0.000000000000     7.016003436600
         F            0.000000000000     1.584155000000     0.000000000000    18.998403162730
      Gh(F)           1.584155000000     0.000000000000     0.000000000000    18.998403162730

  Charge       = -1
  Multiplicity = 1
  Basis Set: AUG-CC-PVTZ
    Blend: AUG-CC-PVTZ
  Basis Set: (AUG-CC-PVTZ AUX)
    Blend: AUG-CC-PVTZ-JKFIT + DEF2-UNIVERSAL-JKFIT

    Orbital Energies [Eh]
    ---------------------

    Doubly Occupied:

       1A    -25.833746     2A     -1.076022     3A     -0.181001
       4A     -0.180973     5A     -0.180964

  @DF-RHF Final Energy:   -99.45091466491341

   => Energetics <=

    Nuclear Repulsion Energy =              0.0000000000000000
    One-Electron Energy =                -143.9964147858138972
    Two-Electron Energy =                  44.5455001209004777
    Total Energy =                        -99.4509146649134266
 Dipole X            :          0.0001168            0.0000000            0.0001168
 Dipole Y            :        -29.9367793           26.9425718           -2.9942075
 Dipole Z            :         -0.0000000            0.0000000           -0.0000000
 Magnitude           :                                                    2.9942075
  Basis Set: (AUG-CC-PVTZ AUX)
    Blend: AUG-CC-PVTZ-RI + DEF2-QZVPP-RI
	 Reference Energy          =     -99.4509146649134124 [Eh]
	 Singles Energy            =      -0.0000000000000000 [Eh]
	 Same-Spin Energy          =      -0.0817772240973987 [Eh]
	 Opposite-Spin Energy      =      -0.2277366364713271 [Eh]
	 Correlation Energy        =      -0.3095138605687259 [Eh]
	 Total Energy              =     -99.7604285254821406 [Eh]

	 ================> DF-SCS-MP2 Energies <==================
	-----------------------------------------------------------
	 SCS Same-Spin Scale       =       0.3333333333333333 [-]
	 SCS Opposite-Spin Scale   =       1.2000000000000000 [-]
	 SCS Same-Spin Energy      =      -0.0272590746991329 [Eh]
	 SCS Opposite-Spin Energy  =      -0.2732839637655926 [Eh]
	 SCS Correlation Energy    =      -0.3005430384647255 [Eh]
	 SCS Total Energy          =     -99.7514577033781364 [Eh]
	-----------------------------------------------------------

*** Psi4 exiting successfully. Buy a developer a beer!
