                               Psi4 1.8.2 release

  ==> Input File <==

--------------------------------------------------------------------------
MEMORY 60 GB

molecule dimer {
1 1
Li     0.000000     0.000000     0.000000
--
-1 1
F      0.000000     1.584155     0.000000
--
-1 1
F      2.059401     0.000000     0.000000

units ang
no_reorient
no_com
symmetry c1
}

set {
basis        aug-cc-pVTZ
scf_type     df
}

energy("mp2", bsse_type="cp")
--------------------------------------------------------------------------

                               Psi4 1.8.2 release
    Molecular point group: c1
  Charge       = 1
  Multiplicity = 1
  Basis Set: AUG-CC-PVTZ
    Blend: AUG-CC-PVTZ
  Basis Set: (AUG-CC-PVTZ AUX)
    Blend: AUG-CC-PVTZ-JKFIT + DEF2-UNIVERSAL-JKFIT
  @DF-RHF Final Energy:    -7.23638355744628
    Total Energy =                         -7.2363835574462847
 Dipole X            :          0.0000239            0.0000000            0.0000239
 Dipole Y            :          0.0000042            0.0000000            0.0000042
 Dipole Z            :         -0.0000000            0.0000000           -0.0000000
 Magnitude           :                                                    0.0000243
  Basis Set: (AUG-CC-PVTZ AUX)
    Blend: AUG-CC-PVTZ-RI + DEF2-QZVPP-RI
	 Reference Energy          =      -7.2363835574462847 [Eh]
	 Singles Energy            =      -0.0000000000000000 [Eh]
	 Same-Spin Energy          =       0.0000000000000000 [Eh]
	 Opposite-Spin Energy      =      -0.0134265877437724 [Eh]
	 Correlation Energy        =      -0.0134265877437724 [Eh]
	 Total Energy              =      -7.2498101451900574 [Eh]
	 SCS Total Energy          =      -7.2524954627388114 [Eh]
                               Psi4 1.8.2 release
    Molecular point group: c1
  Basis Set: AUG-CC-PVTZ
    Blend: AUG-CC-PVTZ
  Basis Set: (AUG-CC-PVTZ AUX)
    Blend: AUG-CC-PVTZ-JKFIT + DEF2-UNIVERSAL-JKFIT
  @DF-RHF Final Energy:   -99.45090242592491
    Total Energy =                        -99.4509024259248946
  Basis Set: (AUG-CC-PVTZ AUX)
                               Psi4 1.8.2 release
  @DF-RHF Final Energy:  -198.70966041979239
    Total Energy =                       -198.7096604197923853
                               Psi4 1.8.2 release
  @DF-RHF Final Energy:  -106.94724113981964
    Total Energy =                       -106.9472411398196527
                               Psi4 1.8.2 release
  @DF-RHF Final Energy:  -106.98281400766763
    Total Energy =                       -106.9828140076676277
                               Psi4 1.8.2 release
  Multiplicity = 1
  @DF-RHF Final Energy:   -99.45088335260760
    Total Energy =                        -99.4508833526076046
	 Singles Energy            =      -0.0000000000000000 [Eh]
	 Same-Spin Energy          =      -0.0816986300589103 [Eh]
	 Opposite-Spin Energy      =      -0.2271384495393713 [Eh]
	 Correlation Energy        =      -0.3088370795982816 [Eh]
	 Total Energy              =     -99.7597204322058815 [Eh]
	 SCS Total Energy          =     -99.7506823687411526 [Eh]
                               Psi4 1.8.2 release
    Molecular point group: c1

    Geometry (in Bohr), charge = -1, multiplicity = 1:

       Center              X                  Y                   Z               Mass
    ------------   -----------------  -----------------  -----------------  -----------------
         LI           0.000000000000     0.000000000000     0.000000000000     7.016003436600
         F            0.000000000000     2.993619090275     0.000000000000    18.998403162730
         F            3.891703872494     0.000000000000     0.000000000000    18.998403162730

  Charge       = -1
  Multiplicity = 1
  Basis Set: AUG-CC-PVTZ
    Blend: AUG-CC-PVTZ
  Basis Set: (AUG-CC-PVTZ AUX)
    Blend: AUG-CC-PVTZ-JKFIT + DEF2-UNIVERSAL-JKFIT

    Orbital Energies [Eh]
    ---------------------

    Doubly Occupied:

       1A    -25.911272     2A    -25.876507     3A     -2.187714
       4A     -1.175728     5A     -1.124266     6A     -0.298678
       7A     -0.280280     8A     -0.274535     9A     -0.231496
      10A     -0.226260    11A     -0.219254

  @DF-RHF Final Energy:  -206.47631986528069

   => Energetics <=

    Nuclear Repulsion Energy =             32.4543009794742403
    One-Electron Energy =                -362.2492619116353580
    Two-Electron Energy =                 123.3186410668804456
    Total Energy =                       -206.4763198652806864
 Dipole X            :        -38.5199303           35.0253349           -3.4945954
 Dipole Y            :        -29.4920493           26.9425718           -2.5494775
 Dipole Z            :         -0.0000000            0.0000000           -0.0000000
 Magnitude           :                                                    4.3257407
  Basis Set: (AUG-CC-PVTZ AUX)
    Blend: AUG-CC-PVTZ-RI + DEF2-QZVPP-RI
	 Reference Energy          =    -206.4763198652806864 [Eh]
	 Singles Energy            =      -0.0000000000000000 [Eh]
	 Same-Spin Energy          =      -0.1616293266309120 [Eh]
	 Opposite-Spin Energy      =      -0.4627064162769244 [Eh]
	 Correlation Energy        =      -0.6243357429078364 [Eh]
	 Total Energy              =    -207.1006556081885321 [Eh]

	 ================> DF-SCS-MP2 Energies <==================
	-----------------------------------------------------------
	 SCS Same-Spin Scale       =       0.3333333333333333 [-]
	 SCS Opposite-Spin Scale   =       1.2000000000000000 [-]
	 SCS Same-Spin Energy      =      -0.0538764422103040 [Eh]
	 SCS Opposite-Spin Energy  =      -0.5552476995323092 [Eh]
	 SCS Correlation Energy    =      -0.6091241417426132 [Eh]
	 SCS Total Energy          =    -207.0854440070233125 [Eh]
	-----------------------------------------------------------

*** Psi4 exiting successfully. Buy a developer a beer!
