                               Psi4 1.8.2 release

  ==> Input File <==

--------------------------------------------------------------------------
MEMORY 60 GB

molecule dimer {
-1 1
Gh(Li)     0.000000     0.000000     0.000000
F          0.000000     1.584155     0.000000
Gh(F)      2.059401     0.000000     0.000000

units ang
no_reorient
no_com
symmetry c1
}

set {
basis        aug-cc-pVTZ
scf_type     df
}

energy("mp2")
--------------------------------------------------------------------------

    Molecular point group: c1

    Geometry (in Angstrom), charge = -1, multiplicity = 1:

       Center              X                  Y                   Z               Mass
    ------------   -----------------  -----------------  -----------------  -----------------
      Gh(LI)          0.000000000000     0.000000000000     0.000000000000     7.016003436600
         F            0.000000000000     1.584155000000     0.000000000000    18.998403162730
      Gh(F)           2.059401000000     0.000000000000     0.000000000000    18.998403162730

  Charge       = -1
  Multiplicity = 1
  Basis Set: AUG-CC-PVTZ
    Blend: AUG-CC-PVTZ
  Basis Set: (AUG-CC-PVTZ AUX)
    Blend: AUG-CC-PVTZ-JKFIT + DEF2-UNIVERSAL-JKFIT

    Orbital Energies [Eh]
    ---------------------

    Doubly Occupied:

       1A    -25.833759     2A     -1.076028     3A     -0.180998
       4A     -0.180978     5A     -0.180973

  @DF-RHF Final Energy:   -99.45090242592494

   => Energetics <=

    Nuclear Repulsion Energy =              0.0000000000000000
    One-Electron Energy =                -143.9963315455039492
    Two-Electron Energy =                  44.5454291195790262
    Total Energy =                        -99.4509024259249230
 Dipole X            :          0.0000953            0.0000000            0.0000953
 Dipole Y            :        -29.9364575           26.9425718           -2.9938857
 Dipole Z            :          0.0000000            0.0000000            0.0000000
 Magnitude           :                                                    2.9938857
  Basis Set: (AUG-CC-PVTZ AUX)
    Blend: AUG-CC-PVTZ-RI + DEF2-QZVPP-RI
	 Reference Energy          =     -99.4509024259249372 [Eh]
	 Singles Energy            =      -0.0000000000000000 [Eh]
	 Same-Spin Energy          =      -0.0817591615658204 [Eh]
	 Opposite-Spin Energy      =      -0.2276080458914468 [Eh]
	 Correlation Energy        =      -0.3093672074572672 [Eh]
	 Total Energy              =     -99.7602696333822081 [Eh]

	 ================> DF-SCS-MP2 Energies <==================
	-----------------------------------------------------------
	 SCS Same-Spin Scale       =       0.3333333333333333 [-]
	 SCS Opposite-Spin Scale   =       1.2000000000000000 [-]
	 SCS Same-Spin Energy      =      -0.0272530538552735 [Eh]
	 SCS Opposite-Spin Energy  =      -0.2731296550697362 [Eh]
	 SCS Correlation Energy    =      -0.3003827089250096 [Eh]
	 SCS Total Energy          =     -99.7512851348499510 [Eh]
	-----------------------------------------------------------

*** Psi4 exiting successfully. Buy a developer a beer!
