                               Psi4 1.8.2 release

  ==> Input File <==

--------------------------------------------------------------------------
MEMORY 60 GB

molecule dimer {
-1 1
Gh(Li)     0.000000     0.000000     0.000000
F          0.000000     1.584155     0.000000
Gh(F)      2.217817     0.000000     0.000000

units ang
no_reorient
no_com
symmetry c1
}

set {
basis        aug-cc-pVTZ
scf_type     df
}

energy("mp2")
--------------------------------------------------------------------------

    Molecular point group: c1

    Geometry (in Angstrom), charge = -1, multiplicity = 1:

       Center              X                  Y                   Z               Mass
    ------------   -----------------  -----------------  -----------------  -----------------
      Gh(LI)          0.000000000000     0.000000000000     0.000000000000     7.016003436600
         F            0.000000000000     1.584155000000     0.000000000000    18.998403162730
      Gh(F)           2.217817000000     0.000000000000     0.000000000000    18.998403162730

  Charge       = -1
  Multiplicity = 1
  Basis Set: AUG-CC-PVTZ
    Blend: AUG-CC-PVTZ
  Basis Set: (AUG-CC-PVTZ AUX)
    Blend: AUG-CC-PVTZ-JKFIT + DEF2-UNIVERSAL-JKFIT

    Orbital Energies [Eh]
    ---------------------

    Doubly Occupied:

       1A    -25.833764     2A     -1.076031     3A     -0.180996
       4A     -0.180981     5A     -0.180977

  @DF-RHF Final Energy:   -99.45089762403924

   => Energetics <=

    Nuclear Repulsion Energy =              0.0000000000000000
    One-Electron Energy =                -143.9962949842529838
    Two-Electron Energy =                  44.5453973602137410
    Total Energy =                        -99.4508976240392428
 Dipole X            :          0.0000262            0.0000000            0.0000262
 Dipole Y            :        -29.9363901           26.9425718           -2.9938182
 Dipole Z            :          0.0000000            0.0000000            0.0000000
 Magnitude           :                                                    2.9938182
  Basis Set: (AUG-CC-PVTZ AUX)
    Blend: AUG-CC-PVTZ-RI + DEF2-QZVPP-RI
	 Reference Energy          =     -99.4508976240392428 [Eh]
	 Singles Energy            =      -0.0000000000000000 [Eh]
	 Same-Spin Energy          =      -0.0817561290164900 [Eh]
	 Opposite-Spin Energy      =      -0.2275869135972227 [Eh]
	 Correlation Energy        =      -0.3093430426137126 [Eh]
	 Total Energy              =     -99.7602406666529617 [Eh]

	 ================> DF-SCS-MP2 Energies <==================
	-----------------------------------------------------------
	 SCS Same-Spin Scale       =       0.3333333333333333 [-]
	 SCS Opposite-Spin Scale   =       1.2000000000000000 [-]
	 SCS Same-Spin Energy      =      -0.0272520430054967 [Eh]
	 SCS Opposite-Spin Energy  =      -0.2731042963166672 [Eh]
	 SCS Correlation Energy    =      -0.3003563393221638 [Eh]
	 SCS Total Energy          =     -99.7512539633614068 [Eh]
	-----------------------------------------------------------

*** Psi4 exiting successfully. Buy a developer a beer!
