                               Psi4 1.8.2 release

  ==> Input File <==

--------------------------------------------------------------------------
MEMORY 60 GB

molecule dimer {
-1 1
Gh(Li)     0.000000     0.000000     0.000000
Gh(F)      0.000000     1.584155     0.000000
F          1.742571     0.000000     0.000000

units ang
no_reorient
no_com
symmetry c1
}

set {
basis        aug-cc-pVTZ
scf_type     df
}

energy("mp2")
--------------------------------------------------------------------------

    Molecular point group: c1

    Geometry (in Angstrom), charge = -1, multiplicity = 1:

       Center              X                  Y                   Z               Mass
    ------------   -----------------  -----------------  -----------------  -----------------
      Gh(LI)          0.000000000000     0.000000000000     0.000000000000     7.016003436600
      Gh(F)           0.000000000000     1.584155000000     0.000000000000    18.998403162730
         F            1.742571000000     0.000000000000     0.000000000000    18.998403162730

  Charge       = -1
  Multiplicity = 1
  Basis Set: AUG-CC-PVTZ
    Blend: AUG-CC-PVTZ
  Basis Set: (AUG-CC-PVTZ AUX)
    Blend: AUG-CC-PVTZ-JKFIT + DEF2-UNIVERSAL-JKFIT

    Orbital Energies [Eh]
    ---------------------

    Doubly Occupied:

       1A    -25.833763     2A     -1.076035     3A     -0.181021
       4A     -0.180975     5A     -0.180968

  @DF-RHF Final Energy:   -99.45091080174720

   => Energetics <=

    Nuclear Repulsion Energy =              0.0000000000000000
    One-Electron Energy =                -143.9962972598895590
    Two-Electron Energy =                  44.5453864581423531
    Total Energy =                        -99.4509108017471988
 Dipole X            :        -32.9303878           29.6368375           -3.2935503
 Dipole Y            :          0.0001209            0.0000000            0.0001209
 Dipole Z            :         -0.0000000            0.0000000           -0.0000000
 Magnitude           :                                                    3.2935503
  Basis Set: (AUG-CC-PVTZ AUX)
    Blend: AUG-CC-PVTZ-RI + DEF2-QZVPP-RI
	 Reference Energy          =     -99.4509108017471988 [Eh]
	 Singles Energy            =      -0.0000000000000000 [Eh]
	 Same-Spin Energy          =      -0.0817478422961235 [Eh]
	 Opposite-Spin Energy      =      -0.2275030478269584 [Eh]
	 Correlation Energy        =      -0.3092508901230819 [Eh]
	 Total Energy              =     -99.7601616918702803 [Eh]

	 ================> DF-SCS-MP2 Energies <==================
	-----------------------------------------------------------
	 SCS Same-Spin Scale       =       0.3333333333333333 [-]
	 SCS Opposite-Spin Scale   =       1.2000000000000000 [-]
	 SCS Same-Spin Energy      =      -0.0272492807653745 [Eh]
	 SCS Opposite-Spin Energy  =      -0.2730036573923501 [Eh]
	 SCS Correlation Energy    =      -0.3002529381577246 [Eh]
	 SCS Total Energy          =     -99.7511637399049249 [Eh]
	-----------------------------------------------------------

*** Psi4 exiting successfully. Buy a developer a beer!
