                               Psi4 1.8.2 release

  ==> Input File <==

--------------------------------------------------------------------------
MEMORY 60 GB

molecule dimer {
1 1
Li     0.000000     0.000000     0.000000
--
-1 1
F      0.000000     1.584155     0.000000
--
-1 1
F      1.742571     0.000000     0.000000

units ang
no_reorient
no_com
symmetry c1
}

set {
basis        aug-cc-pVTZ
scf_type     df
}

energy("mp2", bsse_type="cp")
--------------------------------------------------------------------------

                               Psi4 1.8.2 release
    Molecular point group: c1
  Charge       = 1
  Multiplicity = 1
  Basis Set: AUG-CC-PVTZ
    Blend: AUG-CC-PVTZ
  Basis Set: (AUG-CC-PVTZ AUX)
    Blend: AUG-CC-PVTZ-JKFIT + DEF2-UNIVERSAL-JKFIT
  @DF-RHF Final Energy:    -7.23638364483978
    Total Energy =                         -7.2363836448397789
 Dipole X            :          0.0000065            0.0000000            0.0000065
 Dipole Y            :          0.0000051            0.0000000            0.0000051
 Dipole Z            :         -0.0000000            0.0000000           -0.0000000
 Magnitude           :                                                    0.0000083
  Basis Set: (AUG-CC-PVTZ AUX)
    Blend: AUG-CC-PVTZ-RI + DEF2-QZVPP-RI
	 Reference Energy          =      -7.2363836448397789 [Eh]
	 Singles Energy            =      -0.0000000000000000 [Eh]
	 Same-Spin Energy          =       0.0000000000000000 [Eh]
	 Opposite-Spin Energy      =      -0.0140664733912983 [Eh]
	 Correlation Energy        =      -0.0140664733912983 [Eh]
	 Total Energy              =      -7.2504501182310772 [Eh]
	 SCS Total Energy          =      -7.2532634129093365 [Eh]
                               Psi4 1.8.2 release
    Molecular point group: c1
  Basis Set: AUG-CC-PVTZ
    Blend: AUG-CC-PVTZ
  Basis Set: (AUG-CC-PVTZ AUX)
    Blend: AUG-CC-PVTZ-JKFIT + DEF2-UNIVERSAL-JKFIT
  @DF-RHF Final Energy:   -99.45091313140178
    Total Energy =                        -99.4509131314017765
  Basis Set: (AUG-CC-PVTZ AUX)
                               Psi4 1.8.2 release
  @DF-RHF Final Energy:  -198.68968618543920
    Total Energy =                       -198.6896861854392000
                               Psi4 1.8.2 release
  @DF-RHF Final Energy:  -106.97574346331008
    Total Energy =                       -106.9757434633100672
                               Psi4 1.8.2 release
  @DF-RHF Final Energy:  -106.98293757599772
    Total Energy =                       -106.9829375759977239
                               Psi4 1.8.2 release
  Multiplicity = 1
  @DF-RHF Final Energy:   -99.45091080174717
    Total Energy =                        -99.4509108017471704
	 Singles Energy            =      -0.0000000000000000 [Eh]
	 Same-Spin Energy          =      -0.0817478422961236 [Eh]
	 Opposite-Spin Energy      =      -0.2275030478269587 [Eh]
	 Correlation Energy        =      -0.3092508901230823 [Eh]
	 Total Energy              =     -99.7601616918702518 [Eh]
	 SCS Total Energy          =     -99.7511637399048965 [Eh]
                               Psi4 1.8.2 release
    Molecular point group: c1

    Geometry (in Bohr), charge = -1, multiplicity = 1:

       Center              X                  Y                   Z               Mass
    ------------   -----------------  -----------------  -----------------  -----------------
         LI           0.000000000000     0.000000000000     0.000000000000     7.016003436600
         F            0.000000000000     2.993619090275     0.000000000000    18.998403162730
         F            3.292981944165     0.000000000000     0.000000000000    18.998403162730

  Charge       = -1
  Multiplicity = 1
  Basis Set: AUG-CC-PVTZ
    Blend: AUG-CC-PVTZ
  Basis Set: (AUG-CC-PVTZ AUX)
    Blend: AUG-CC-PVTZ-JKFIT + DEF2-UNIVERSAL-JKFIT

    Orbital Energies [Eh]
    ---------------------

    Doubly Occupied:

       1A    -25.892774     2A    -25.882183     3A     -2.150144
       4A     -1.160593     5A     -1.137751     6A     -0.294611
       7A     -0.268813     8A     -0.262372     9A     -0.249486
      10A     -0.234024    11A     -0.213768

  @DF-RHF Final Energy:  -206.48029141693331

   => Energetics <=

    Nuclear Repulsion Energy =             35.4193142343914786
    One-Electron Energy =                -368.3061739679229163
    Two-Electron Energy =                 126.4065683165981113
    Total Energy =                       -206.4802914169333121
 Dipole X            :        -32.5074631           29.6368375           -2.8706256
 Dipole Y            :        -29.5026942           26.9425718           -2.5601223
 Dipole Z            :         -0.0000000            0.0000000           -0.0000000
 Magnitude           :                                                    3.8463902
  Basis Set: (AUG-CC-PVTZ AUX)
    Blend: AUG-CC-PVTZ-RI + DEF2-QZVPP-RI
	 Reference Energy          =    -206.4802914169333121 [Eh]
	 Singles Energy            =      -0.0000000000000000 [Eh]
	 Same-Spin Energy          =      -0.1614771875757000 [Eh]
	 Opposite-Spin Energy      =      -0.4623631393953070 [Eh]
	 Correlation Energy        =      -0.6238403269710071 [Eh]
	 Total Energy              =    -207.1041317439043326 [Eh]

	 ================> DF-SCS-MP2 Energies <==================
	-----------------------------------------------------------
	 SCS Same-Spin Scale       =       0.3333333333333333 [-]
	 SCS Opposite-Spin Scale   =       1.2000000000000000 [-]
	 SCS Same-Spin Energy      =      -0.0538257291919000 [Eh]
	 SCS Opposite-Spin Energy  =      -0.5548357672743685 [Eh]
	 SCS Correlation Energy    =      -0.6086614964662684 [Eh]
	 SCS Total Energy          =    -207.0889529133995666 [Eh]
	-----------------------------------------------------------

*** Psi4 exiting successfully. Buy a developer a beer!
