                               Psi4 1.8.2 release

  ==> Input File <==

--------------------------------------------------------------------------
MEMORY 60 GB

molecule dimer {
-1 1
Li         0.000000     0.000000     0.000000
F          0.000000     1.584155     0.000000
F          1.742571     0.000000     0.000000

units ang
no_reorient
no_com
symmetry c1
}

set {
basis        aug-cc-pVTZ
scf_type     df
}

energy("mp2")
--------------------------------------------------------------------------

    Molecular point group: c1

    Geometry (in Angstrom), charge = -1, multiplicity = 1:

       Center              X                  Y                   Z               Mass
    ------------   -----------------  -----------------  -----------------  -----------------
         LI           0.000000000000     0.000000000000     0.000000000000     7.016003436600
         F            0.000000000000     1.584155000000     0.000000000000    18.998403162730
         F            1.742571000000     0.000000000000     0.000000000000    18.998403162730

  Charge       = -1
  Multiplicity = 1
  Basis Set: AUG-CC-PVTZ
    Blend: AUG-CC-PVTZ
  Basis Set: (AUG-CC-PVTZ AUX)
    Blend: AUG-CC-PVTZ-JKFIT + DEF2-UNIVERSAL-JKFIT

    Orbital Energies [Eh]
    ---------------------

    Doubly Occupied:

       1A    -25.892774     2A    -25.882183     3A     -2.150144
       4A     -1.160593     5A     -1.137751     6A     -0.294611
       7A     -0.268813     8A     -0.262372     9A     -0.249486
      10A     -0.234024    11A     -0.213768

  @DF-RHF Final Energy:  -206.48029141693328

   => Energetics <=

    Nuclear Repulsion Energy =             35.4193142343914786
    One-Electron Energy =                -368.3061739679227458
    Two-Electron Energy =                 126.4065683165979692
    Total Energy =                       -206.4802914169332837
 Dipole X            :        -32.5074631           29.6368375           -2.8706256
 Dipole Y            :        -29.5026942           26.9425718           -2.5601223
 Dipole Z            :         -0.0000000            0.0000000           -0.0000000
 Magnitude           :                                                    3.8463902
  Basis Set: (AUG-CC-PVTZ AUX)
    Blend: AUG-CC-PVTZ-RI + DEF2-QZVPP-RI
	 Reference Energy          =    -206.4802914169332837 [Eh]
	 Singles Energy            =      -0.0000000000000000 [Eh]
	 Same-Spin Energy          =      -0.1614771875757005 [Eh]
	 Opposite-Spin Energy      =      -0.4623631393953095 [Eh]
	 Correlation Energy        =      -0.6238403269710100 [Eh]
	 Total Energy              =    -207.1041317439043041 [Eh]

	 ================> DF-SCS-MP2 Energies <==================
	-----------------------------------------------------------
	 SCS Same-Spin Scale       =       0.3333333333333333 [-]
	 SCS Opposite-Spin Scale   =       1.2000000000000000 [-]
	 SCS Same-Spin Energy      =      -0.0538257291919002 [Eh]
	 SCS Opposite-Spin Energy  =      -0.5548357672743714 [Eh]
	 SCS Correlation Energy    =      -0.6086614964662717 [Eh]
	 SCS Total Energy          =    -207.0889529133995666 [Eh]
	-----------------------------------------------------------

*** Psi4 exiting successfully. Buy a developer a beer!
