                               Psi4 1.8.2 release

  ==> Input File <==

--------------------------------------------------------------------------
MEMORY 60 GB

molecule dimer {
-1 1
Li         0.000000     0.000000     0.000000
F          0.000000     1.584155     0.000000
F          1.584155     0.000000     0.000000

units ang
no_reorient
no_com
symmetry c1
}

set {
basis        aug-cc-pVTZ
scf_type     df
}

energy("mp2")
--------------------------------------------------------------------------

    Molecular point group: c1

    Geometry (in Angstrom), charge = -1, multiplicity = 1:

       Center              X                  Y                   Z               Mass
    ------------   -----------------  -----------------  -----------------  -----------------
         LI           0.000000000000     0.000000000000     0.000000000000     7.016003436600
         F            0.000000000000     1.584155000000     0.000000000000    18.998403162730
         F            1.584155000000     0.000000000000     0.000000000000    18.998403162730

  Charge       = -1
  Multiplicity = 1
  Basis Set: AUG-CC-PVTZ
    Blend: AUG-CC-PVTZ
  Basis Set: (AUG-CC-PVTZ AUX)
    Blend: AUG-CC-PVTZ-JKFIT + DEF2-UNIVERSAL-JKFIT

    Orbital Energies [Eh]
    ---------------------

    Doubly Occupied:

       1A    -25.883157     2A    -25.883143     3A     -2.130428
       4A     -1.158752     5A     -1.140570     6A     -0.299577
       7A     -0.262500     8A     -0.261586     9A     -0.259626
      10A     -0.233261    11A     -0.206346

  @DF-RHF Final Energy:  -206.47347409290361

   => Energetics <=

    Nuclear Repulsion Energy =             37.1709445726114467
    One-Electron Energy =                -371.8509460863903087
    Two-Electron Energy =                 128.2065274208752328
    Total Energy =                       -206.4734740929036150
 Dipole X            :        -29.5117402           26.9425718           -2.5691684
 Dipole Y            :        -29.5117402           26.9425718           -2.5691684
 Dipole Z            :         -0.0000000            0.0000000           -0.0000000
 Magnitude           :                                                    3.6333528
  Basis Set: (AUG-CC-PVTZ AUX)
    Blend: AUG-CC-PVTZ-RI + DEF2-QZVPP-RI
	 Reference Energy          =    -206.4734740929036150 [Eh]
	 Singles Energy            =      -0.0000000000000000 [Eh]
	 Same-Spin Energy          =      -0.1614120341995918 [Eh]
	 Opposite-Spin Energy      =      -0.4620504019708971 [Eh]
	 Correlation Energy        =      -0.6234624361704890 [Eh]
	 Total Energy              =    -207.0969365290740996 [Eh]

	 ================> DF-SCS-MP2 Energies <==================
	-----------------------------------------------------------
	 SCS Same-Spin Scale       =       0.3333333333333333 [-]
	 SCS Opposite-Spin Scale   =       1.2000000000000000 [-]
	 SCS Same-Spin Energy      =      -0.0538040113998639 [Eh]
	 SCS Opposite-Spin Energy  =      -0.5544604823650765 [Eh]
	 SCS Correlation Energy    =      -0.6082644937649404 [Eh]
	 SCS Total Energy          =    -207.0817385866685640 [Eh]
	-----------------------------------------------------------

*** Psi4 exiting successfully. Buy a developer a beer!
