                               Psi4 1.9 release

  ==> Input File <==

--------------------------------------------------------------------------
MEMORY 60 GB

molecule dimer {
0 1
Li     0.000000     0.000000     0.000000
F      0.000000     1.584155     0.000000
--
-1 1
F      2.217817     0.000000     0.000000

units ang
no_reorient
no_com
symmetry c1
}

set {
basis        aug-cc-pVTZ
scf_type     df
}

energy("mp2", bsse_type="cp")
--------------------------------------------------------------------------

                               Psi4 1.9 release
    Molecular point group: c1
  Charge       = -1
  Multiplicity = 1
  Basis Set: AUG-CC-PVTZ
    Blend: AUG-CC-PVTZ
  Basis Set: (AUG-CC-PVTZ AUX)
    Blend: AUG-CC-PVTZ-JKFIT + DEF2-UNIVERSAL-JKFIT
  @DF-RHF Final Energy:   -99.45086878186429
    Total Energy =                        -99.4508687818642727
 Dipole X            :        -41.9102579           37.7196005           -4.1906574
 Dipole Y            :          0.0000735            0.0000000            0.0000735
 Dipole Z            :         -0.0000000            0.0000000           -0.0000000
 Magnitude           :                                                    4.1906574
  Basis Set: (AUG-CC-PVTZ AUX)
    Blend: AUG-CC-PVTZ-RI + DEF2-QZVPP-RI
	 Reference Energy          =     -99.4508687818642869 [Eh]
	 Singles Energy            =      -0.0000000000000000 [Eh]
	 Same-Spin Energy          =      -0.0816805415528044 [Eh]
	 Opposite-Spin Energy      =      -0.2270079009613488 [Eh]
	 Correlation Energy        =      -0.3086884425141532 [Eh]
	 Total Energy              =     -99.7595572243784403 [Eh]
	 SCS Total Energy          =     -99.7505051102021696 [Eh]
                               Psi4 1.9 release
    Molecular point group: c1
  Multiplicity = 1
  Basis Set: AUG-CC-PVTZ
    Blend: AUG-CC-PVTZ
  Basis Set: (AUG-CC-PVTZ AUX)
    Blend: AUG-CC-PVTZ-JKFIT + DEF2-UNIVERSAL-JKFIT
  @DF-RHF Final Energy:  -106.98276678891746
    Total Energy =                       -106.9827667889174734
  Basis Set: (AUG-CC-PVTZ AUX)
	 Singles Energy            =      -0.0000000000000000 [Eh]
	 Same-Spin Energy          =      -0.0796041032019541 [Eh]
	 Opposite-Spin Energy      =      -0.2357536708407626 [Eh]
	 Correlation Energy        =      -0.3153577740427167 [Eh]
	 Total Energy              =    -107.2981245629601688 [Eh]
	 SCS Total Energy          =    -107.2922058949936854 [Eh]
                               Psi4 1.9 release
    Molecular point group: c1

    Geometry (in Bohr), charge = -1, multiplicity = 1:

       Center              X                  Y                   Z               Mass
    ------------   -----------------  -----------------  -----------------  -----------------
         LI           0.000000000000     0.000000000000     0.000000000000     7.016003436600
         F            0.000000000000     2.993619090275     0.000000000000    18.998403162730
         F            4.191066726385     0.000000000000     0.000000000000    18.998403162730

  Charge       = -1
  Multiplicity = 1
  Basis Set: AUG-CC-PVTZ
    Blend: AUG-CC-PVTZ
  Basis Set: (AUG-CC-PVTZ AUX)
    Blend: AUG-CC-PVTZ-JKFIT + DEF2-UNIVERSAL-JKFIT

    Orbital Energies [Eh]
    ---------------------

    Doubly Occupied:

       1A    -25.919994     2A    -25.872733     3A     -2.204307
       4A     -1.183957     5A     -1.118160     6A     -0.305519
       7A     -0.285485     8A     -0.282269     9A     -0.224336
      10A     -0.221424    11A     -0.217841

  @DF-RHF Final Energy:  -206.47169659698130

   => Energetics <=

    Nuclear Repulsion Energy =             31.1883393182114368
    One-Electron Energy =                -359.6480241187455249
    Two-Electron Energy =                 121.9879882035527885
    Total Energy =                       -206.4716965969813032
 Dipole X            :        -41.5345487           37.7196005           -3.8149482
 Dipole Y            :        -29.4902338           26.9425718           -2.5476620
 Dipole Z            :         -0.0000000            0.0000000           -0.0000000
 Magnitude           :                                                    4.5874188
  Basis Set: (AUG-CC-PVTZ AUX)
    Blend: AUG-CC-PVTZ-RI + DEF2-QZVPP-RI
	 Reference Energy          =    -206.4716965969813032 [Eh]
	 Singles Energy            =      -0.0000000000000000 [Eh]
	 Same-Spin Energy          =      -0.1616639907260437 [Eh]
	 Opposite-Spin Energy      =      -0.4627414691462965 [Eh]
	 Correlation Energy        =      -0.6244054598723402 [Eh]
	 Total Energy              =    -207.0961020568536526 [Eh]

	 ================> DF-SCS-MP2 Energies <==================
	-----------------------------------------------------------
	 SCS Same-Spin Scale       =       0.3333333333333333 [-]
	 SCS Opposite-Spin Scale   =       1.2000000000000000 [-]
	 SCS Same-Spin Energy      =      -0.0538879969086812 [Eh]
	 SCS Opposite-Spin Energy  =      -0.5552897629755558 [Eh]
	 SCS Correlation Energy    =      -0.6091777598842369 [Eh]
	 SCS Total Energy          =    -207.0808743568655359 [Eh]
	-----------------------------------------------------------

*** Psi4 exiting successfully. Buy a developer a beer!
