                               Psi4 1.8.2 release

  ==> Input File <==

--------------------------------------------------------------------------
MEMORY 60 GB

molecule dimer {
-1 1
Li         0.000000     0.000000     0.000000
F          0.000000     1.584155     0.000000
F          2.059401     0.000000     0.000000

units ang
no_reorient
no_com
symmetry c1
}

set {
basis        aug-cc-pVTZ
scf_type     df
}

energy("mp2")
--------------------------------------------------------------------------

    Molecular point group: c1

    Geometry (in Angstrom), charge = -1, multiplicity = 1:

       Center              X                  Y                   Z               Mass
    ------------   -----------------  -----------------  -----------------  -----------------
         LI           0.000000000000     0.000000000000     0.000000000000     7.016003436600
         F            0.000000000000     1.584155000000     0.000000000000    18.998403162730
         F            2.059401000000     0.000000000000     0.000000000000    18.998403162730

  Charge       = -1
  Multiplicity = 1
  Basis Set: AUG-CC-PVTZ
    Blend: AUG-CC-PVTZ
  Basis Set: (AUG-CC-PVTZ AUX)
    Blend: AUG-CC-PVTZ-JKFIT + DEF2-UNIVERSAL-JKFIT

    Orbital Energies [Eh]
    ---------------------

    Doubly Occupied:

       1A    -25.911272     2A    -25.876507     3A     -2.187714
       4A     -1.175728     5A     -1.124266     6A     -0.298678
       7A     -0.280280     8A     -0.274535     9A     -0.231496
      10A     -0.226260    11A     -0.219254

  @DF-RHF Final Energy:  -206.47631986528066

   => Energetics <=

    Nuclear Repulsion Energy =             32.4543009794742403
    One-Electron Energy =                -362.2492619116354717
    Two-Electron Energy =                 123.3186410668805735
    Total Energy =                       -206.4763198652806864
 Dipole X            :        -38.5199303           35.0253349           -3.4945954
 Dipole Y            :        -29.4920493           26.9425718           -2.5494775
 Dipole Z            :          0.0000000            0.0000000            0.0000000
 Magnitude           :                                                    4.3257407
  Basis Set: (AUG-CC-PVTZ AUX)
    Blend: AUG-CC-PVTZ-RI + DEF2-QZVPP-RI
	 Reference Energy          =    -206.4763198652806580 [Eh]
	 Singles Energy            =      -0.0000000000000000 [Eh]
	 Same-Spin Energy          =      -0.1616293266309115 [Eh]
	 Opposite-Spin Energy      =      -0.4627064162769213 [Eh]
	 Correlation Energy        =      -0.6243357429078329 [Eh]
	 Total Energy              =    -207.1006556081885037 [Eh]

	 ================> DF-SCS-MP2 Energies <==================
	-----------------------------------------------------------
	 SCS Same-Spin Scale       =       0.3333333333333333 [-]
	 SCS Opposite-Spin Scale   =       1.2000000000000000 [-]
	 SCS Same-Spin Energy      =      -0.0538764422103038 [Eh]
	 SCS Opposite-Spin Energy  =      -0.5552476995323056 [Eh]
	 SCS Correlation Energy    =      -0.6091241417426094 [Eh]
	 SCS Total Energy          =    -207.0854440070232556 [Eh]
	-----------------------------------------------------------

*** Psi4 exiting successfully. Buy a developer a beer!
