                               Psi4 1.8.2 release

  ==> Input File <==

--------------------------------------------------------------------------
MEMORY 60 GB

molecule dimer {
-1 1
Gh(Li)     0.000000     0.000000     0.000000
F          0.000000     1.584155     0.000000
Gh(F)      1.900986     0.000000     0.000000

units ang
no_reorient
no_com
symmetry c1
}

set {
basis        aug-cc-pVTZ
scf_type     df
}

energy("mp2")
--------------------------------------------------------------------------

    Molecular point group: c1

    Geometry (in Angstrom), charge = -1, multiplicity = 1:

       Center              X                  Y                   Z               Mass
    ------------   -----------------  -----------------  -----------------  -----------------
      Gh(LI)          0.000000000000     0.000000000000     0.000000000000     7.016003436600
         F            0.000000000000     1.584155000000     0.000000000000    18.998403162730
      Gh(F)           1.900986000000     0.000000000000     0.000000000000    18.998403162730

  Charge       = -1
  Multiplicity = 1
  Basis Set: AUG-CC-PVTZ
    Blend: AUG-CC-PVTZ
  Basis Set: (AUG-CC-PVTZ AUX)
    Blend: AUG-CC-PVTZ-JKFIT + DEF2-UNIVERSAL-JKFIT

    Orbital Energies [Eh]
    ---------------------

    Doubly Occupied:

       1A    -25.833753     2A     -1.076025     3A     -0.181000
       4A     -0.180975     5A     -0.180968

  @DF-RHF Final Energy:   -99.45090868912951

   => Energetics <=

    Nuclear Repulsion Energy =              0.0000000000000000
    One-Electron Energy =                -143.9963741271833442
    Two-Electron Energy =                  44.5454654380538386
    Total Energy =                        -99.4509086891295055
 Dipole X            :          0.0001325            0.0000000            0.0001325
 Dipole Y            :        -29.9365764           26.9425718           -2.9940046
 Dipole Z            :          0.0000000            0.0000000            0.0000000
 Magnitude           :                                                    2.9940046
  Basis Set: (AUG-CC-PVTZ AUX)
    Blend: AUG-CC-PVTZ-RI + DEF2-QZVPP-RI
	 Reference Energy          =     -99.4509086891295055 [Eh]
	 Singles Energy            =      -0.0000000000000000 [Eh]
	 Same-Spin Energy          =      -0.0817635792462296 [Eh]
	 Opposite-Spin Energy      =      -0.2276342362523200 [Eh]
	 Correlation Energy        =      -0.3093978154985497 [Eh]
	 Total Energy              =     -99.7603065046280619 [Eh]

	 ================> DF-SCS-MP2 Energies <==================
	-----------------------------------------------------------
	 SCS Same-Spin Scale       =       0.3333333333333333 [-]
	 SCS Opposite-Spin Scale   =       1.2000000000000000 [-]
	 SCS Same-Spin Energy      =      -0.0272545264154099 [Eh]
	 SCS Opposite-Spin Energy  =      -0.2731610835027841 [Eh]
	 SCS Correlation Energy    =      -0.3004156099181939 [Eh]
	 SCS Total Energy          =     -99.7513242990476954 [Eh]
	-----------------------------------------------------------

*** Psi4 exiting successfully. Buy a developer a beer!
