                               Psi4 1.8.2 release

  ==> Input File <==

--------------------------------------------------------------------------
MEMORY 60 GB

molecule dimer {
-1 1
Li         0.000000     0.000000     0.000000
F          0.000000     1.584155     0.000000
F          2.376232     0.000000     0.000000

units ang
no_reorient
no_com
symmetry c1
}

set {
basis        aug-cc-pVTZ
scf_type     df
}

energy("mp2")
--------------------------------------------------------------------------

    Molecular point group: c1

    Geometry (in Angstrom), charge = -1, multiplicity = 1:

       Center              X                  Y                   Z               Mass
    ------------   -----------------  -----------------  -----------------  -----------------
         LI           0.000000000000     0.000000000000     0.000000000000     7.016003436600
         F            0.000000000000     1.584155000000     0.000000000000    18.998403162730
         F            2.376232000000     0.000000000000     0.000000000000    18.998403162730

  Charge       = -1
  Multiplicity = 1
  Basis Set: AUG-CC-PVTZ
    Blend: AUG-CC-PVTZ
  Basis Set: (AUG-CC-PVTZ AUX)
    Blend: AUG-CC-PVTZ-JKFIT + DEF2-UNIVERSAL-JKFIT

    Orbital Energies [Eh]
    ---------------------

    Doubly Occupied:

       1A    -25.928312     2A    -25.868808     3A     -2.219286
       4A     -1.192012     5A     -1.112762     6A     -0.313047
       7A     -0.291478     8A     -0.290030     9A     -0.218227
      10A     -0.216786    11A     -0.214986

  @DF-RHF Final Energy:  -206.46697048925628

   => Energetics <=

    Nuclear Repulsion Energy =             30.0408046297942448
    One-Electron Energy =                -357.2840816992770669
    Two-Electron Energy =                 120.7763065802265459
    Total Energy =                       -206.4669704892562550
 Dipole X            :        -44.5524895           40.4138492           -4.1386402
 Dipole Y            :        -29.4902055           26.9425718           -2.5476337
 Dipole Z            :          0.0000000            0.0000000            0.0000000
 Magnitude           :                                                    4.8599157
  Basis Set: (AUG-CC-PVTZ AUX)
    Blend: AUG-CC-PVTZ-RI + DEF2-QZVPP-RI
	 Reference Energy          =    -206.4669704892562834 [Eh]
	 Singles Energy            =      -0.0000000000000000 [Eh]
	 Same-Spin Energy          =      -0.1616661590769919 [Eh]
	 Opposite-Spin Energy      =      -0.4627044652124408 [Eh]
	 Correlation Energy        =      -0.6243706242894327 [Eh]
	 Total Energy              =    -207.0913411135457238 [Eh]

	 ================> DF-SCS-MP2 Energies <==================
	-----------------------------------------------------------
	 SCS Same-Spin Scale       =       0.3333333333333333 [-]
	 SCS Opposite-Spin Scale   =       1.2000000000000000 [-]
	 SCS Same-Spin Energy      =      -0.0538887196923306 [Eh]
	 SCS Opposite-Spin Energy  =      -0.5552453582549289 [Eh]
	 SCS Correlation Energy    =      -0.6091340779472596 [Eh]
	 SCS Total Energy          =    -207.0761045672035436 [Eh]
	-----------------------------------------------------------

*** Psi4 exiting successfully. Buy a developer a beer!
