                               Psi4 1.8.2 release

  ==> Input File <==

--------------------------------------------------------------------------
MEMORY 60 GB

molecule dimer {
-1 1
Cl     0.000000     0.000000     0.000000
--
1 1
Li     0.000000     2.029797     0.000000
--
1 1
Li     2.638736     0.000000     0.000000

units ang
no_reorient
no_com
symmetry c1
}

set {
basis        aug-cc-pVTZ
scf_type     df
}

energy("mp2", bsse_type="cp")
--------------------------------------------------------------------------

                               Psi4 1.8.2 release
    Molecular point group: c1
  Charge       = -1
  Multiplicity = 1
  Basis Set: AUG-CC-PVTZ
    Blend: AUG-CC-PVTZ
  Basis Set: (AUG-CC-PVTZ AUX)
    Blend: AUG-CC-PVTZ-JKFIT + DEF2-UNIVERSAL-JKFIT
  @DF-RHF Final Energy:  -459.57353288163597
    Total Energy =                       -459.5735328816359697
 Dipole X            :          0.0003267            0.0000000            0.0003267
 Dipole Y            :          0.0005864            0.0000000            0.0005864
 Dipole Z            :          0.0000000            0.0000000            0.0000000
 Magnitude           :                                                    0.0006713
  Basis Set: (AUG-CC-PVTZ AUX)
    Blend: AUG-CC-PVTZ-RI + DEF2-QZVPP-RI
	 Reference Energy          =    -459.5735328816359697 [Eh]
	 Singles Energy            =      -0.0000000000000000 [Eh]
	 Same-Spin Energy          =      -0.0629664412169767 [Eh]
	 Opposite-Spin Energy      =      -0.1811927146410858 [Eh]
	 Correlation Energy        =      -0.2441591558580625 [Eh]
	 Total Energy              =    -459.8176920374940551 [Eh]
	 SCS Total Energy          =    -459.8119529529442389 [Eh]
                               Psi4 1.8.2 release
    Molecular point group: c1
  Basis Set: AUG-CC-PVTZ
    Blend: AUG-CC-PVTZ
  Basis Set: (AUG-CC-PVTZ AUX)
    Blend: AUG-CC-PVTZ-JKFIT + DEF2-UNIVERSAL-JKFIT
  @DF-RHF Final Energy:    -7.23638337063698
    Total Energy =                         -7.2363833706369833
  Basis Set: (AUG-CC-PVTZ AUX)
                               Psi4 1.8.2 release
  @DF-RHF Final Energy:   -14.31390772126483
    Total Energy =                        -14.3139077212648349
                               Psi4 1.8.2 release
  @DF-RHF Final Energy:  -467.02312884284743
    Total Energy =                       -467.0231288428474272
                               Psi4 1.8.2 release
  @DF-RHF Final Energy:  -467.05210493893827
    Total Energy =                       -467.0521049389382711
                               Psi4 1.8.2 release
  Multiplicity = 1
  @DF-RHF Final Energy:    -7.23638323129838
    Total Energy =                         -7.2363832312983813
	 Singles Energy            =      -0.0000000000000000 [Eh]
	 Same-Spin Energy          =       0.0000000000000000 [Eh]
	 Opposite-Spin Energy      =      -0.0118307053224388 [Eh]
	 Correlation Energy        =      -0.0118307053224388 [Eh]
	 Total Energy              =      -7.2482139366208198 [Eh]
	 SCS Total Energy          =      -7.2505800776853082 [Eh]
                               Psi4 1.8.2 release
    Molecular point group: c1

    Geometry (in Bohr), charge = 1, multiplicity = 1:

       Center              X                  Y                   Z               Mass
    ------------   -----------------  -----------------  -----------------  -----------------
         CL           0.000000000000     0.000000000000     0.000000000000    34.968852682000
         LI           0.000000000000     3.835760420276     0.000000000000     7.016003436600
         LI           4.986488357386     0.000000000000     0.000000000000     7.016003436600

  Charge       = 1
  Multiplicity = 1
  Basis Set: AUG-CC-PVTZ
    Blend: AUG-CC-PVTZ
  Basis Set: (AUG-CC-PVTZ AUX)
    Blend: AUG-CC-PVTZ-JKFIT + DEF2-UNIVERSAL-JKFIT

    Orbital Energies [Eh]
    ---------------------

    Doubly Occupied:

       1A   -104.932033     2A    -10.657221     3A     -8.123301
       4A     -8.123181     5A     -8.122947     6A     -2.713957
       7A     -2.647428     8A     -1.173717     9A     -0.603736
      10A     -0.590871    11A     -0.576229

  @DF-RHF Final Energy:  -474.33938724750845

   => Energetics <=

    Nuclear Repulsion Energy =             24.9541569879657565
    One-Electron Energy =                -702.0578447390322481
    Two-Electron Energy =                 202.7643005035580188
    Total Energy =                       -474.3393872475083981
 Dipole X            :        -10.8027068           14.9594651            4.1567583
 Dipole Y            :         -8.5764439           11.5072813            2.9308373
 Dipole Z            :          0.0000000            0.0000000            0.0000000
 Magnitude           :                                                    5.0861033
  Basis Set: (AUG-CC-PVTZ AUX)
    Blend: AUG-CC-PVTZ-RI + DEF2-QZVPP-RI
	 Reference Energy          =    -474.3393872475084549 [Eh]
	 Singles Energy            =      -0.0000000000000000 [Eh]
	 Same-Spin Energy          =      -0.0630291567389231 [Eh]
	 Opposite-Spin Energy      =      -0.2057291983923935 [Eh]
	 Correlation Energy        =      -0.2687583551313165 [Eh]
	 Total Energy              =    -474.6081456026397518 [Eh]

	 ================> DF-SCS-MP2 Energies <==================
	-----------------------------------------------------------
	 SCS Same-Spin Scale       =       0.3333333333333333 [-]
	 SCS Opposite-Spin Scale   =       1.2000000000000000 [-]
	 SCS Same-Spin Energy      =      -0.0210097189129744 [Eh]
	 SCS Opposite-Spin Energy  =      -0.2468750380708721 [Eh]
	 SCS Correlation Energy    =      -0.2678847569838465 [Eh]
	 SCS Total Energy          =    -474.6072720044923017 [Eh]
	-----------------------------------------------------------

*** Psi4 exiting successfully. Buy a developer a beer!
