                               Psi4 1.8.2 release

  ==> Input File <==

--------------------------------------------------------------------------
MEMORY 60 GB

molecule dimer {
-1 1
Cl     0.000000     0.000000     0.000000
--
1 1
Li     0.000000     2.029797     0.000000
--
1 1
Li     3.044695     0.000000     0.000000

units ang
no_reorient
no_com
symmetry c1
}

set {
basis        aug-cc-pVTZ
scf_type     df
}

energy("mp2", bsse_type="cp")
--------------------------------------------------------------------------

                               Psi4 1.8.2 release
    Molecular point group: c1
  Charge       = -1
  Multiplicity = 1
  Basis Set: AUG-CC-PVTZ
    Blend: AUG-CC-PVTZ
  Basis Set: (AUG-CC-PVTZ AUX)
    Blend: AUG-CC-PVTZ-JKFIT + DEF2-UNIVERSAL-JKFIT
  @DF-RHF Final Energy:  -459.57352902292456
    Total Energy =                       -459.5735290229245038
 Dipole X            :          0.0002814            0.0000000            0.0002814
 Dipole Y            :          0.0006027            0.0000000            0.0006027
 Dipole Z            :         -0.0000000            0.0000000           -0.0000000
 Magnitude           :                                                    0.0006652
  Basis Set: (AUG-CC-PVTZ AUX)
    Blend: AUG-CC-PVTZ-RI + DEF2-QZVPP-RI
	 Reference Energy          =    -459.5735290229245606 [Eh]
	 Singles Energy            =      -0.0000000000000000 [Eh]
	 Same-Spin Energy          =      -0.0629113354860037 [Eh]
	 Opposite-Spin Energy      =      -0.1809620834161731 [Eh]
	 Correlation Energy        =      -0.2438734189021769 [Eh]
	 Total Energy              =    -459.8174024418267436 [Eh]
	 SCS Total Energy          =    -459.8116539681859649 [Eh]
                               Psi4 1.8.2 release
    Molecular point group: c1
  Basis Set: AUG-CC-PVTZ
    Blend: AUG-CC-PVTZ
  Basis Set: (AUG-CC-PVTZ AUX)
    Blend: AUG-CC-PVTZ-JKFIT + DEF2-UNIVERSAL-JKFIT
  @DF-RHF Final Energy:    -7.23638333767461
    Total Energy =                         -7.2363833376746101
  Basis Set: (AUG-CC-PVTZ AUX)
                               Psi4 1.8.2 release
  @DF-RHF Final Energy:   -14.32821633871310
    Total Energy =                        -14.3282163387131050
                               Psi4 1.8.2 release
  @DF-RHF Final Energy:  -466.99658352138385
    Total Energy =                       -466.9965835213838545
                               Psi4 1.8.2 release
  @DF-RHF Final Energy:  -467.05208759439722
    Total Energy =                       -467.0520875943972214
                               Psi4 1.8.2 release
  Multiplicity = 1
  @DF-RHF Final Energy:    -7.23638314127190
    Total Energy =                         -7.2363831412719044
	 Singles Energy            =      -0.0000000000000000 [Eh]
	 Same-Spin Energy          =       0.0000000000000000 [Eh]
	 Opposite-Spin Energy      =      -0.0115341281666076 [Eh]
	 Correlation Energy        =      -0.0115341281666076 [Eh]
	 Total Energy              =      -7.2479172694385117 [Eh]
	 SCS Total Energy          =      -7.2502240950718333 [Eh]
                               Psi4 1.8.2 release
    Molecular point group: c1

    Geometry (in Bohr), charge = 1, multiplicity = 1:

       Center              X                  Y                   Z               Mass
    ------------   -----------------  -----------------  -----------------  -----------------
         CL           0.000000000000     0.000000000000     0.000000000000    34.968852682000
         LI           0.000000000000     3.835760420276     0.000000000000     7.016003436600
         LI           5.753639685551     0.000000000000     0.000000000000     7.016003436600

  Charge       = 1
  Multiplicity = 1
  Basis Set: AUG-CC-PVTZ
    Blend: AUG-CC-PVTZ
  Basis Set: (AUG-CC-PVTZ AUX)
    Blend: AUG-CC-PVTZ-JKFIT + DEF2-UNIVERSAL-JKFIT

    Orbital Energies [Eh]
    ---------------------

    Doubly Occupied:

       1A   -104.910628     2A    -10.635694     3A     -8.101760
       4A     -8.101647     5A     -8.101419     6A     -2.736899
       7A     -2.632526     8A     -1.150501     9A     -0.582233
      10A     -0.563174    11A     -0.554747

  @DF-RHF Final Energy:  -474.32640422220084

   => Energetics <=

    Nuclear Repulsion Energy =             23.4613995810026132
    One-Electron Energy =                -699.4331512274499119
    Two-Electron Energy =                 201.6453474242464381
    Total Energy =                       -474.3264042222008356
 Dipole X            :        -12.2419810           17.2609191            5.0189380
 Dipole Y            :         -8.5923631           11.5072813            2.9149182
 Dipole Z            :         -0.0000000            0.0000000           -0.0000000
 Magnitude           :                                                    5.8040061
  Basis Set: (AUG-CC-PVTZ AUX)
    Blend: AUG-CC-PVTZ-RI + DEF2-QZVPP-RI
	 Reference Energy          =    -474.3264042222008356 [Eh]
	 Singles Energy            =      -0.0000000000000000 [Eh]
	 Same-Spin Energy          =      -0.0630162065671346 [Eh]
	 Opposite-Spin Energy      =      -0.2053316081161842 [Eh]
	 Correlation Energy        =      -0.2683478146833188 [Eh]
	 Total Energy              =    -474.5947520368841310 [Eh]

	 ================> DF-SCS-MP2 Energies <==================
	-----------------------------------------------------------
	 SCS Same-Spin Scale       =       0.3333333333333333 [-]
	 SCS Opposite-Spin Scale   =       1.2000000000000000 [-]
	 SCS Same-Spin Energy      =      -0.0210054021890449 [Eh]
	 SCS Opposite-Spin Energy  =      -0.2463979297394211 [Eh]
	 SCS Correlation Energy    =      -0.2674033319284659 [Eh]
	 SCS Total Energy          =    -474.5938075541292847 [Eh]
	-----------------------------------------------------------

*** Psi4 exiting successfully. Buy a developer a beer!
