                               Psi4 1.8.2 release

  ==> Input File <==

--------------------------------------------------------------------------
MEMORY 60 GB

molecule dimer {
1 1
Cl         0.000000     0.000000     0.000000
Li         0.000000     2.029797     0.000000
Li         2.638736     0.000000     0.000000

units ang
no_reorient
no_com
symmetry c1
}

set {
basis        aug-cc-pVTZ
scf_type     df
}

energy("mp2")
--------------------------------------------------------------------------

    Molecular point group: c1

    Geometry (in Angstrom), charge = 1, multiplicity = 1:

       Center              X                  Y                   Z               Mass
    ------------   -----------------  -----------------  -----------------  -----------------
         CL           0.000000000000     0.000000000000     0.000000000000    34.968852682000
         LI           0.000000000000     2.029797000000     0.000000000000     7.016003436600
         LI           2.638736000000     0.000000000000     0.000000000000     7.016003436600

  Charge       = 1
  Multiplicity = 1
  Basis Set: AUG-CC-PVTZ
    Blend: AUG-CC-PVTZ
  Basis Set: (AUG-CC-PVTZ AUX)
    Blend: AUG-CC-PVTZ-JKFIT + DEF2-UNIVERSAL-JKFIT

    Orbital Energies [Eh]
    ---------------------

    Doubly Occupied:

       1A   -104.932033     2A    -10.657221     3A     -8.123301
       4A     -8.123181     5A     -8.122947     6A     -2.713957
       7A     -2.647428     8A     -1.173717     9A     -0.603736
      10A     -0.590871    11A     -0.576229

  @DF-RHF Final Energy:  -474.33938724750880

   => Energetics <=

    Nuclear Repulsion Energy =             24.9541569879657565
    One-Electron Energy =                -702.0578447390331576
    Two-Electron Energy =                 202.7643005035585873
    Total Energy =                       -474.3393872475087392
 Dipole X            :        -10.8027068           14.9594651            4.1567583
 Dipole Y            :         -8.5764439           11.5072813            2.9308373
 Dipole Z            :          0.0000000            0.0000000            0.0000000
 Magnitude           :                                                    5.0861033
  Basis Set: (AUG-CC-PVTZ AUX)
    Blend: AUG-CC-PVTZ-RI + DEF2-QZVPP-RI
	 Reference Energy          =    -474.3393872475087960 [Eh]
	 Singles Energy            =      -0.0000000000000000 [Eh]
	 Same-Spin Energy          =      -0.0630291567389228 [Eh]
	 Opposite-Spin Energy      =      -0.2057291983923901 [Eh]
	 Correlation Energy        =      -0.2687583551313129 [Eh]
	 Total Energy              =    -474.6081456026400929 [Eh]

	 ================> DF-SCS-MP2 Energies <==================
	-----------------------------------------------------------
	 SCS Same-Spin Scale       =       0.3333333333333333 [-]
	 SCS Opposite-Spin Scale   =       1.2000000000000000 [-]
	 SCS Same-Spin Energy      =      -0.0210097189129743 [Eh]
	 SCS Opposite-Spin Energy  =      -0.2468750380708681 [Eh]
	 SCS Correlation Energy    =      -0.2678847569838423 [Eh]
	 SCS Total Energy          =    -474.6072720044926427 [Eh]
	-----------------------------------------------------------

*** Psi4 exiting successfully. Buy a developer a beer!
