                               Psi4 1.8.2 release

  ==> Input File <==

--------------------------------------------------------------------------
MEMORY 60 GB

molecule dimer {
1 1
Cl         0.000000     0.000000     0.000000
Li         0.000000     2.029797     0.000000
Li         2.841716     0.000000     0.000000

units ang
no_reorient
no_com
symmetry c1
}

set {
basis        aug-cc-pVTZ
scf_type     df
}

energy("mp2")
--------------------------------------------------------------------------

    Molecular point group: c1

    Geometry (in Angstrom), charge = 1, multiplicity = 1:

       Center              X                  Y                   Z               Mass
    ------------   -----------------  -----------------  -----------------  -----------------
         CL           0.000000000000     0.000000000000     0.000000000000    34.968852682000
         LI           0.000000000000     2.029797000000     0.000000000000     7.016003436600
         LI           2.841716000000     0.000000000000     0.000000000000     7.016003436600

  Charge       = 1
  Multiplicity = 1
  Basis Set: AUG-CC-PVTZ
    Blend: AUG-CC-PVTZ
  Basis Set: (AUG-CC-PVTZ AUX)
    Blend: AUG-CC-PVTZ-JKFIT + DEF2-UNIVERSAL-JKFIT

    Orbital Energies [Eh]
    ---------------------

    Doubly Occupied:

       1A   -104.921327     2A    -10.646399     3A     -8.112469
       4A     -8.112354     5A     -8.112120     6A     -2.726199
       7A     -2.639830     8A     -1.161706     9A     -0.592698
      10A     -0.576367    11A     -0.565215

  @DF-RHF Final Energy:  -474.33273077843694

   => Energetics <=

    Nuclear Repulsion Energy =             24.1568039220102726
    One-Electron Energy =                -700.6457013489102792
    Two-Electron Energy =                 202.1561666484631132
    Total Energy =                       -474.3327307784369395
 Dipole X            :        -11.5267760           16.1101949            4.5834189
 Dipole Y            :         -8.5851235           11.5072813            2.9221577
 Dipole Z            :          0.0000000            0.0000000            0.0000000
 Magnitude           :                                                    5.4356908
  Basis Set: (AUG-CC-PVTZ AUX)
    Blend: AUG-CC-PVTZ-RI + DEF2-QZVPP-RI
	 Reference Energy          =    -474.3327307784369395 [Eh]
	 Singles Energy            =      -0.0000000000000000 [Eh]
	 Same-Spin Energy          =      -0.0630238044926837 [Eh]
	 Opposite-Spin Energy      =      -0.2055303652420438 [Eh]
	 Correlation Energy        =      -0.2685541697347275 [Eh]
	 Total Energy              =    -474.6012849481716671 [Eh]

	 ================> DF-SCS-MP2 Energies <==================
	-----------------------------------------------------------
	 SCS Same-Spin Scale       =       0.3333333333333333 [-]
	 SCS Opposite-Spin Scale   =       1.2000000000000000 [-]
	 SCS Same-Spin Energy      =      -0.0210079348308946 [Eh]
	 SCS Opposite-Spin Energy  =      -0.2466364382904525 [Eh]
	 SCS Correlation Energy    =      -0.2676443731213471 [Eh]
	 SCS Total Energy          =    -474.6003751515582962 [Eh]
	-----------------------------------------------------------

*** Psi4 exiting successfully. Buy a developer a beer!
