                               Psi4 1.8.2 release

  ==> Input File <==

--------------------------------------------------------------------------
MEMORY 60 GB

molecule dimer {
-1 1
Cl         0.000000     0.000000     0.000000
Gh(Li)     0.000000     2.029797     0.000000
Gh(Li)     4.059594     0.000000     0.000000

units ang
no_reorient
no_com
symmetry c1
}

set {
basis        aug-cc-pVTZ
scf_type     df
}

energy("mp2")
--------------------------------------------------------------------------

    Molecular point group: c1

    Geometry (in Angstrom), charge = -1, multiplicity = 1:

       Center              X                  Y                   Z               Mass
    ------------   -----------------  -----------------  -----------------  -----------------
         CL           0.000000000000     0.000000000000     0.000000000000    34.968852682000
      Gh(LI)          0.000000000000     2.029797000000     0.000000000000     7.016003436600
      Gh(LI)          4.059594000000     0.000000000000     0.000000000000     7.016003436600

  Charge       = -1
  Multiplicity = 1
  Basis Set: AUG-CC-PVTZ
    Blend: AUG-CC-PVTZ
  Basis Set: (AUG-CC-PVTZ AUX)
    Blend: AUG-CC-PVTZ-JKFIT + DEF2-UNIVERSAL-JKFIT

    Orbital Energies [Eh]
    ---------------------

    Doubly Occupied:

       1A   -104.506611     2A    -10.229899     3A     -7.695958
       4A     -7.695951     5A     -7.695928     6A     -0.733489
       7A     -0.150325     8A     -0.150320     9A     -0.150319

  @DF-RHF Final Energy:  -459.57352200466721

   => Energetics <=

    Nuclear Repulsion Energy =              0.0000000000000000
    One-Electron Energy =                -641.1294428613447280
    Two-Electron Energy =                 181.5559208566775169
    Total Energy =                       -459.5735220046672111
 Dipole X            :          0.0002337            0.0000000            0.0002337
 Dipole Y            :          0.0007538            0.0000000            0.0007538
 Dipole Z            :          0.0000000            0.0000000            0.0000000
 Magnitude           :                                                    0.0007892
  Basis Set: (AUG-CC-PVTZ AUX)
    Blend: AUG-CC-PVTZ-RI + DEF2-QZVPP-RI
	 Reference Energy          =    -459.5735220046672111 [Eh]
	 Singles Energy            =      -0.0000000000000000 [Eh]
	 Same-Spin Energy          =      -0.0628228288112136 [Eh]
	 Opposite-Spin Energy      =      -0.1806376353425171 [Eh]
	 Correlation Energy        =      -0.2434604641537307 [Eh]
	 Total Energy              =    -459.8169824688209246 [Eh]

	 ================> DF-SCS-MP2 Energies <==================
	-----------------------------------------------------------
	 SCS Same-Spin Scale       =       0.3333333333333333 [-]
	 SCS Opposite-Spin Scale   =       1.2000000000000000 [-]
	 SCS Same-Spin Energy      =      -0.0209409429370712 [Eh]
	 SCS Opposite-Spin Energy  =      -0.2167651624110205 [Eh]
	 SCS Correlation Energy    =      -0.2377061053480917 [Eh]
	 SCS Total Energy          =    -459.8112281100152927 [Eh]
	-----------------------------------------------------------

*** Psi4 exiting successfully. Buy a developer a beer!
