                               Psi4 1.8.2 release

  ==> Input File <==

--------------------------------------------------------------------------
MEMORY 60 GB

molecule dimer {
-1 1
Cl         0.000000     0.000000     0.000000
Gh(Li)     0.000000     2.029797     0.000000
Gh(Li)     2.841716     0.000000     0.000000

units ang
no_reorient
no_com
symmetry c1
}

set {
basis        aug-cc-pVTZ
scf_type     df
}

energy("mp2")
--------------------------------------------------------------------------

    Molecular point group: c1

    Geometry (in Angstrom), charge = -1, multiplicity = 1:

       Center              X                  Y                   Z               Mass
    ------------   -----------------  -----------------  -----------------  -----------------
         CL           0.000000000000     0.000000000000     0.000000000000    34.968852682000
      Gh(LI)          0.000000000000     2.029797000000     0.000000000000     7.016003436600
      Gh(LI)          2.841716000000     0.000000000000     0.000000000000     7.016003436600

  Charge       = -1
  Multiplicity = 1
  Basis Set: AUG-CC-PVTZ
    Blend: AUG-CC-PVTZ
  Basis Set: (AUG-CC-PVTZ AUX)
    Blend: AUG-CC-PVTZ-JKFIT + DEF2-UNIVERSAL-JKFIT

    Orbital Energies [Eh]
    ---------------------

    Doubly Occupied:

       1A   -104.506724     2A    -10.229923     3A     -7.695987
       4A     -7.695970     5A     -7.695953     6A     -0.733481
       7A     -0.150320     8A     -0.150316     9A     -0.150309

  @DF-RHF Final Energy:  -459.57353067692077

   => Energetics <=

    Nuclear Repulsion Energy =              0.0000000000000000
    One-Electron Energy =                -641.1290962549617234
    Two-Electron Energy =                 181.5555655780409552
    Total Energy =                       -459.5735306769207682
 Dipole X            :          0.0002978            0.0000000            0.0002978
 Dipole Y            :          0.0005915            0.0000000            0.0005915
 Dipole Z            :          0.0000000            0.0000000            0.0000000
 Magnitude           :                                                    0.0006623
  Basis Set: (AUG-CC-PVTZ AUX)
    Blend: AUG-CC-PVTZ-RI + DEF2-QZVPP-RI
	 Reference Energy          =    -459.5735306769207682 [Eh]
	 Singles Energy            =      -0.0000000000000000 [Eh]
	 Same-Spin Energy          =      -0.0629375208701963 [Eh]
	 Opposite-Spin Energy      =      -0.1810693482566703 [Eh]
	 Correlation Energy        =      -0.2440068691268666 [Eh]
	 Total Energy              =    -459.8175375460476175 [Eh]

	 ================> DF-SCS-MP2 Energies <==================
	-----------------------------------------------------------
	 SCS Same-Spin Scale       =       0.3333333333333333 [-]
	 SCS Opposite-Spin Scale   =       1.2000000000000000 [-]
	 SCS Same-Spin Energy      =      -0.0209791736233988 [Eh]
	 SCS Opposite-Spin Energy  =      -0.2172832179080044 [Eh]
	 SCS Correlation Energy    =      -0.2382623915314031 [Eh]
	 SCS Total Energy          =    -459.8117930684521752 [Eh]
	-----------------------------------------------------------

*** Psi4 exiting successfully. Buy a developer a beer!
