                               Psi4 1.9 release

  ==> Input File <==

--------------------------------------------------------------------------
MEMORY 60 GB

molecule dimer {
0 1
Cl     0.000000     0.000000     0.000000
Li     0.000000     2.029797     0.000000
--
1 1
Li     2.029797     0.000000     0.000000

units ang
no_reorient
no_com
symmetry c1
}

set {
basis        aug-cc-pVTZ
scf_type     df
}

energy("mp2", bsse_type="cp")
--------------------------------------------------------------------------

                               Psi4 1.9 release
    Molecular point group: c1
  Charge       = 1
  Multiplicity = 1
  Basis Set: AUG-CC-PVTZ
    Blend: AUG-CC-PVTZ
  Basis Set: (AUG-CC-PVTZ AUX)
    Blend: AUG-CC-PVTZ-JKFIT + DEF2-UNIVERSAL-JKFIT
  @DF-RHF Final Energy:    -7.23638345676709
    Total Energy =                         -7.2363834567670855
 Dipole X            :         -7.6715324           11.5072813            3.8357489
 Dipole Y            :          0.0000296            0.0000000            0.0000296
 Dipole Z            :          0.0000000            0.0000000            0.0000000
 Magnitude           :                                                    3.8357489
  Basis Set: (AUG-CC-PVTZ AUX)
    Blend: AUG-CC-PVTZ-RI + DEF2-QZVPP-RI
	 Reference Energy          =      -7.2363834567670855 [Eh]
	 Singles Energy            =      -0.0000000000000000 [Eh]
	 Same-Spin Energy          =       0.0000000000000000 [Eh]
	 Opposite-Spin Energy      =      -0.0130200064173278 [Eh]
	 Correlation Energy        =      -0.0130200064173278 [Eh]
	 Total Energy              =      -7.2494034631844135 [Eh]
	 SCS Total Energy          =      -7.2520074644678791 [Eh]
                               Psi4 1.9 release
    Molecular point group: c1
  Multiplicity = 1
  Basis Set: AUG-CC-PVTZ
    Blend: AUG-CC-PVTZ
  Basis Set: (AUG-CC-PVTZ AUX)
    Blend: AUG-CC-PVTZ-JKFIT + DEF2-UNIVERSAL-JKFIT
  @DF-RHF Final Energy:  -467.05214470820567
    Total Energy =                       -467.0521447082056739
  Basis Set: (AUG-CC-PVTZ AUX)
	 Singles Energy            =      -0.0000000000000000 [Eh]
	 Same-Spin Energy          =      -0.0630941543639523 [Eh]
	 Opposite-Spin Energy      =      -0.1941474390742569 [Eh]
	 Correlation Energy        =      -0.2572415934382091 [Eh]
	 Total Energy              =    -467.3093863016438831 [Eh]
	 SCS Total Energy          =    -467.3061530198827427 [Eh]
                               Psi4 1.9 release
    Molecular point group: c1

    Geometry (in Bohr), charge = 1, multiplicity = 1:

       Center              X                  Y                   Z               Mass
    ------------   -----------------  -----------------  -----------------  -----------------
         CL           0.000000000000     0.000000000000     0.000000000000    34.968852682000
         LI           0.000000000000     3.835760420276     0.000000000000     7.016003436600
         LI           3.835760420276     0.000000000000     0.000000000000     7.016003436600

  Charge       = 1
  Multiplicity = 1
  Basis Set: AUG-CC-PVTZ
    Blend: AUG-CC-PVTZ
  Basis Set: (AUG-CC-PVTZ AUX)
    Blend: AUG-CC-PVTZ-JKFIT + DEF2-UNIVERSAL-JKFIT

    Orbital Energies [Eh]
    ---------------------

    Doubly Occupied:

       1A   -104.959568     2A    -10.687061     3A     -8.153146
       4A     -8.153026     5A     -8.152751     6A     -2.671862
       7A     -2.671515     8A     -1.215510     9A     -0.642275
      10A     -0.638137    11A     -0.612930

  @DF-RHF Final Energy:  -474.34646434655713

   => Energetics <=

    Nuclear Repulsion Energy =             28.2509722082391761
    One-Electron Energy =                -708.0793113863663848
    Two-Electron Energy =                 205.4818748315700532
    Total Energy =                       -474.3464643465571271
 Dipole X            :         -8.5419477           11.5072813            2.9653336
 Dipole Y            :         -8.5419477           11.5072813            2.9653336
 Dipole Z            :         -0.0000000            0.0000000           -0.0000000
 Magnitude           :                                                    4.1936149
  Basis Set: (AUG-CC-PVTZ AUX)
    Blend: AUG-CC-PVTZ-RI + DEF2-QZVPP-RI
	 Reference Energy          =    -474.3464643465571271 [Eh]
	 Singles Energy            =      -0.0000000000000000 [Eh]
	 Same-Spin Energy          =      -0.0632198638733019 [Eh]
	 Opposite-Spin Energy      =      -0.2067813356619680 [Eh]
	 Correlation Energy        =      -0.2700011995352700 [Eh]
	 Total Energy              =    -474.6164655460923996 [Eh]

	 ================> DF-SCS-MP2 Energies <==================
	-----------------------------------------------------------
	 SCS Same-Spin Scale       =       0.3333333333333333 [-]
	 SCS Opposite-Spin Scale   =       1.2000000000000000 [-]
	 SCS Same-Spin Energy      =      -0.0210732879577673 [Eh]
	 SCS Opposite-Spin Energy  =      -0.2481376027943616 [Eh]
	 SCS Correlation Energy    =      -0.2692108907521290 [Eh]
	 SCS Total Energy          =    -474.6156752373092331 [Eh]
	-----------------------------------------------------------

*** Psi4 exiting successfully. Buy a developer a beer!
