                               Psi4 1.8.2 release

  ==> Input File <==

--------------------------------------------------------------------------
MEMORY 60 GB

molecule dimer {
1 1
Cl         0.000000     0.000000     0.000000
Li         0.000000     2.029797     0.000000
Li         2.232777     0.000000     0.000000

units ang
no_reorient
no_com
symmetry c1
}

set {
basis        aug-cc-pVTZ
scf_type     df
}

energy("mp2")
--------------------------------------------------------------------------

    Molecular point group: c1

    Geometry (in Angstrom), charge = 1, multiplicity = 1:

       Center              X                  Y                   Z               Mass
    ------------   -----------------  -----------------  -----------------  -----------------
         CL           0.000000000000     0.000000000000     0.000000000000    34.968852682000
         LI           0.000000000000     2.029797000000     0.000000000000     7.016003436600
         LI           2.232777000000     0.000000000000     0.000000000000     7.016003436600

  Charge       = 1
  Multiplicity = 1
  Basis Set: AUG-CC-PVTZ
    Blend: AUG-CC-PVTZ
  Basis Set: (AUG-CC-PVTZ AUX)
    Blend: AUG-CC-PVTZ-JKFIT + DEF2-UNIVERSAL-JKFIT

    Orbital Energies [Eh]
    ---------------------

    Doubly Occupied:

       1A   -104.951751     2A    -10.677931     3A     -8.144034
       4A     -8.143902     5A     -8.143668     6A     -2.685860
       7A     -2.663371     8A     -1.200497     9A     -0.627952
      10A     -0.622798    11A     -0.599929

  @DF-RHF Final Energy:  -474.34919493159089

   => Energetics <=

    Nuclear Repulsion Energy =             26.9614557489220452
    One-Electron Energy =                -705.6979144207614354
    Two-Electron Energy =                 204.3872637402484713
    Total Energy =                       -474.3491949315908869
 Dipole X            :         -9.3132732           12.6580111            3.3447379
 Dipole Y            :         -8.5547049           11.5072813            2.9525764
 Dipole Z            :          0.0000000            0.0000000            0.0000000
 Magnitude           :                                                    4.4614996
  Basis Set: (AUG-CC-PVTZ AUX)
    Blend: AUG-CC-PVTZ-RI + DEF2-QZVPP-RI
	 Reference Energy          =    -474.3491949315908869 [Eh]
	 Singles Energy            =      -0.0000000000000000 [Eh]
	 Same-Spin Energy          =      -0.0630984967559284 [Eh]
	 Opposite-Spin Energy      =      -0.2062961344630220 [Eh]
	 Correlation Energy        =      -0.2693946312189504 [Eh]
	 Total Energy              =    -474.6185895628098592 [Eh]

	 ================> DF-SCS-MP2 Energies <==================
	-----------------------------------------------------------
	 SCS Same-Spin Scale       =       0.3333333333333333 [-]
	 SCS Opposite-Spin Scale   =       1.2000000000000000 [-]
	 SCS Same-Spin Energy      =      -0.0210328322519761 [Eh]
	 SCS Opposite-Spin Energy  =      -0.2475553613556264 [Eh]
	 SCS Correlation Energy    =      -0.2685881936076025 [Eh]
	 SCS Total Energy          =    -474.6177831251985140 [Eh]
	-----------------------------------------------------------

*** Psi4 exiting successfully. Buy a developer a beer!
