                               Psi4 1.8.2 release

  ==> Input File <==

--------------------------------------------------------------------------
MEMORY 60 GB

molecule dimer {
-1 1
Cl     0.000000     0.000000     0.000000
--
1 1
Li     0.000000     2.029797     0.000000
--
1 1
Li     4.059594     0.000000     0.000000

units ang
no_reorient
no_com
symmetry c1
}

set {
basis        aug-cc-pVTZ
scf_type     df
}

energy("mp2", bsse_type="cp")
--------------------------------------------------------------------------

                               Psi4 1.8.2 release
    Molecular point group: c1
  Charge       = -1
  Multiplicity = 1
  Basis Set: AUG-CC-PVTZ
    Blend: AUG-CC-PVTZ
  Basis Set: (AUG-CC-PVTZ AUX)
    Blend: AUG-CC-PVTZ-JKFIT + DEF2-UNIVERSAL-JKFIT
  @DF-RHF Final Energy:  -459.57352200466710
    Total Energy =                       -459.5735220046671543
 Dipole X            :          0.0002337            0.0000000            0.0002337
 Dipole Y            :          0.0007538            0.0000000            0.0007538
 Dipole Z            :          0.0000000            0.0000000            0.0000000
 Magnitude           :                                                    0.0007892
  Basis Set: (AUG-CC-PVTZ AUX)
    Blend: AUG-CC-PVTZ-RI + DEF2-QZVPP-RI
	 Reference Energy          =    -459.5735220046670975 [Eh]
	 Singles Energy            =      -0.0000000000000000 [Eh]
	 Same-Spin Energy          =      -0.0628228288112128 [Eh]
	 Opposite-Spin Energy      =      -0.1806376353425168 [Eh]
	 Correlation Energy        =      -0.2434604641537296 [Eh]
	 Total Energy              =    -459.8169824688208109 [Eh]
	 SCS Total Energy          =    -459.8112281100151790 [Eh]
                               Psi4 1.8.2 release
    Molecular point group: c1
  Basis Set: AUG-CC-PVTZ
    Blend: AUG-CC-PVTZ
  Basis Set: (AUG-CC-PVTZ AUX)
    Blend: AUG-CC-PVTZ-JKFIT + DEF2-UNIVERSAL-JKFIT
  @DF-RHF Final Energy:    -7.23638327543556
    Total Energy =                         -7.2363832754355624
  Basis Set: (AUG-CC-PVTZ AUX)
                               Psi4 1.8.2 release
  @DF-RHF Final Energy:   -14.35620106609396
    Total Energy =                        -14.3562010660939556
                               Psi4 1.8.2 release
  @DF-RHF Final Energy:  -466.94666766059009
    Total Energy =                       -466.9466676605900943
                               Psi4 1.8.2 release
  @DF-RHF Final Energy:  -467.05205920616311
    Total Energy =                       -467.0520592061631078
                               Psi4 1.8.2 release
  Multiplicity = 1
  @DF-RHF Final Energy:    -7.23638287124178
    Total Energy =                         -7.2363828712417817
	 Singles Energy            =      -0.0000000000000000 [Eh]
	 Same-Spin Energy          =       0.0000000000000000 [Eh]
	 Opposite-Spin Energy      =      -0.0112028134663690 [Eh]
	 Correlation Energy        =      -0.0112028134663690 [Eh]
	 Total Energy              =      -7.2475856847081506 [Eh]
	 SCS Total Energy          =      -7.2498262474014243 [Eh]
                               Psi4 1.8.2 release
    Molecular point group: c1

    Geometry (in Bohr), charge = 1, multiplicity = 1:

       Center              X                  Y                   Z               Mass
    ------------   -----------------  -----------------  -----------------  -----------------
         CL           0.000000000000     0.000000000000     0.000000000000    34.968852682000
         LI           0.000000000000     3.835760420276     0.000000000000     7.016003436600
         LI           7.671520840552     0.000000000000     0.000000000000     7.016003436600

  Charge       = 1
  Multiplicity = 1
  Basis Set: AUG-CC-PVTZ
    Blend: AUG-CC-PVTZ
  Basis Set: (AUG-CC-PVTZ AUX)
    Blend: AUG-CC-PVTZ-JKFIT + DEF2-UNIVERSAL-JKFIT

    Orbital Energies [Eh]
    ---------------------

    Doubly Occupied:

       1A   -104.864919     2A    -10.590294     3A     -8.056402
       4A     -8.056237     5A     -8.056098     6A     -2.769780
       7A     -2.601496     8A     -1.105973     9A     -0.539540
      10A     -0.514649    11A     -0.511965

  @DF-RHF Final Energy:  -474.30550281696020

   => Energetics <=

    Nuclear Repulsion Energy =             20.9932095690447511
    One-Electron Energy =                -695.2627173084418928
    Two-Electron Energy =                 199.9640049224368852
    Total Energy =                       -474.3055028169602565
 Dipole X            :        -15.7981740           23.0145625            7.2163885
 Dipole Y            :         -8.6125364           11.5072813            2.8947449
 Dipole Z            :          0.0000000            0.0000000            0.0000000
 Magnitude           :                                                    7.7753335
  Basis Set: (AUG-CC-PVTZ AUX)
    Blend: AUG-CC-PVTZ-RI + DEF2-QZVPP-RI
	 Reference Energy          =    -474.3055028169601997 [Eh]
	 Singles Energy            =      -0.0000000000000000 [Eh]
	 Same-Spin Energy          =      -0.0628978127149330 [Eh]
	 Opposite-Spin Energy      =      -0.2043278374198361 [Eh]
	 Correlation Energy        =      -0.2672256501347692 [Eh]
	 Total Energy              =    -474.5727284670949757 [Eh]

	 ================> DF-SCS-MP2 Energies <==================
	-----------------------------------------------------------
	 SCS Same-Spin Scale       =       0.3333333333333333 [-]
	 SCS Opposite-Spin Scale   =       1.2000000000000000 [-]
	 SCS Same-Spin Energy      =      -0.0209659375716443 [Eh]
	 SCS Opposite-Spin Energy  =      -0.2451934049038033 [Eh]
	 SCS Correlation Energy    =      -0.2661593424754477 [Eh]
	 SCS Total Energy          =    -474.5716621594356752 [Eh]
	-----------------------------------------------------------

*** Psi4 exiting successfully. Buy a developer a beer!
