                               Psi4 1.8.2 release

  ==> Input File <==

--------------------------------------------------------------------------
MEMORY 60 GB

molecule dimer {
-1 1
Cl     0.000000     0.000000     0.000000
--
1 1
Li     0.000000     2.029797     0.000000
--
1 1
Li     2.232777     0.000000     0.000000

units ang
no_reorient
no_com
symmetry c1
}

set {
basis        aug-cc-pVTZ
scf_type     df
}

energy("mp2", bsse_type="cp")
--------------------------------------------------------------------------

                               Psi4 1.8.2 release
    Molecular point group: c1
  Charge       = -1
  Multiplicity = 1
  Basis Set: AUG-CC-PVTZ
    Blend: AUG-CC-PVTZ
  Basis Set: (AUG-CC-PVTZ AUX)
    Blend: AUG-CC-PVTZ-JKFIT + DEF2-UNIVERSAL-JKFIT
  @DF-RHF Final Energy:  -459.57353887775491
    Total Energy =                       -459.5735388777549133
 Dipole X            :          0.0004349            0.0000000            0.0004349
 Dipole Y            :          0.0005462            0.0000000            0.0005462
 Dipole Z            :          0.0000000            0.0000000            0.0000000
 Magnitude           :                                                    0.0006982
  Basis Set: (AUG-CC-PVTZ AUX)
    Blend: AUG-CC-PVTZ-RI + DEF2-QZVPP-RI
	 Reference Energy          =    -459.5735388777549133 [Eh]
	 Singles Energy            =      -0.0000000000000000 [Eh]
	 Same-Spin Energy          =      -0.0630425935428918 [Eh]
	 Opposite-Spin Energy      =      -0.1815161655510399 [Eh]
	 Correlation Energy        =      -0.2445587590939318 [Eh]
	 Total Energy              =    -459.8180976368488473 [Eh]
	 SCS Total Energy          =    -459.8123724742637819 [Eh]
                               Psi4 1.8.2 release
    Molecular point group: c1
  Basis Set: AUG-CC-PVTZ
    Blend: AUG-CC-PVTZ
  Basis Set: (AUG-CC-PVTZ AUX)
    Blend: AUG-CC-PVTZ-JKFIT + DEF2-UNIVERSAL-JKFIT
  @DF-RHF Final Energy:    -7.23638342348070
    Total Energy =                         -7.2363834234807030
  Basis Set: (AUG-CC-PVTZ AUX)
                               Psi4 1.8.2 release
  @DF-RHF Final Energy:   -14.29754712599089
    Total Energy =                        -14.2975471259908851
                               Psi4 1.8.2 release
  @DF-RHF Final Energy:  -467.04737874695741
    Total Energy =                       -467.0473787469574063
                               Psi4 1.8.2 release
  @DF-RHF Final Energy:  -467.05213007580460
    Total Energy =                       -467.0521300758045982
                               Psi4 1.8.2 release
  Multiplicity = 1
  @DF-RHF Final Energy:    -7.23638329407656
    Total Energy =                         -7.2363832940765596
	 Singles Energy            =      -0.0000000000000000 [Eh]
	 Same-Spin Energy          =       0.0000000000000000 [Eh]
	 Opposite-Spin Energy      =      -0.0125036541851059 [Eh]
	 Correlation Energy        =      -0.0125036541851059 [Eh]
	 Total Energy              =      -7.2488869482616662 [Eh]
	 SCS Total Energy          =      -7.2513876790986878 [Eh]
                               Psi4 1.8.2 release
    Molecular point group: c1

    Geometry (in Bohr), charge = 1, multiplicity = 1:

       Center              X                  Y                   Z               Mass
    ------------   -----------------  -----------------  -----------------  -----------------
         CL           0.000000000000     0.000000000000     0.000000000000    34.968852682000
         LI           0.000000000000     3.835760420276     0.000000000000     7.016003436600
         LI           4.219337029221     0.000000000000     0.000000000000     7.016003436600

  Charge       = 1
  Multiplicity = 1
  Basis Set: AUG-CC-PVTZ
    Blend: AUG-CC-PVTZ
  Basis Set: (AUG-CC-PVTZ AUX)
    Blend: AUG-CC-PVTZ-JKFIT + DEF2-UNIVERSAL-JKFIT

    Orbital Energies [Eh]
    ---------------------

    Doubly Occupied:

       1A   -104.951751     2A    -10.677931     3A     -8.144034
       4A     -8.143902     5A     -8.143668     6A     -2.685860
       7A     -2.663371     8A     -1.200497     9A     -0.627952
      10A     -0.622798    11A     -0.599929

  @DF-RHF Final Energy:  -474.34919493158594

   => Energetics <=

    Nuclear Repulsion Energy =             26.9614557489220452
    One-Electron Energy =                -705.6979144207605259
    Two-Electron Energy =                 204.3872637402525356
    Total Energy =                       -474.3491949315859415
 Dipole X            :         -9.3132732           12.6580111            3.3447379
 Dipole Y            :         -8.5547049           11.5072813            2.9525764
 Dipole Z            :          0.0000000            0.0000000            0.0000000
 Magnitude           :                                                    4.4614996
  Basis Set: (AUG-CC-PVTZ AUX)
    Blend: AUG-CC-PVTZ-RI + DEF2-QZVPP-RI
	 Reference Energy          =    -474.3491949315859415 [Eh]
	 Singles Energy            =      -0.0000000000000000 [Eh]
	 Same-Spin Energy          =      -0.0630984967559126 [Eh]
	 Opposite-Spin Energy      =      -0.2062961344626513 [Eh]
	 Correlation Energy        =      -0.2693946312185639 [Eh]
	 Total Energy              =    -474.6185895628045159 [Eh]

	 ================> DF-SCS-MP2 Energies <==================
	-----------------------------------------------------------
	 SCS Same-Spin Scale       =       0.3333333333333333 [-]
	 SCS Opposite-Spin Scale   =       1.2000000000000000 [-]
	 SCS Same-Spin Energy      =      -0.0210328322519709 [Eh]
	 SCS Opposite-Spin Energy  =      -0.2475553613551816 [Eh]
	 SCS Correlation Energy    =      -0.2685881936071524 [Eh]
	 SCS Total Energy          =    -474.6177831251931138 [Eh]
	-----------------------------------------------------------

*** Psi4 exiting successfully. Buy a developer a beer!
