                               Psi4 1.8.2 release

  ==> Input File <==

--------------------------------------------------------------------------
MEMORY 60 GB

molecule dimer {
-1 1
Cl     0.000000     0.000000     0.000000
--
1 1
Li     0.000000     2.029797     0.000000
--
1 1
Li     2.435756     0.000000     0.000000

units ang
no_reorient
no_com
symmetry c1
}

set {
basis        aug-cc-pVTZ
scf_type     df
}

energy("mp2", bsse_type="cp")
--------------------------------------------------------------------------

                               Psi4 1.8.2 release
    Molecular point group: c1
  Charge       = -1
  Multiplicity = 1
  Basis Set: AUG-CC-PVTZ
    Blend: AUG-CC-PVTZ
  Basis Set: (AUG-CC-PVTZ AUX)
    Blend: AUG-CC-PVTZ-JKFIT + DEF2-UNIVERSAL-JKFIT
  @DF-RHF Final Energy:  -459.57353563234494
    Total Energy =                       -459.5735356323449423
 Dipole X            :          0.0003728            0.0000000            0.0003728
 Dipole Y            :          0.0005759            0.0000000            0.0005759
 Dipole Z            :          0.0000000            0.0000000            0.0000000
 Magnitude           :                                                    0.0006860
  Basis Set: (AUG-CC-PVTZ AUX)
    Blend: AUG-CC-PVTZ-RI + DEF2-QZVPP-RI
	 Reference Energy          =    -459.5735356323449423 [Eh]
	 Singles Energy            =      -0.0000000000000000 [Eh]
	 Same-Spin Energy          =      -0.0630005387722757 [Eh]
	 Opposite-Spin Energy      =      -0.1813387235529656 [Eh]
	 Correlation Energy        =      -0.2443392623252413 [Eh]
	 Total Energy              =    -459.8178748946701830 [Eh]
	 SCS Total Energy          =    -459.8121422801992821 [Eh]
                               Psi4 1.8.2 release
    Molecular point group: c1
  Basis Set: AUG-CC-PVTZ
    Blend: AUG-CC-PVTZ
  Basis Set: (AUG-CC-PVTZ AUX)
    Blend: AUG-CC-PVTZ-JKFIT + DEF2-UNIVERSAL-JKFIT
  @DF-RHF Final Energy:    -7.23638339413852
    Total Energy =                         -7.2363833941385227
  Basis Set: (AUG-CC-PVTZ AUX)
                               Psi4 1.8.2 release
  @DF-RHF Final Energy:   -14.30598693843658
    Total Energy =                        -14.3059869384365754
                               Psi4 1.8.2 release
  @DF-RHF Final Energy:  -467.03637142852108
    Total Energy =                       -467.0363714285210790
                               Psi4 1.8.2 release
  @DF-RHF Final Energy:  -467.05211640360864
    Total Energy =                       -467.0521164036086361
                               Psi4 1.8.2 release
  Multiplicity = 1
  @DF-RHF Final Energy:    -7.23638324699299
    Total Energy =                         -7.2363832469929861
	 Singles Energy            =      -0.0000000000000000 [Eh]
	 Same-Spin Energy          =       0.0000000000000000 [Eh]
	 Opposite-Spin Energy      =      -0.0121068861273216 [Eh]
	 Correlation Energy        =      -0.0121068861273216 [Eh]
	 Total Energy              =      -7.2484901331203080 [Eh]
	 SCS Total Energy          =      -7.2509115103457722 [Eh]
                               Psi4 1.8.2 release
    Molecular point group: c1

    Geometry (in Bohr), charge = 1, multiplicity = 1:

       Center              X                  Y                   Z               Mass
    ------------   -----------------  -----------------  -----------------  -----------------
         CL           0.000000000000     0.000000000000     0.000000000000    34.968852682000
         LI           0.000000000000     3.835760420276     0.000000000000     7.016003436600
         LI           4.602911748441     0.000000000000     0.000000000000     7.016003436600

  Charge       = 1
  Multiplicity = 1
  Basis Set: AUG-CC-PVTZ
    Blend: AUG-CC-PVTZ
  Basis Set: (AUG-CC-PVTZ AUX)
    Blend: AUG-CC-PVTZ-JKFIT + DEF2-UNIVERSAL-JKFIT

    Orbital Energies [Eh]
    ---------------------

    Doubly Occupied:

       1A   -104.942349     2A    -10.667854     3A     -8.133948
       4A     -8.133819     5A     -8.133589     6A     -2.700343
       7A     -2.655284     8A     -1.186605     9A     -0.615389
      10A     -0.606542    11A     -0.587776

  @DF-RHF Final Energy:  -474.34550788883564

   => Energetics <=

    Nuclear Repulsion Energy =             25.8779632351474973
    One-Electron Energy =                -703.7199470418166811
    Two-Electron Energy =                 203.4964759178335783
    Total Energy =                       -474.3455078888356411
 Dipole X            :        -10.0660095           13.8087352            3.7427257
 Dipole Y            :         -8.5662770           11.5072813            2.9410042
 Dipole Z            :          0.0000000            0.0000000            0.0000000
 Magnitude           :                                                    4.7599897
  Basis Set: (AUG-CC-PVTZ AUX)
    Blend: AUG-CC-PVTZ-RI + DEF2-QZVPP-RI
	 Reference Energy          =    -474.3455078888356411 [Eh]
	 Singles Energy            =      -0.0000000000000000 [Eh]
	 Same-Spin Energy          =      -0.0630463413327321 [Eh]
	 Opposite-Spin Energy      =      -0.2059673328649033 [Eh]
	 Correlation Energy        =      -0.2690136741976354 [Eh]
	 Total Energy              =    -474.6145215630332928 [Eh]

	 ================> DF-SCS-MP2 Energies <==================
	-----------------------------------------------------------
	 SCS Same-Spin Scale       =       0.3333333333333333 [-]
	 SCS Opposite-Spin Scale   =       1.2000000000000000 [-]
	 SCS Same-Spin Energy      =      -0.0210154471109107 [Eh]
	 SCS Opposite-Spin Energy  =      -0.2471607994378839 [Eh]
	 SCS Correlation Energy    =      -0.2681762465487946 [Eh]
	 SCS Total Energy          =    -474.6136841353844602 [Eh]
	-----------------------------------------------------------

*** Psi4 exiting successfully. Buy a developer a beer!
