                               Psi4 1.8.2 release

  ==> Input File <==

--------------------------------------------------------------------------
MEMORY 60 GB

molecule dimer {
1 1
Cl         0.000000     0.000000     0.000000
Li         0.000000     2.029797     0.000000
Li         3.044695     0.000000     0.000000

units ang
no_reorient
no_com
symmetry c1
}

set {
basis        aug-cc-pVTZ
scf_type     df
}

energy("mp2")
--------------------------------------------------------------------------

    Molecular point group: c1

    Geometry (in Angstrom), charge = 1, multiplicity = 1:

       Center              X                  Y                   Z               Mass
    ------------   -----------------  -----------------  -----------------  -----------------
         CL           0.000000000000     0.000000000000     0.000000000000    34.968852682000
         LI           0.000000000000     2.029797000000     0.000000000000     7.016003436600
         LI           3.044695000000     0.000000000000     0.000000000000     7.016003436600

  Charge       = 1
  Multiplicity = 1
  Basis Set: AUG-CC-PVTZ
    Blend: AUG-CC-PVTZ
  Basis Set: (AUG-CC-PVTZ AUX)
    Blend: AUG-CC-PVTZ-JKFIT + DEF2-UNIVERSAL-JKFIT

    Orbital Energies [Eh]
    ---------------------

    Doubly Occupied:

       1A   -104.910628     2A    -10.635694     3A     -8.101760
       4A     -8.101647     5A     -8.101419     6A     -2.736899
       7A     -2.632526     8A     -1.150501     9A     -0.582233
      10A     -0.563174    11A     -0.554747

  @DF-RHF Final Energy:  -474.32640422220123

   => Energetics <=

    Nuclear Repulsion Energy =             23.4613995810026132
    One-Electron Energy =                -699.4331512274501392
    Two-Electron Energy =                 201.6453474242462391
    Total Energy =                       -474.3264042222012904
 Dipole X            :        -12.2419810           17.2609191            5.0189380
 Dipole Y            :         -8.5923631           11.5072813            2.9149182
 Dipole Z            :         -0.0000000            0.0000000           -0.0000000
 Magnitude           :                                                    5.8040061
  Basis Set: (AUG-CC-PVTZ AUX)
    Blend: AUG-CC-PVTZ-RI + DEF2-QZVPP-RI
	 Reference Energy          =    -474.3264042222012336 [Eh]
	 Singles Energy            =      -0.0000000000000000 [Eh]
	 Same-Spin Energy          =      -0.0630162065671343 [Eh]
	 Opposite-Spin Energy      =      -0.2053316081161812 [Eh]
	 Correlation Energy        =      -0.2683478146833155 [Eh]
	 Total Energy              =    -474.5947520368845289 [Eh]

	 ================> DF-SCS-MP2 Energies <==================
	-----------------------------------------------------------
	 SCS Same-Spin Scale       =       0.3333333333333333 [-]
	 SCS Opposite-Spin Scale   =       1.2000000000000000 [-]
	 SCS Same-Spin Energy      =      -0.0210054021890448 [Eh]
	 SCS Opposite-Spin Energy  =      -0.2463979297394175 [Eh]
	 SCS Correlation Energy    =      -0.2674033319284622 [Eh]
	 SCS Total Energy          =    -474.5938075541296826 [Eh]
	-----------------------------------------------------------

*** Psi4 exiting successfully. Buy a developer a beer!
