                               Psi4 1.9 release

  ==> Input File <==

--------------------------------------------------------------------------
MEMORY 60 GB

molecule dimer {
0 1
Cl     0.000000     0.000000     0.000000
Li     0.000000     2.029797     0.000000
--
1 1
Li     2.435756     0.000000     0.000000

units ang
no_reorient
no_com
symmetry c1
}

set {
basis        aug-cc-pVTZ
scf_type     df
}

energy("mp2", bsse_type="cp")
--------------------------------------------------------------------------

                               Psi4 1.9 release
    Molecular point group: c1
  Charge       = 1
  Multiplicity = 1
  Basis Set: AUG-CC-PVTZ
    Blend: AUG-CC-PVTZ
  Basis Set: (AUG-CC-PVTZ AUX)
    Blend: AUG-CC-PVTZ-JKFIT + DEF2-UNIVERSAL-JKFIT
  @DF-RHF Final Energy:    -7.23638324699288
    Total Energy =                         -7.2363832469928795
 Dipole X            :         -9.2058936           13.8087352            4.6028416
 Dipole Y            :          0.0000162            0.0000000            0.0000162
 Dipole Z            :          0.0000000            0.0000000            0.0000000
 Magnitude           :                                                    4.6028416
  Basis Set: (AUG-CC-PVTZ AUX)
    Blend: AUG-CC-PVTZ-RI + DEF2-QZVPP-RI
	 Reference Energy          =      -7.2363832469928795 [Eh]
	 Singles Energy            =      -0.0000000000000000 [Eh]
	 Same-Spin Energy          =       0.0000000000000000 [Eh]
	 Opposite-Spin Energy      =      -0.0121068861273224 [Eh]
	 Correlation Energy        =      -0.0121068861273224 [Eh]
	 Total Energy              =      -7.2484901331202014 [Eh]
	 SCS Total Energy          =      -7.2509115103456665 [Eh]
                               Psi4 1.9 release
    Molecular point group: c1
  Multiplicity = 1
  Basis Set: AUG-CC-PVTZ
    Blend: AUG-CC-PVTZ
  Basis Set: (AUG-CC-PVTZ AUX)
    Blend: AUG-CC-PVTZ-JKFIT + DEF2-UNIVERSAL-JKFIT
  @DF-RHF Final Energy:  -467.05211640356538
    Total Energy =                       -467.0521164035653783
  Basis Set: (AUG-CC-PVTZ AUX)
	 Singles Energy            =      -0.0000000000000000 [Eh]
	 Same-Spin Energy          =      -0.0629945661613465 [Eh]
	 Opposite-Spin Energy      =      -0.1936781087191320 [Eh]
	 Correlation Energy        =      -0.2566726748804784 [Eh]
	 Total Energy              =    -467.3087890784458409 [Eh]
	 SCS Total Energy          =    -467.3055283227487848 [Eh]
                               Psi4 1.9 release
    Molecular point group: c1

    Geometry (in Bohr), charge = 1, multiplicity = 1:

       Center              X                  Y                   Z               Mass
    ------------   -----------------  -----------------  -----------------  -----------------
         CL           0.000000000000     0.000000000000     0.000000000000    34.968852682000
         LI           0.000000000000     3.835760420276     0.000000000000     7.016003436600
         LI           4.602911748441     0.000000000000     0.000000000000     7.016003436600

  Charge       = 1
  Multiplicity = 1
  Basis Set: AUG-CC-PVTZ
    Blend: AUG-CC-PVTZ
  Basis Set: (AUG-CC-PVTZ AUX)
    Blend: AUG-CC-PVTZ-JKFIT + DEF2-UNIVERSAL-JKFIT

    Orbital Energies [Eh]
    ---------------------

    Doubly Occupied:

       1A   -104.942349     2A    -10.667854     3A     -8.133948
       4A     -8.133819     5A     -8.133589     6A     -2.700343
       7A     -2.655284     8A     -1.186605     9A     -0.615389
      10A     -0.606542    11A     -0.587776

  @DF-RHF Final Energy:  -474.34550788878977

   => Energetics <=

    Nuclear Repulsion Energy =             25.8779632351474973
    One-Electron Energy =                -703.7199470417780276
    Two-Electron Energy =                 203.4964759178407974
    Total Energy =                       -474.3455078887897116
 Dipole X            :        -10.0660095           13.8087352            3.7427257
 Dipole Y            :         -8.5662770           11.5072813            2.9410042
 Dipole Z            :          0.0000000            0.0000000            0.0000000
 Magnitude           :                                                    4.7599897
  Basis Set: (AUG-CC-PVTZ AUX)
    Blend: AUG-CC-PVTZ-RI + DEF2-QZVPP-RI
	 Reference Energy          =    -474.3455078887897685 [Eh]
	 Singles Energy            =      -0.0000000000000000 [Eh]
	 Same-Spin Energy          =      -0.0630463413327495 [Eh]
	 Opposite-Spin Energy      =      -0.2059673328648021 [Eh]
	 Correlation Energy        =      -0.2690136741975516 [Eh]
	 Total Energy              =    -474.6145215629873064 [Eh]

	 ================> DF-SCS-MP2 Energies <==================
	-----------------------------------------------------------
	 SCS Same-Spin Scale       =       0.3333333333333333 [-]
	 SCS Opposite-Spin Scale   =       1.2000000000000000 [-]
	 SCS Same-Spin Energy      =      -0.0210154471109165 [Eh]
	 SCS Opposite-Spin Energy  =      -0.2471607994377626 [Eh]
	 SCS Correlation Energy    =      -0.2681762465486791 [Eh]
	 SCS Total Energy          =    -474.6136841353384739 [Eh]
	-----------------------------------------------------------

*** Psi4 exiting successfully. Buy a developer a beer!
