                               Psi4 1.9 release

  ==> Input File <==

--------------------------------------------------------------------------
MEMORY 60 GB

molecule dimer {
0 1
Cl     0.000000     0.000000     0.000000
Li     0.000000     2.029797     0.000000
--
1 1
Li     4.059594     0.000000     0.000000

units ang
no_reorient
no_com
symmetry c1
}

set {
basis        aug-cc-pVTZ
scf_type     df
}

energy("mp2", bsse_type="cp")
--------------------------------------------------------------------------

                               Psi4 1.9 release
    Molecular point group: c1
  Charge       = 1
  Multiplicity = 1
  Basis Set: AUG-CC-PVTZ
    Blend: AUG-CC-PVTZ
  Basis Set: (AUG-CC-PVTZ AUX)
    Blend: AUG-CC-PVTZ-JKFIT + DEF2-UNIVERSAL-JKFIT
  @DF-RHF Final Energy:    -7.23638287124181
    Total Energy =                         -7.2363828712418075
 Dipole X            :        -15.3430880           23.0145625            7.6714745
 Dipole Y            :          0.0000135            0.0000000            0.0000135
 Dipole Z            :         -0.0000000            0.0000000           -0.0000000
 Magnitude           :                                                    7.6714745
  Basis Set: (AUG-CC-PVTZ AUX)
    Blend: AUG-CC-PVTZ-RI + DEF2-QZVPP-RI
	 Reference Energy          =      -7.2363828712418066 [Eh]
	 Singles Energy            =      -0.0000000000000000 [Eh]
	 Same-Spin Energy          =      -0.0000000000000000 [Eh]
	 Opposite-Spin Energy      =      -0.0112028134663710 [Eh]
	 Correlation Energy        =      -0.0112028134663710 [Eh]
	 Total Energy              =      -7.2475856847081772 [Eh]
	 SCS Total Energy          =      -7.2498262474014519 [Eh]
                               Psi4 1.9 release
    Molecular point group: c1
  Multiplicity = 1
  Basis Set: AUG-CC-PVTZ
    Blend: AUG-CC-PVTZ
  Basis Set: (AUG-CC-PVTZ AUX)
    Blend: AUG-CC-PVTZ-JKFIT + DEF2-UNIVERSAL-JKFIT
  @DF-RHF Final Energy:  -467.05205920616402
    Total Energy =                       -467.0520592061640173
  Basis Set: (AUG-CC-PVTZ AUX)
	 Singles Energy            =      -0.0000000000000000 [Eh]
	 Same-Spin Energy          =      -0.0628104574233273 [Eh]
	 Opposite-Spin Energy      =      -0.1928270537792009 [Eh]
	 Correlation Energy        =      -0.2556375112025282 [Eh]
	 Total Energy              =    -467.3076967173665253 [Eh]
	 SCS Total Energy          =    -467.3043884898401643 [Eh]
                               Psi4 1.9 release
    Molecular point group: c1

    Geometry (in Bohr), charge = 1, multiplicity = 1:

       Center              X                  Y                   Z               Mass
    ------------   -----------------  -----------------  -----------------  -----------------
         CL           0.000000000000     0.000000000000     0.000000000000    34.968852682000
         LI           0.000000000000     3.835760420276     0.000000000000     7.016003436600
         LI           7.671520840552     0.000000000000     0.000000000000     7.016003436600

  Charge       = 1
  Multiplicity = 1
  Basis Set: AUG-CC-PVTZ
    Blend: AUG-CC-PVTZ
  Basis Set: (AUG-CC-PVTZ AUX)
    Blend: AUG-CC-PVTZ-JKFIT + DEF2-UNIVERSAL-JKFIT

    Orbital Energies [Eh]
    ---------------------

    Doubly Occupied:

       1A   -104.864919     2A    -10.590294     3A     -8.056402
       4A     -8.056237     5A     -8.056098     6A     -2.769780
       7A     -2.601496     8A     -1.105973     9A     -0.539540
      10A     -0.514649    11A     -0.511965

  @DF-RHF Final Energy:  -474.30550281696060

   => Energetics <=

    Nuclear Repulsion Energy =             20.9932095690447511
    One-Electron Energy =                -695.2627173084373453
    Two-Electron Energy =                 199.9640049224319398
    Total Energy =                       -474.3055028169605976
 Dipole X            :        -15.7981740           23.0145625            7.2163885
 Dipole Y            :         -8.6125364           11.5072813            2.8947449
 Dipole Z            :          0.0000000            0.0000000            0.0000000
 Magnitude           :                                                    7.7753335
  Basis Set: (AUG-CC-PVTZ AUX)
    Blend: AUG-CC-PVTZ-RI + DEF2-QZVPP-RI
	 Reference Energy          =    -474.3055028169605976 [Eh]
	 Singles Energy            =      -0.0000000000000000 [Eh]
	 Same-Spin Energy          =      -0.0628978127149495 [Eh]
	 Opposite-Spin Energy      =      -0.2043278374198564 [Eh]
	 Correlation Energy        =      -0.2672256501348059 [Eh]
	 Total Energy              =    -474.5727284670954305 [Eh]

	 ================> DF-SCS-MP2 Energies <==================
	-----------------------------------------------------------
	 SCS Same-Spin Scale       =       0.3333333333333333 [-]
	 SCS Opposite-Spin Scale   =       1.2000000000000000 [-]
	 SCS Same-Spin Energy      =      -0.0209659375716498 [Eh]
	 SCS Opposite-Spin Energy  =      -0.2451934049038277 [Eh]
	 SCS Correlation Energy    =      -0.2661593424754775 [Eh]
	 SCS Total Energy          =    -474.5716621594360731 [Eh]
	-----------------------------------------------------------

*** Psi4 exiting successfully. Buy a developer a beer!
