                               Psi4 1.9 release

  ==> Input File <==

--------------------------------------------------------------------------
MEMORY 60 GB

molecule dimer {
0 1
Cl     0.000000     0.000000     0.000000
Li     0.000000     2.029797     0.000000
--
1 1
Li     2.841716     0.000000     0.000000

units ang
no_reorient
no_com
symmetry c1
}

set {
basis        aug-cc-pVTZ
scf_type     df
}

energy("mp2", bsse_type="cp")
--------------------------------------------------------------------------

                               Psi4 1.9 release
    Molecular point group: c1
  Charge       = 1
  Multiplicity = 1
  Basis Set: AUG-CC-PVTZ
    Blend: AUG-CC-PVTZ
  Basis Set: (AUG-CC-PVTZ AUX)
    Blend: AUG-CC-PVTZ-JKFIT + DEF2-UNIVERSAL-JKFIT
  @DF-RHF Final Energy:    -7.23638319628203
    Total Energy =                         -7.2363831962820351
 Dipole X            :        -10.7402085           16.1101949            5.3699864
 Dipole Y            :          0.0000164            0.0000000            0.0000164
 Dipole Z            :          0.0000000            0.0000000            0.0000000
 Magnitude           :                                                    5.3699864
  Basis Set: (AUG-CC-PVTZ AUX)
    Blend: AUG-CC-PVTZ-RI + DEF2-QZVPP-RI
	 Reference Energy          =      -7.2363831962820342 [Eh]
	 Singles Energy            =      -0.0000000000000000 [Eh]
	 Same-Spin Energy          =      -0.0000000000000000 [Eh]
	 Opposite-Spin Energy      =      -0.0116524193895705 [Eh]
	 Correlation Energy        =      -0.0116524193895705 [Eh]
	 Total Energy              =      -7.2480356156716050 [Eh]
	 SCS Total Energy          =      -7.2503660995495185 [Eh]
                               Psi4 1.9 release
    Molecular point group: c1
  Multiplicity = 1
  Basis Set: AUG-CC-PVTZ
    Blend: AUG-CC-PVTZ
  Basis Set: (AUG-CC-PVTZ AUX)
    Blend: AUG-CC-PVTZ-JKFIT + DEF2-UNIVERSAL-JKFIT
  @DF-RHF Final Energy:  -467.05209549082656
    Total Energy =                       -467.0520954908265026
  Basis Set: (AUG-CC-PVTZ AUX)
	 Singles Energy            =      -0.0000000000000000 [Eh]
	 Same-Spin Energy          =      -0.0629286560222358 [Eh]
	 Opposite-Spin Energy      =      -0.1933566624025778 [Eh]
	 Correlation Energy        =      -0.2562853184248136 [Eh]
	 Total Energy              =    -467.3083808092513891 [Eh]
	 SCS Total Energy          =    -467.3050997043837356 [Eh]
                               Psi4 1.9 release
    Molecular point group: c1

    Geometry (in Bohr), charge = 1, multiplicity = 1:

       Center              X                  Y                   Z               Mass
    ------------   -----------------  -----------------  -----------------  -----------------
         CL           0.000000000000     0.000000000000     0.000000000000    34.968852682000
         LI           0.000000000000     3.835760420276     0.000000000000     7.016003436600
         LI           5.370064966332     0.000000000000     0.000000000000     7.016003436600

  Charge       = 1
  Multiplicity = 1
  Basis Set: AUG-CC-PVTZ
    Blend: AUG-CC-PVTZ
  Basis Set: (AUG-CC-PVTZ AUX)
    Blend: AUG-CC-PVTZ-JKFIT + DEF2-UNIVERSAL-JKFIT

    Orbital Energies [Eh]
    ---------------------

    Doubly Occupied:

       1A   -104.921327     2A    -10.646399     3A     -8.112469
       4A     -8.112354     5A     -8.112120     6A     -2.726199
       7A     -2.639830     8A     -1.161706     9A     -0.592698
      10A     -0.576367    11A     -0.565215

  @DF-RHF Final Energy:  -474.33273077843512

   => Energetics <=

    Nuclear Repulsion Energy =             24.1568039220102726
    One-Electron Energy =                -700.6457013489128940
    Two-Electron Energy =                 202.1561666484675754
    Total Energy =                       -474.3327307784351206
 Dipole X            :        -11.5267760           16.1101949            4.5834189
 Dipole Y            :         -8.5851235           11.5072813            2.9221577
 Dipole Z            :          0.0000000            0.0000000            0.0000000
 Magnitude           :                                                    5.4356908
  Basis Set: (AUG-CC-PVTZ AUX)
    Blend: AUG-CC-PVTZ-RI + DEF2-QZVPP-RI
	 Reference Energy          =    -474.3327307784351206 [Eh]
	 Singles Energy            =      -0.0000000000000000 [Eh]
	 Same-Spin Energy          =      -0.0630238044926972 [Eh]
	 Opposite-Spin Energy      =      -0.2055303652420648 [Eh]
	 Correlation Energy        =      -0.2685541697347620 [Eh]
	 Total Energy              =    -474.6012849481699050 [Eh]

	 ================> DF-SCS-MP2 Energies <==================
	-----------------------------------------------------------
	 SCS Same-Spin Scale       =       0.3333333333333333 [-]
	 SCS Opposite-Spin Scale   =       1.2000000000000000 [-]
	 SCS Same-Spin Energy      =      -0.0210079348308991 [Eh]
	 SCS Opposite-Spin Energy  =      -0.2466364382904778 [Eh]
	 SCS Correlation Energy    =      -0.2676443731213768 [Eh]
	 SCS Total Energy          =    -474.6003751515564772 [Eh]
	-----------------------------------------------------------

*** Psi4 exiting successfully. Buy a developer a beer!
