                               Psi4 1.8.2 release

  ==> Input File <==

--------------------------------------------------------------------------
MEMORY 60 GB

molecule dimer {
-1 1
Cl         0.000000     0.000000     0.000000
Gh(Li)     0.000000     2.029797     0.000000
Gh(Li)     2.232777     0.000000     0.000000

units ang
no_reorient
no_com
symmetry c1
}

set {
basis        aug-cc-pVTZ
scf_type     df
}

energy("mp2")
--------------------------------------------------------------------------

    Molecular point group: c1

    Geometry (in Angstrom), charge = -1, multiplicity = 1:

       Center              X                  Y                   Z               Mass
    ------------   -----------------  -----------------  -----------------  -----------------
         CL           0.000000000000     0.000000000000     0.000000000000    34.968852682000
      Gh(LI)          0.000000000000     2.029797000000     0.000000000000     7.016003436600
      Gh(LI)          2.232777000000     0.000000000000     0.000000000000     7.016003436600

  Charge       = -1
  Multiplicity = 1
  Basis Set: AUG-CC-PVTZ
    Blend: AUG-CC-PVTZ
  Basis Set: (AUG-CC-PVTZ AUX)
    Blend: AUG-CC-PVTZ-JKFIT + DEF2-UNIVERSAL-JKFIT

    Orbital Energies [Eh]
    ---------------------

    Doubly Occupied:

       1A   -104.506826     2A    -10.229945     3A     -7.696015
       4A     -7.695995     5A     -7.695974     6A     -0.733476
       7A     -0.150316     8A     -0.150311     9A     -0.150307

  @DF-RHF Final Energy:  -459.57353887776554

   => Energetics <=

    Nuclear Repulsion Energy =              0.0000000000000000
    One-Electron Energy =                -641.1287462227237484
    Two-Electron Energy =                 181.5552073449581769
    Total Energy =                       -459.5735388777655999
 Dipole X            :          0.0004349            0.0000000            0.0004349
 Dipole Y            :          0.0005462            0.0000000            0.0005462
 Dipole Z            :          0.0000000            0.0000000            0.0000000
 Magnitude           :                                                    0.0006982
  Basis Set: (AUG-CC-PVTZ AUX)
    Blend: AUG-CC-PVTZ-RI + DEF2-QZVPP-RI
	 Reference Energy          =    -459.5735388777655430 [Eh]
	 Singles Energy            =      -0.0000000000000000 [Eh]
	 Same-Spin Energy          =      -0.0630425935429118 [Eh]
	 Opposite-Spin Energy      =      -0.1815161655510734 [Eh]
	 Correlation Energy        =      -0.2445587590939852 [Eh]
	 Total Energy              =    -459.8180976368595338 [Eh]

	 ================> DF-SCS-MP2 Energies <==================
	-----------------------------------------------------------
	 SCS Same-Spin Scale       =       0.3333333333333333 [-]
	 SCS Opposite-Spin Scale   =       1.2000000000000000 [-]
	 SCS Same-Spin Energy      =      -0.0210141978476373 [Eh]
	 SCS Opposite-Spin Energy  =      -0.2178193986612880 [Eh]
	 SCS Correlation Energy    =      -0.2388335965089253 [Eh]
	 SCS Total Energy          =    -459.8123724742744685 [Eh]
	-----------------------------------------------------------

*** Psi4 exiting successfully. Buy a developer a beer!
