                               Psi4 1.8.2 release

  ==> Input File <==

--------------------------------------------------------------------------
MEMORY 60 GB

molecule dimer {
1 1
Cl         0.000000     0.000000     0.000000
Li         0.000000     2.029797     0.000000
Li         4.059594     0.000000     0.000000

units ang
no_reorient
no_com
symmetry c1
}

set {
basis        aug-cc-pVTZ
scf_type     df
}

energy("mp2")
--------------------------------------------------------------------------

    Molecular point group: c1

    Geometry (in Angstrom), charge = 1, multiplicity = 1:

       Center              X                  Y                   Z               Mass
    ------------   -----------------  -----------------  -----------------  -----------------
         CL           0.000000000000     0.000000000000     0.000000000000    34.968852682000
         LI           0.000000000000     2.029797000000     0.000000000000     7.016003436600
         LI           4.059594000000     0.000000000000     0.000000000000     7.016003436600

  Charge       = 1
  Multiplicity = 1
  Basis Set: AUG-CC-PVTZ
    Blend: AUG-CC-PVTZ
  Basis Set: (AUG-CC-PVTZ AUX)
    Blend: AUG-CC-PVTZ-JKFIT + DEF2-UNIVERSAL-JKFIT

    Orbital Energies [Eh]
    ---------------------

    Doubly Occupied:

       1A   -104.864919     2A    -10.590294     3A     -8.056402
       4A     -8.056237     5A     -8.056098     6A     -2.769780
       7A     -2.601496     8A     -1.105973     9A     -0.539540
      10A     -0.514649    11A     -0.511965

  @DF-RHF Final Energy:  -474.30550281695992

   => Energetics <=

    Nuclear Repulsion Energy =             20.9932095690447511
    One-Electron Energy =                -695.2627173084410970
    Two-Electron Energy =                 199.9640049224364589
    Total Energy =                       -474.3055028169598586
 Dipole X            :        -15.7981740           23.0145625            7.2163885
 Dipole Y            :         -8.6125364           11.5072813            2.8947449
 Dipole Z            :          0.0000000            0.0000000            0.0000000
 Magnitude           :                                                    7.7753335
  Basis Set: (AUG-CC-PVTZ AUX)
    Blend: AUG-CC-PVTZ-RI + DEF2-QZVPP-RI
	 Reference Energy          =    -474.3055028169599154 [Eh]
	 Singles Energy            =      -0.0000000000000000 [Eh]
	 Same-Spin Energy          =      -0.0628978127149329 [Eh]
	 Opposite-Spin Energy      =      -0.2043278374198295 [Eh]
	 Correlation Energy        =      -0.2672256501347624 [Eh]
	 Total Energy              =    -474.5727284670946915 [Eh]

	 ================> DF-SCS-MP2 Energies <==================
	-----------------------------------------------------------
	 SCS Same-Spin Scale       =       0.3333333333333333 [-]
	 SCS Opposite-Spin Scale   =       1.2000000000000000 [-]
	 SCS Same-Spin Energy      =      -0.0209659375716443 [Eh]
	 SCS Opposite-Spin Energy  =      -0.2451934049037954 [Eh]
	 SCS Correlation Energy    =      -0.2661593424754397 [Eh]
	 SCS Total Energy          =    -474.5716621594353342 [Eh]
	-----------------------------------------------------------

*** Psi4 exiting successfully. Buy a developer a beer!
