                               Psi4 1.9 release

  ==> Input File <==

--------------------------------------------------------------------------
MEMORY 60 GB

molecule dimer {
0 1
Cl     0.000000     0.000000     0.000000
Li     0.000000     2.029797     0.000000
--
1 1
Li     2.232777     0.000000     0.000000

units ang
no_reorient
no_com
symmetry c1
}

set {
basis        aug-cc-pVTZ
scf_type     df
}

energy("mp2", bsse_type="cp")
--------------------------------------------------------------------------

                               Psi4 1.9 release
    Molecular point group: c1
  Charge       = 1
  Multiplicity = 1
  Basis Set: AUG-CC-PVTZ
    Blend: AUG-CC-PVTZ
  Basis Set: (AUG-CC-PVTZ AUX)
    Blend: AUG-CC-PVTZ-JKFIT + DEF2-UNIVERSAL-JKFIT
  @DF-RHF Final Energy:    -7.23638329407662
    Total Energy =                         -7.2363832940766191
 Dipole X            :         -8.4387168           12.6580111            4.2192943
 Dipole Y            :          0.0000220            0.0000000            0.0000220
 Dipole Z            :          0.0000000            0.0000000            0.0000000
 Magnitude           :                                                    4.2192943
  Basis Set: (AUG-CC-PVTZ AUX)
    Blend: AUG-CC-PVTZ-RI + DEF2-QZVPP-RI
	 Reference Energy          =      -7.2363832940766191 [Eh]
	 Singles Energy            =      -0.0000000000000000 [Eh]
	 Same-Spin Energy          =      -0.0000000000000000 [Eh]
	 Opposite-Spin Energy      =      -0.0125036541850985 [Eh]
	 Correlation Energy        =      -0.0125036541850985 [Eh]
	 Total Energy              =      -7.2488869482617178 [Eh]
	 SCS Total Energy          =      -7.2513876790987375 [Eh]
                               Psi4 1.9 release
    Molecular point group: c1
  Multiplicity = 1
  Basis Set: AUG-CC-PVTZ
    Blend: AUG-CC-PVTZ
  Basis Set: (AUG-CC-PVTZ AUX)
    Blend: AUG-CC-PVTZ-JKFIT + DEF2-UNIVERSAL-JKFIT
  @DF-RHF Final Energy:  -467.05213007580539
    Total Energy =                       -467.0521300758054508
  Basis Set: (AUG-CC-PVTZ AUX)
	 Singles Energy            =      -0.0000000000000000 [Eh]
	 Same-Spin Energy          =      -0.0630388549893282 [Eh]
	 Opposite-Spin Energy      =      -0.1938871312777663 [Eh]
	 Correlation Energy        =      -0.2569259862670946 [Eh]
	 Total Energy              =    -467.3090560620725000 [Eh]
	 SCS Total Energy          =    -467.3058075850018440 [Eh]
                               Psi4 1.9 release
    Molecular point group: c1

    Geometry (in Bohr), charge = 1, multiplicity = 1:

       Center              X                  Y                   Z               Mass
    ------------   -----------------  -----------------  -----------------  -----------------
         CL           0.000000000000     0.000000000000     0.000000000000    34.968852682000
         LI           0.000000000000     3.835760420276     0.000000000000     7.016003436600
         LI           4.219337029221     0.000000000000     0.000000000000     7.016003436600

  Charge       = 1
  Multiplicity = 1
  Basis Set: AUG-CC-PVTZ
    Blend: AUG-CC-PVTZ
  Basis Set: (AUG-CC-PVTZ AUX)
    Blend: AUG-CC-PVTZ-JKFIT + DEF2-UNIVERSAL-JKFIT

    Orbital Energies [Eh]
    ---------------------

    Doubly Occupied:

       1A   -104.951751     2A    -10.677931     3A     -8.144034
       4A     -8.143902     5A     -8.143668     6A     -2.685860
       7A     -2.663371     8A     -1.200497     9A     -0.627952
      10A     -0.622798    11A     -0.599929

  @DF-RHF Final Energy:  -474.34919493158657

   => Energetics <=

    Nuclear Repulsion Energy =             26.9614557489220452
    One-Electron Energy =                -705.6979144207557511
    Two-Electron Energy =                 204.3872637402471355
    Total Energy =                       -474.3491949315865668
 Dipole X            :         -9.3132732           12.6580111            3.3447379
 Dipole Y            :         -8.5547049           11.5072813            2.9525764
 Dipole Z            :          0.0000000            0.0000000            0.0000000
 Magnitude           :                                                    4.4614996
  Basis Set: (AUG-CC-PVTZ AUX)
    Blend: AUG-CC-PVTZ-RI + DEF2-QZVPP-RI
	 Reference Energy          =    -474.3491949315865668 [Eh]
	 Singles Energy            =      -0.0000000000000000 [Eh]
	 Same-Spin Energy          =      -0.0630984967559250 [Eh]
	 Opposite-Spin Energy      =      -0.2062961344625690 [Eh]
	 Correlation Energy        =      -0.2693946312184939 [Eh]
	 Total Energy              =    -474.6185895628050844 [Eh]

	 ================> DF-SCS-MP2 Energies <==================
	-----------------------------------------------------------
	 SCS Same-Spin Scale       =       0.3333333333333333 [-]
	 SCS Opposite-Spin Scale   =       1.2000000000000000 [-]
	 SCS Same-Spin Energy      =      -0.0210328322519750 [Eh]
	 SCS Opposite-Spin Energy  =      -0.2475553613550828 [Eh]
	 SCS Correlation Energy    =      -0.2685881936070578 [Eh]
	 SCS Total Energy          =    -474.6177831251936254 [Eh]
	-----------------------------------------------------------

*** Psi4 exiting successfully. Buy a developer a beer!
