                               Psi4 1.8.2 release

  ==> Input File <==

--------------------------------------------------------------------------
MEMORY 60 GB

molecule dimer {
1 1
Li     0.000000     0.000000     0.000000
--
-1 1
Cl     0.000000     2.029797     0.000000
--
-1 1
Cl     3.044695     0.000000     0.000000

units ang
no_reorient
no_com
symmetry c1
}

set {
basis        aug-cc-pVTZ
scf_type     df
}

energy("mp2", bsse_type="cp")
--------------------------------------------------------------------------

                               Psi4 1.8.2 release
    Molecular point group: c1
  Charge       = 1
  Multiplicity = 1
  Basis Set: AUG-CC-PVTZ
    Blend: AUG-CC-PVTZ
  Basis Set: (AUG-CC-PVTZ AUX)
    Blend: AUG-CC-PVTZ-JKFIT + DEF2-UNIVERSAL-JKFIT
  @DF-RHF Final Energy:    -7.23638334705665
    Total Energy =                         -7.2363833470566554
 Dipole X            :          0.0000307            0.0000000            0.0000307
 Dipole Y            :          0.0000290            0.0000000            0.0000290
 Dipole Z            :          0.0000000            0.0000000            0.0000000
 Magnitude           :                                                    0.0000422
  Basis Set: (AUG-CC-PVTZ AUX)
    Blend: AUG-CC-PVTZ-RI + DEF2-QZVPP-RI
	 Reference Energy          =      -7.2363833470566545 [Eh]
	 Singles Energy            =      -0.0000000000000000 [Eh]
	 Same-Spin Energy          =       0.0000000000000000 [Eh]
	 Opposite-Spin Energy      =      -0.0128764706468896 [Eh]
	 Correlation Energy        =      -0.0128764706468896 [Eh]
	 Total Energy              =      -7.2492598177035443 [Eh]
	 SCS Total Energy          =      -7.2518351118329223 [Eh]
                               Psi4 1.8.2 release
    Molecular point group: c1
  Basis Set: AUG-CC-PVTZ
    Blend: AUG-CC-PVTZ
  Basis Set: (AUG-CC-PVTZ AUX)
    Blend: AUG-CC-PVTZ-JKFIT + DEF2-UNIVERSAL-JKFIT
  @DF-RHF Final Energy:  -459.57352225188890
    Total Energy =                       -459.5735222518888463
  Basis Set: (AUG-CC-PVTZ AUX)
                               Psi4 1.8.2 release
  @DF-RHF Final Energy:  -919.01207186348859
    Total Energy =                       -919.0120718634885861
                               Psi4 1.8.2 release
  @DF-RHF Final Energy:  -466.99654664167724
    Total Energy =                       -466.9965466416772415
                               Psi4 1.8.2 release
  @DF-RHF Final Energy:  -467.05206946737849
    Total Energy =                       -467.0520694673784874
                               Psi4 1.8.2 release
  Multiplicity = 1
  @DF-RHF Final Energy:  -459.57350364578582
    Total Energy =                       -459.5735036457857632
	 Singles Energy            =      -0.0000000000000000 [Eh]
	 Same-Spin Energy          =      -0.0625555830335785 [Eh]
	 Opposite-Spin Energy      =      -0.1796224433732197 [Eh]
	 Correlation Energy        =      -0.2421780264067982 [Eh]
	 Total Energy              =    -459.8156816721926248 [Eh]
	 SCS Total Energy          =    -459.8099024388448584 [Eh]
                               Psi4 1.8.2 release
    Molecular point group: c1

    Geometry (in Bohr), charge = -1, multiplicity = 1:

       Center              X                  Y                   Z               Mass
    ------------   -----------------  -----------------  -----------------  -----------------
         LI           0.000000000000     0.000000000000     0.000000000000     7.016003436600
         CL           0.000000000000     3.835760420276     0.000000000000    34.968852682000
         CL           5.753639685551     0.000000000000     0.000000000000    34.968852682000

  Charge       = -1
  Multiplicity = 1
  Basis Set: AUG-CC-PVTZ
    Blend: AUG-CC-PVTZ
  Basis Set: (AUG-CC-PVTZ AUX)
    Blend: AUG-CC-PVTZ-JKFIT + DEF2-UNIVERSAL-JKFIT

    Orbital Energies [Eh]
    ---------------------

    Doubly Occupied:

       1A   -104.582560     2A   -104.534808     3A    -10.308480
       4A    -10.258414     5A     -7.774671     6A     -7.774437
       7A     -7.774362     8A     -7.724533     9A     -7.724416
      10A     -7.724355    11A     -2.312251    12A     -0.826645
      13A     -0.762832    14A     -0.262785    15A     -0.237018
      16A     -0.235728    17A     -0.181834    18A     -0.178107
      19A     -0.173348

  @DF-RHF Final Energy:  -926.64967066712200

   => Energetics <=

    Nuclear Repulsion Energy =             63.9529985296925929
    One-Electron Energy =               -1418.5021659288856881
    Two-Electron Energy =                 427.8994967320710430
    Total Energy =                       -926.6496706671219954
 Dipole X            :       -102.8686864           97.8118747           -5.0568117
 Dipole Y            :        -68.0920981           65.2079271           -2.8841709
 Dipole Z            :          0.0000000            0.0000000            0.0000000
 Magnitude           :                                                    5.8214935
  Basis Set: (AUG-CC-PVTZ AUX)
    Blend: AUG-CC-PVTZ-RI + DEF2-QZVPP-RI
	 Reference Energy          =    -926.6496706671219954 [Eh]
	 Singles Energy            =      -0.0000000000000000 [Eh]
	 Same-Spin Energy          =      -0.1268803254145549 [Eh]
	 Opposite-Spin Energy      =      -0.3741362637930614 [Eh]
	 Correlation Energy        =      -0.5010165892076163 [Eh]
	 Total Energy              =    -927.1506872563296611 [Eh]

	 ================> DF-SCS-MP2 Energies <==================
	-----------------------------------------------------------
	 SCS Same-Spin Scale       =       0.3333333333333333 [-]
	 SCS Opposite-Spin Scale   =       1.2000000000000000 [-]
	 SCS Same-Spin Energy      =      -0.0422934418048516 [Eh]
	 SCS Opposite-Spin Energy  =      -0.4489635165516736 [Eh]
	 SCS Correlation Energy    =      -0.4912569583565252 [Eh]
	 SCS Total Energy          =    -927.1409276254785254 [Eh]
	-----------------------------------------------------------

*** Psi4 exiting successfully. Buy a developer a beer!
