                               Psi4 1.8.2 release

  ==> Input File <==

--------------------------------------------------------------------------
MEMORY 60 GB

molecule dimer {
-1 1
Gh(Li)     0.000000     0.000000     0.000000
Cl         0.000000     2.029797     0.000000
Gh(Cl)     2.435756     0.000000     0.000000

units ang
no_reorient
no_com
symmetry c1
}

set {
basis        aug-cc-pVTZ
scf_type     df
}

energy("mp2")
--------------------------------------------------------------------------

    Molecular point group: c1

    Geometry (in Angstrom), charge = -1, multiplicity = 1:

       Center              X                  Y                   Z               Mass
    ------------   -----------------  -----------------  -----------------  -----------------
      Gh(LI)          0.000000000000     0.000000000000     0.000000000000     7.016003436600
         CL           0.000000000000     2.029797000000     0.000000000000    34.968852682000
      Gh(CL)          2.435756000000     0.000000000000     0.000000000000    34.968852682000

  Charge       = -1
  Multiplicity = 1
  Basis Set: AUG-CC-PVTZ
    Blend: AUG-CC-PVTZ
  Basis Set: (AUG-CC-PVTZ AUX)
    Blend: AUG-CC-PVTZ-JKFIT + DEF2-UNIVERSAL-JKFIT

    Orbital Energies [Eh]
    ---------------------

    Doubly Occupied:

       1A   -104.506659     2A    -10.229916     3A     -7.695977
       4A     -7.695966     5A     -7.695945     6A     -0.733493
       7A     -0.150328     8A     -0.150322     9A     -0.150321

  @DF-RHF Final Energy:  -459.57352385416340

   => Energetics <=

    Nuclear Repulsion Energy =              0.0000000000000000
    One-Electron Energy =                -641.1291908693576715
    Two-Electron Energy =                 181.5556670151942171
    Total Energy =                       -459.5735238541634544
 Dipole X            :          0.0001251            0.0000000            0.0001251
 Dipole Y            :        -69.0446614           65.2079271           -3.8367342
 Dipole Z            :          0.0000000            0.0000000            0.0000000
 Magnitude           :                                                    3.8367342
  Basis Set: (AUG-CC-PVTZ AUX)
    Blend: AUG-CC-PVTZ-RI + DEF2-QZVPP-RI
	 Reference Energy          =    -459.5735238541633976 [Eh]
	 Singles Energy            =      -0.0000000000000000 [Eh]
	 Same-Spin Energy          =      -0.0628454765265172 [Eh]
	 Opposite-Spin Energy      =      -0.1807428503438154 [Eh]
	 Correlation Energy        =      -0.2435883268703326 [Eh]
	 Total Energy              =    -459.8171121810337354 [Eh]

	 ================> DF-SCS-MP2 Energies <==================
	-----------------------------------------------------------
	 SCS Same-Spin Scale       =       0.3333333333333333 [-]
	 SCS Opposite-Spin Scale   =       1.2000000000000000 [-]
	 SCS Same-Spin Energy      =      -0.0209484921755057 [Eh]
	 SCS Opposite-Spin Energy  =      -0.2168914204125784 [Eh]
	 SCS Correlation Energy    =      -0.2378399125880842 [Eh]
	 SCS Total Energy          =    -459.8113637667514695 [Eh]
	-----------------------------------------------------------

*** Psi4 exiting successfully. Buy a developer a beer!
