                               Psi4 1.8.2 release

  ==> Input File <==

--------------------------------------------------------------------------
MEMORY 60 GB

molecule dimer {
-1 1
Gh(Li)     0.000000     0.000000     0.000000
Gh(Cl)     0.000000     2.029797     0.000000
Cl         2.029797     0.000000     0.000000

units ang
no_reorient
no_com
symmetry c1
}

set {
basis        aug-cc-pVTZ
scf_type     df
}

energy("mp2")
--------------------------------------------------------------------------

    Molecular point group: c1

    Geometry (in Angstrom), charge = -1, multiplicity = 1:

       Center              X                  Y                   Z               Mass
    ------------   -----------------  -----------------  -----------------  -----------------
      Gh(LI)          0.000000000000     0.000000000000     0.000000000000     7.016003436600
      Gh(CL)          0.000000000000     2.029797000000     0.000000000000    34.968852682000
         CL           2.029797000000     0.000000000000     0.000000000000    34.968852682000

  Charge       = -1
  Multiplicity = 1
  Basis Set: AUG-CC-PVTZ
    Blend: AUG-CC-PVTZ
  Basis Set: (AUG-CC-PVTZ AUX)
    Blend: AUG-CC-PVTZ-JKFIT + DEF2-UNIVERSAL-JKFIT

    Orbital Energies [Eh]
    ---------------------

    Doubly Occupied:

       1A   -104.506689     2A    -10.229925     3A     -7.695988
       4A     -7.695978     5A     -7.695954     6A     -0.733494
       7A     -0.150329     8A     -0.150323     9A     -0.150322

  @DF-RHF Final Energy:  -459.57352540714311

   => Energetics <=

    Nuclear Repulsion Energy =              0.0000000000000000
    One-Electron Energy =                -641.1290466688564038
    Two-Electron Energy =                 181.5555212617132668
    Total Energy =                       -459.5735254071431655
 Dipole X            :        -69.0446341           65.2079271           -3.8367069
 Dipole Y            :          0.0001373            0.0000000            0.0001373
 Dipole Z            :          0.0000000            0.0000000            0.0000000
 Magnitude           :                                                    3.8367069
  Basis Set: (AUG-CC-PVTZ AUX)
    Blend: AUG-CC-PVTZ-RI + DEF2-QZVPP-RI
	 Reference Energy          =    -459.5735254071431086 [Eh]
	 Singles Energy            =      -0.0000000000000000 [Eh]
	 Same-Spin Energy          =      -0.0628797059600937 [Eh]
	 Opposite-Spin Energy      =      -0.1809137368892169 [Eh]
	 Correlation Energy        =      -0.2437934428493106 [Eh]
	 Total Energy              =    -459.8173188499924322 [Eh]

	 ================> DF-SCS-MP2 Energies <==================
	-----------------------------------------------------------
	 SCS Same-Spin Scale       =       0.3333333333333333 [-]
	 SCS Opposite-Spin Scale   =       1.2000000000000000 [-]
	 SCS Same-Spin Energy      =      -0.0209599019866979 [Eh]
	 SCS Opposite-Spin Energy  =      -0.2170964842670603 [Eh]
	 SCS Correlation Energy    =      -0.2380563862537582 [Eh]
	 SCS Total Energy          =    -459.8115817933968401 [Eh]
	-----------------------------------------------------------

*** Psi4 exiting successfully. Buy a developer a beer!
