                               Psi4 1.8.2 release

  ==> Input File <==

--------------------------------------------------------------------------
MEMORY 60 GB

molecule dimer {
-1 1
Li         0.000000     0.000000     0.000000
Cl         0.000000     2.029797     0.000000
Cl         2.232777     0.000000     0.000000

units ang
no_reorient
no_com
symmetry c1
}

set {
basis        aug-cc-pVTZ
scf_type     df
}

energy("mp2")
--------------------------------------------------------------------------

    Molecular point group: c1

    Geometry (in Angstrom), charge = -1, multiplicity = 1:

       Center              X                  Y                   Z               Mass
    ------------   -----------------  -----------------  -----------------  -----------------
         LI           0.000000000000     0.000000000000     0.000000000000     7.016003436600
         CL           0.000000000000     2.029797000000     0.000000000000    34.968852682000
         CL           2.232777000000     0.000000000000     0.000000000000    34.968852682000

  Charge       = -1
  Multiplicity = 1
  Basis Set: AUG-CC-PVTZ
    Blend: AUG-CC-PVTZ
  Basis Set: (AUG-CC-PVTZ AUX)
    Blend: AUG-CC-PVTZ-JKFIT + DEF2-UNIVERSAL-JKFIT

    Orbital Energies [Eh]
    ---------------------

    Doubly Occupied:

       1A   -104.553507     2A   -104.546370     3A    -10.280097
       4A    -10.271705     5A     -7.746207     6A     -7.745977
       7A     -7.745949     8A     -7.737806     9A     -7.737643
      10A     -7.737614    11A     -2.255413    12A     -0.805816
      13A     -0.781776    14A     -0.255638    15A     -0.224596
      16A     -0.217814    17A     -0.208760    18A     -0.190301
      19A     -0.160818

  @DF-RHF Final Energy:  -926.65557589937362

   => Energetics <=

    Nuclear Repulsion Energy =             76.0647228527731727
    One-Electron Energy =               -1443.0329814809147138
    Two-Electron Energy =                 440.3126827287678680
    Total Energy =                       -926.6555758993736163
 Dipole X            :        -75.0644937           71.7287295           -3.3357642
 Dipole Y            :        -68.1367591           65.2079271           -2.9288319
 Dipole Z            :          0.0000000            0.0000000            0.0000000
 Magnitude           :                                                    4.4390742
  Basis Set: (AUG-CC-PVTZ AUX)
    Blend: AUG-CC-PVTZ-RI + DEF2-QZVPP-RI
	 Reference Energy          =    -926.6555758993736163 [Eh]
	 Singles Energy            =      -0.0000000000000000 [Eh]
	 Same-Spin Energy          =      -0.1292919596322794 [Eh]
	 Opposite-Spin Energy      =      -0.3776919294878531 [Eh]
	 Correlation Energy        =      -0.5069838891201325 [Eh]
	 Total Energy              =    -927.1625597884936951 [Eh]

	 ================> DF-SCS-MP2 Energies <==================
	-----------------------------------------------------------
	 SCS Same-Spin Scale       =       0.3333333333333333 [-]
	 SCS Opposite-Spin Scale   =       1.2000000000000000 [-]
	 SCS Same-Spin Energy      =      -0.0430973198774264 [Eh]
	 SCS Opposite-Spin Energy  =      -0.4532303153854237 [Eh]
	 SCS Correlation Energy    =      -0.4963276352628502 [Eh]
	 SCS Total Energy          =    -927.1519035346365172 [Eh]
	-----------------------------------------------------------

*** Psi4 exiting successfully. Buy a developer a beer!
