                               Psi4 1.9 release

  ==> Input File <==

--------------------------------------------------------------------------
MEMORY 60 GB

molecule dimer {
0 1
Li     0.000000     0.000000     0.000000
Cl     0.000000     2.029797     0.000000
--
-1 1
Cl     2.638736     0.000000     0.000000

units ang
no_reorient
no_com
symmetry c1
}

set {
basis        aug-cc-pVTZ
scf_type     df
}

energy("mp2", bsse_type="cp")
--------------------------------------------------------------------------

                               Psi4 1.9 release
    Molecular point group: c1
  Charge       = -1
  Multiplicity = 1
  Basis Set: AUG-CC-PVTZ
    Blend: AUG-CC-PVTZ
  Basis Set: (AUG-CC-PVTZ AUX)
    Blend: AUG-CC-PVTZ-JKFIT + DEF2-UNIVERSAL-JKFIT
  @DF-RHF Final Energy:  -459.57351044977872
    Total Energy =                       -459.5735104497787233
 Dipole X            :        -89.7574081           84.7703021           -4.9871061
 Dipole Y            :          0.0001215            0.0000000            0.0001215
 Dipole Z            :          0.0000000            0.0000000            0.0000000
 Magnitude           :                                                    4.9871061
  Basis Set: (AUG-CC-PVTZ AUX)
    Blend: AUG-CC-PVTZ-RI + DEF2-QZVPP-RI
	 Reference Energy          =    -459.5735104497787233 [Eh]
	 Singles Energy            =      -0.0000000000000000 [Eh]
	 Same-Spin Energy          =      -0.0626538997965664 [Eh]
	 Opposite-Spin Energy      =      -0.1800092942579095 [Eh]
	 Correlation Energy        =      -0.2426631940544759 [Eh]
	 Total Energy              =    -459.8161736438332241 [Eh]
	 SCS Total Energy          =    -459.8104062361537103 [Eh]
                               Psi4 1.9 release
    Molecular point group: c1
  Multiplicity = 1
  Basis Set: AUG-CC-PVTZ
    Blend: AUG-CC-PVTZ
  Basis Set: (AUG-CC-PVTZ AUX)
    Blend: AUG-CC-PVTZ-JKFIT + DEF2-UNIVERSAL-JKFIT
  @DF-RHF Final Energy:  -467.05208560326400
    Total Energy =                       -467.0520856032640040
  Basis Set: (AUG-CC-PVTZ AUX)
	 Singles Energy            =      -0.0000000000000000 [Eh]
	 Same-Spin Energy          =      -0.0628425200021193 [Eh]
	 Opposite-Spin Energy      =      -0.1932038211148539 [Eh]
	 Correlation Energy        =      -0.2560463411169732 [Eh]
	 Total Energy              =    -467.3081319443809889 [Eh]
	 SCS Total Energy          =    -467.3048776952692265 [Eh]
                               Psi4 1.9 release
    Molecular point group: c1

    Geometry (in Bohr), charge = -1, multiplicity = 1:

       Center              X                  Y                   Z               Mass
    ------------   -----------------  -----------------  -----------------  -----------------
         LI           0.000000000000     0.000000000000     0.000000000000     7.016003436600
         CL           0.000000000000     3.835760420276     0.000000000000    34.968852682000
         CL           4.986488357386     0.000000000000     0.000000000000    34.968852682000

  Charge       = -1
  Multiplicity = 1
  Basis Set: AUG-CC-PVTZ
    Blend: AUG-CC-PVTZ
  Basis Set: (AUG-CC-PVTZ AUX)
    Blend: AUG-CC-PVTZ-JKFIT + DEF2-UNIVERSAL-JKFIT

    Orbital Energies [Eh]
    ---------------------

    Doubly Occupied:

       1A   -104.568388     2A   -104.541835     3A    -10.294544
       4A    -10.265809     5A     -7.760708     6A     -7.760483
       7A     -7.760415     8A     -7.731937     9A     -7.731802
      10A     -7.731737    11A     -2.286297    12A     -0.814125
      13A     -0.772546    14A     -0.253090    15A     -0.231266
      16A     -0.224146    17A     -0.193412    18A     -0.185810
      19A     -0.172236

  @DF-RHF Final Energy:  -926.65602467088968

   => Energetics <=

    Nuclear Repulsion Energy =             69.4613728714481624
    One-Electron Energy =               -1429.6736206433761254
    Two-Electron Energy =                 433.5562231010381993
    Total Energy =                       -926.6560246708896784
 Dipole X            :        -88.9466215           84.7703021           -4.1763194
 Dipole Y            :        -68.1091943           65.2079271           -2.9012672
 Dipole Z            :          0.0000000            0.0000000            0.0000000
 Magnitude           :                                                    5.0851740
  Basis Set: (AUG-CC-PVTZ AUX)
    Blend: AUG-CC-PVTZ-RI + DEF2-QZVPP-RI
	 Reference Energy          =    -926.6560246708896784 [Eh]
	 Singles Energy            =      -0.0000000000000000 [Eh]
	 Same-Spin Energy          =      -0.1278399823176907 [Eh]
	 Opposite-Spin Energy      =      -0.3755589321378035 [Eh]
	 Correlation Energy        =      -0.5033989144554942 [Eh]
	 Total Energy              =    -927.1594235853451664 [Eh]

	 ================> DF-SCS-MP2 Energies <==================
	-----------------------------------------------------------
	 SCS Same-Spin Scale       =       0.3333333333333333 [-]
	 SCS Opposite-Spin Scale   =       1.2000000000000000 [-]
	 SCS Same-Spin Energy      =      -0.0426133274392302 [Eh]
	 SCS Opposite-Spin Energy  =      -0.4506707185653642 [Eh]
	 SCS Correlation Energy    =      -0.4932840460045944 [Eh]
	 SCS Total Energy          =    -927.1493087168943248 [Eh]
	-----------------------------------------------------------

*** Psi4 exiting successfully. Buy a developer a beer!
