                               Psi4 1.8.2 release

  ==> Input File <==

--------------------------------------------------------------------------
MEMORY 60 GB

molecule dimer {
-1 1
Gh(Li)     0.000000     0.000000     0.000000
Gh(Cl)     0.000000     2.029797     0.000000
Cl         2.435756     0.000000     0.000000

units ang
no_reorient
no_com
symmetry c1
}

set {
basis        aug-cc-pVTZ
scf_type     df
}

energy("mp2")
--------------------------------------------------------------------------

    Molecular point group: c1

    Geometry (in Angstrom), charge = -1, multiplicity = 1:

       Center              X                  Y                   Z               Mass
    ------------   -----------------  -----------------  -----------------  -----------------
      Gh(LI)          0.000000000000     0.000000000000     0.000000000000     7.016003436600
      Gh(CL)          0.000000000000     2.029797000000     0.000000000000    34.968852682000
         CL           2.435756000000     0.000000000000     0.000000000000    34.968852682000

  Charge       = -1
  Multiplicity = 1
  Basis Set: AUG-CC-PVTZ
    Blend: AUG-CC-PVTZ
  Basis Set: (AUG-CC-PVTZ AUX)
    Blend: AUG-CC-PVTZ-JKFIT + DEF2-UNIVERSAL-JKFIT

    Orbital Energies [Eh]
    ---------------------

    Doubly Occupied:

       1A   -104.506506     2A    -10.229878     3A     -7.695935
       4A     -7.695928     5A     -7.695904     6A     -0.733498
       7A     -0.150336     8A     -0.150323     9A     -0.150322

  @DF-RHF Final Energy:  -459.57351480543713

   => Energetics <=

    Nuclear Repulsion Energy =              0.0000000000000000
    One-Electron Energy =                -641.1297653318865741
    Two-Electron Energy =                 181.5562505264495030
    Total Energy =                       -459.5735148054370711
 Dipole X            :        -82.8531574           78.2494997           -4.6036576
 Dipole Y            :          0.0001398            0.0000000            0.0001398
 Dipole Z            :          0.0000000            0.0000000            0.0000000
 Magnitude           :                                                    4.6036576
  Basis Set: (AUG-CC-PVTZ AUX)
    Blend: AUG-CC-PVTZ-RI + DEF2-QZVPP-RI
	 Reference Energy          =    -459.5735148054371280 [Eh]
	 Singles Energy            =      -0.0000000000000000 [Eh]
	 Same-Spin Energy          =      -0.0627169476950085 [Eh]
	 Opposite-Spin Energy      =      -0.1802589945151798 [Eh]
	 Correlation Energy        =      -0.2429759422101884 [Eh]
	 Total Energy              =    -459.8164907476473218 [Eh]

	 ================> DF-SCS-MP2 Energies <==================
	-----------------------------------------------------------
	 SCS Same-Spin Scale       =       0.3333333333333333 [-]
	 SCS Opposite-Spin Scale   =       1.2000000000000000 [-]
	 SCS Same-Spin Energy      =      -0.0209056492316695 [Eh]
	 SCS Opposite-Spin Energy  =      -0.2163107934182158 [Eh]
	 SCS Correlation Energy    =      -0.2372164426498853 [Eh]
	 SCS Total Energy          =    -459.8107312480869950 [Eh]
	-----------------------------------------------------------

*** Psi4 exiting successfully. Buy a developer a beer!
