                               Psi4 1.8.2 release

  ==> Input File <==

--------------------------------------------------------------------------
MEMORY 60 GB

molecule dimer {
-1 1
Gh(Li)     0.000000     0.000000     0.000000
Gh(Cl)     0.000000     2.029797     0.000000
Cl         4.059594     0.000000     0.000000

units ang
no_reorient
no_com
symmetry c1
}

set {
basis        aug-cc-pVTZ
scf_type     df
}

energy("mp2")
--------------------------------------------------------------------------

    Molecular point group: c1

    Geometry (in Angstrom), charge = -1, multiplicity = 1:

       Center              X                  Y                   Z               Mass
    ------------   -----------------  -----------------  -----------------  -----------------
      Gh(LI)          0.000000000000     0.000000000000     0.000000000000     7.016003436600
      Gh(CL)          0.000000000000     2.029797000000     0.000000000000    34.968852682000
         CL           4.059594000000     0.000000000000     0.000000000000    34.968852682000

  Charge       = -1
  Multiplicity = 1
  Basis Set: AUG-CC-PVTZ
    Blend: AUG-CC-PVTZ
  Basis Set: (AUG-CC-PVTZ AUX)
    Blend: AUG-CC-PVTZ-JKFIT + DEF2-UNIVERSAL-JKFIT

    Orbital Energies [Eh]
    ---------------------

    Doubly Occupied:

       1A   -104.506114     2A    -10.229781     3A     -7.695822
       4A     -7.695821     5A     -7.695808     6A     -0.733510
       7A     -0.150339     8A     -0.150334     9A     -0.150333

  @DF-RHF Final Energy:  -459.57349136316088

   => Energetics <=

    Nuclear Repulsion Energy =              0.0000000000000000
    One-Electron Energy =                -641.1312580375789594
    Two-Electron Energy =                 181.5577666744180760
    Total Energy =                       -459.5734913631608833
 Dipole X            :       -138.0875685          130.4158543           -7.6717142
 Dipole Y            :         -0.0001026            0.0000000           -0.0001026
 Dipole Z            :         -0.0000000            0.0000000           -0.0000000
 Magnitude           :                                                    7.6717142
  Basis Set: (AUG-CC-PVTZ AUX)
    Blend: AUG-CC-PVTZ-RI + DEF2-QZVPP-RI
	 Reference Energy          =    -459.5734913631608833 [Eh]
	 Singles Energy            =      -0.0000000000000000 [Eh]
	 Same-Spin Energy          =      -0.0623935454777900 [Eh]
	 Opposite-Spin Energy      =      -0.1790492698606231 [Eh]
	 Correlation Energy        =      -0.2414428153384131 [Eh]
	 Total Energy              =    -459.8149341784992998 [Eh]

	 ================> DF-SCS-MP2 Energies <==================
	-----------------------------------------------------------
	 SCS Same-Spin Scale       =       0.3333333333333333 [-]
	 SCS Opposite-Spin Scale   =       1.2000000000000000 [-]
	 SCS Same-Spin Energy      =      -0.0207978484925967 [Eh]
	 SCS Opposite-Spin Energy  =      -0.2148591238327477 [Eh]
	 SCS Correlation Energy    =      -0.2356569723253444 [Eh]
	 SCS Total Energy          =    -459.8091483354862135 [Eh]
	-----------------------------------------------------------

*** Psi4 exiting successfully. Buy a developer a beer!
