                               Psi4 1.8.2 release

  ==> Input File <==

--------------------------------------------------------------------------
MEMORY 60 GB

molecule dimer {
-1 1
Gh(Li)     0.000000     0.000000     0.000000
Gh(Cl)     0.000000     2.029797     0.000000
Cl         2.638736     0.000000     0.000000

units ang
no_reorient
no_com
symmetry c1
}

set {
basis        aug-cc-pVTZ
scf_type     df
}

energy("mp2")
--------------------------------------------------------------------------

    Molecular point group: c1

    Geometry (in Angstrom), charge = -1, multiplicity = 1:

       Center              X                  Y                   Z               Mass
    ------------   -----------------  -----------------  -----------------  -----------------
      Gh(LI)          0.000000000000     0.000000000000     0.000000000000     7.016003436600
      Gh(CL)          0.000000000000     2.029797000000     0.000000000000    34.968852682000
         CL           2.638736000000     0.000000000000     0.000000000000    34.968852682000

  Charge       = -1
  Multiplicity = 1
  Basis Set: AUG-CC-PVTZ
    Blend: AUG-CC-PVTZ
  Basis Set: (AUG-CC-PVTZ AUX)
    Blend: AUG-CC-PVTZ-JKFIT + DEF2-UNIVERSAL-JKFIT

    Orbital Energies [Eh]
    ---------------------

    Doubly Occupied:

       1A   -104.506431     2A    -10.229859     3A     -7.695915
       4A     -7.695909     5A     -7.695884     6A     -0.733500
       7A     -0.150338     8A     -0.150324     9A     -0.150323

  @DF-RHF Final Energy:  -459.57351044979430

   => Energetics <=

    Nuclear Repulsion Energy =              0.0000000000000000
    One-Electron Energy =                -641.1300531690170601
    Two-Electron Energy =                 181.5565427192228185
    Total Energy =                       -459.5735104497942416
 Dipole X            :        -89.7574081           84.7703021           -4.9871061
 Dipole Y            :          0.0001215            0.0000000            0.0001215
 Dipole Z            :         -0.0000000            0.0000000           -0.0000000
 Magnitude           :                                                    4.9871061
  Basis Set: (AUG-CC-PVTZ AUX)
    Blend: AUG-CC-PVTZ-RI + DEF2-QZVPP-RI
	 Reference Energy          =    -459.5735104497942984 [Eh]
	 Singles Energy            =      -0.0000000000000000 [Eh]
	 Same-Spin Energy          =      -0.0626538997965569 [Eh]
	 Opposite-Spin Energy      =      -0.1800092942578891 [Eh]
	 Correlation Energy        =      -0.2426631940544460 [Eh]
	 Total Energy              =    -459.8161736438487424 [Eh]

	 ================> DF-SCS-MP2 Energies <==================
	-----------------------------------------------------------
	 SCS Same-Spin Scale       =       0.3333333333333333 [-]
	 SCS Opposite-Spin Scale   =       1.2000000000000000 [-]
	 SCS Same-Spin Energy      =      -0.0208846332655190 [Eh]
	 SCS Opposite-Spin Energy  =      -0.2160111531094669 [Eh]
	 SCS Correlation Energy    =      -0.2368957863749859 [Eh]
	 SCS Total Energy          =    -459.8104062361692854 [Eh]
	-----------------------------------------------------------

*** Psi4 exiting successfully. Buy a developer a beer!
