                               Psi4 1.8.2 release

  ==> Input File <==

--------------------------------------------------------------------------
MEMORY 60 GB

molecule dimer {
1 1
Li     0.000000     0.000000     0.000000
--
-1 1
Cl     0.000000     2.029797     0.000000
--
-1 1
Cl     2.841716     0.000000     0.000000

units ang
no_reorient
no_com
symmetry c1
}

set {
basis        aug-cc-pVTZ
scf_type     df
}

energy("mp2", bsse_type="cp")
--------------------------------------------------------------------------

                               Psi4 1.8.2 release
    Molecular point group: c1
  Charge       = 1
  Multiplicity = 1
  Basis Set: AUG-CC-PVTZ
    Blend: AUG-CC-PVTZ
  Basis Set: (AUG-CC-PVTZ AUX)
    Blend: AUG-CC-PVTZ-JKFIT + DEF2-UNIVERSAL-JKFIT
  @DF-RHF Final Energy:    -7.23638340237355
    Total Energy =                         -7.2363834023735549
 Dipole X            :          0.0000489            0.0000000            0.0000489
 Dipole Y            :          0.0000276            0.0000000            0.0000276
 Dipole Z            :          0.0000000            0.0000000            0.0000000
 Magnitude           :                                                    0.0000561
  Basis Set: (AUG-CC-PVTZ AUX)
    Blend: AUG-CC-PVTZ-RI + DEF2-QZVPP-RI
	 Reference Energy          =      -7.2363834023735549 [Eh]
	 Singles Energy            =      -0.0000000000000000 [Eh]
	 Same-Spin Energy          =       0.0000000000000000 [Eh]
	 Opposite-Spin Energy      =      -0.0129501992302273 [Eh]
	 Correlation Energy        =      -0.0129501992302273 [Eh]
	 Total Energy              =      -7.2493336016037819 [Eh]
	 SCS Total Energy          =      -7.2519236414498280 [Eh]
                               Psi4 1.8.2 release
    Molecular point group: c1
  Basis Set: AUG-CC-PVTZ
    Blend: AUG-CC-PVTZ
  Basis Set: (AUG-CC-PVTZ AUX)
    Blend: AUG-CC-PVTZ-JKFIT + DEF2-UNIVERSAL-JKFIT
  @DF-RHF Final Energy:  -459.57352305851828
    Total Energy =                       -459.5735230585182762
  Basis Set: (AUG-CC-PVTZ AUX)
                               Psi4 1.8.2 release
  @DF-RHF Final Energy:  -919.00595475156626
    Total Energy =                       -919.0059547515663780
                               Psi4 1.8.2 release
  @DF-RHF Final Energy:  -467.00953792972427
    Total Energy =                       -467.0095379297242744
                               Psi4 1.8.2 release
  @DF-RHF Final Energy:  -467.05207704136291
    Total Energy =                       -467.0520770413629066
                               Psi4 1.8.2 release
  Multiplicity = 1
  @DF-RHF Final Energy:  -459.57350677565108
    Total Energy =                       -459.5735067756510261
	 Singles Energy            =      -0.0000000000000000 [Eh]
	 Same-Spin Energy          =      -0.0626012330995922 [Eh]
	 Opposite-Spin Energy      =      -0.1798004378283389 [Eh]
	 Correlation Energy        =      -0.2424016709279311 [Eh]
	 Total Energy              =    -459.8159084465789874 [Eh]
	 SCS Total Energy          =    -459.8101343787449764 [Eh]
                               Psi4 1.8.2 release
    Molecular point group: c1

    Geometry (in Bohr), charge = -1, multiplicity = 1:

       Center              X                  Y                   Z               Mass
    ------------   -----------------  -----------------  -----------------  -----------------
         LI           0.000000000000     0.000000000000     0.000000000000     7.016003436600
         CL           0.000000000000     3.835760420276     0.000000000000    34.968852682000
         CL           5.370064966332     0.000000000000     0.000000000000    34.968852682000

  Charge       = -1
  Multiplicity = 1
  Basis Set: AUG-CC-PVTZ
    Blend: AUG-CC-PVTZ
  Basis Set: (AUG-CC-PVTZ AUX)
    Blend: AUG-CC-PVTZ-JKFIT + DEF2-UNIVERSAL-JKFIT

    Orbital Energies [Eh]
    ---------------------

    Doubly Occupied:

       1A   -104.575623     2A   -104.538416     3A    -10.301642
       4A    -10.262139     5A     -7.767823     6A     -7.767594
       7A     -7.767520     8A     -7.728265     9A     -7.728138
      10A     -7.728073    11A     -2.299994    12A     -0.820317
      13A     -0.767455    14A     -0.257274    15A     -0.233670
      16A     -0.229775    17A     -0.187182    18A     -0.181960
      19A     -0.173840

  @DF-RHF Final Energy:  -926.65303918324253

   => Energetics <=

    Nuclear Repulsion Energy =             66.5855973879897789
    One-Electron Energy =               -1423.8438707660118325
    Two-Electron Energy =                 430.6052341947795412
    Total Energy =                       -926.6530391832425266
 Dipole X            :        -95.9051878           91.2911044           -4.6140834
 Dipole Y            :        -68.0992073           65.2079271           -2.8912802
 Dipole Z            :          0.0000000            0.0000000            0.0000000
 Magnitude           :                                                    5.4451140
  Basis Set: (AUG-CC-PVTZ AUX)
    Blend: AUG-CC-PVTZ-RI + DEF2-QZVPP-RI
	 Reference Energy          =    -926.6530391832425266 [Eh]
	 Singles Energy            =      -0.0000000000000000 [Eh]
	 Same-Spin Energy          =      -0.1273130124577869 [Eh]
	 Opposite-Spin Energy      =      -0.3747791833392893 [Eh]
	 Correlation Energy        =      -0.5020921957970762 [Eh]
	 Total Energy              =    -927.1551313790396307 [Eh]

	 ================> DF-SCS-MP2 Energies <==================
	-----------------------------------------------------------
	 SCS Same-Spin Scale       =       0.3333333333333333 [-]
	 SCS Opposite-Spin Scale   =       1.2000000000000000 [-]
	 SCS Same-Spin Energy      =      -0.0424376708192623 [Eh]
	 SCS Opposite-Spin Energy  =      -0.4497350200071471 [Eh]
	 SCS Correlation Energy    =      -0.4921726908264094 [Eh]
	 SCS Total Energy          =    -927.1452118740689912 [Eh]
	-----------------------------------------------------------

*** Psi4 exiting successfully. Buy a developer a beer!
