                               Psi4 1.8.2 release

  ==> Input File <==

--------------------------------------------------------------------------
MEMORY 60 GB

molecule dimer {
-1 1
Gh(Li)     0.000000     0.000000     0.000000
Gh(Cl)     0.000000     2.029797     0.000000
Cl         2.232777     0.000000     0.000000

units ang
no_reorient
no_com
symmetry c1
}

set {
basis        aug-cc-pVTZ
scf_type     df
}

energy("mp2")
--------------------------------------------------------------------------

    Molecular point group: c1

    Geometry (in Angstrom), charge = -1, multiplicity = 1:

       Center              X                  Y                   Z               Mass
    ------------   -----------------  -----------------  -----------------  -----------------
      Gh(LI)          0.000000000000     0.000000000000     0.000000000000     7.016003436600
      Gh(CL)          0.000000000000     2.029797000000     0.000000000000    34.968852682000
         CL           2.232777000000     0.000000000000     0.000000000000    34.968852682000

  Charge       = -1
  Multiplicity = 1
  Basis Set: AUG-CC-PVTZ
    Blend: AUG-CC-PVTZ
  Basis Set: (AUG-CC-PVTZ AUX)
    Blend: AUG-CC-PVTZ-JKFIT + DEF2-UNIVERSAL-JKFIT

    Orbital Energies [Eh]
    ---------------------

    Doubly Occupied:

       1A   -104.506594     2A    -10.229900     3A     -7.695960
       4A     -7.695952     5A     -7.695928     6A     -0.733496
       7A     -0.150333     8A     -0.150323     9A     -0.150322

  @DF-RHF Final Energy:  -459.57351998419819

   => Energetics <=

    Nuclear Repulsion Energy =              0.0000000000000000
    One-Electron Energy =                -641.1294217870248531
    Two-Electron Energy =                 181.5559018028266678
    Total Energy =                       -459.5735199841981853
 Dipole X            :        -75.9489336           71.7287295           -4.2202041
 Dipole Y            :          0.0001543            0.0000000            0.0001543
 Dipole Z            :          0.0000000            0.0000000            0.0000000
 Magnitude           :                                                    4.2202042
  Basis Set: (AUG-CC-PVTZ AUX)
    Blend: AUG-CC-PVTZ-RI + DEF2-QZVPP-RI
	 Reference Energy          =    -459.5735199841981853 [Eh]
	 Singles Energy            =      -0.0000000000000000 [Eh]
	 Same-Spin Energy          =      -0.0627922175086705 [Eh]
	 Opposite-Spin Energy      =      -0.1805577192387621 [Eh]
	 Correlation Energy        =      -0.2433499367474326 [Eh]
	 Total Energy              =    -459.8168699209456349 [Eh]

	 ================> DF-SCS-MP2 Energies <==================
	-----------------------------------------------------------
	 SCS Same-Spin Scale       =       0.3333333333333333 [-]
	 SCS Opposite-Spin Scale   =       1.2000000000000000 [-]
	 SCS Same-Spin Energy      =      -0.0209307391695568 [Eh]
	 SCS Opposite-Spin Energy  =      -0.2166692630865145 [Eh]
	 SCS Correlation Energy    =      -0.2376000022560713 [Eh]
	 SCS Total Energy          =    -459.8111199864542300 [Eh]
	-----------------------------------------------------------

*** Psi4 exiting successfully. Buy a developer a beer!
