                               Psi4 1.8.2 release

  ==> Input File <==

--------------------------------------------------------------------------
MEMORY 60 GB

molecule dimer {
-1 1
Gh(Li)     0.000000     0.000000     0.000000
Cl         0.000000     2.029797     0.000000
Gh(Cl)     4.059594     0.000000     0.000000

units ang
no_reorient
no_com
symmetry c1
}

set {
basis        aug-cc-pVTZ
scf_type     df
}

energy("mp2")
--------------------------------------------------------------------------

    Molecular point group: c1

    Geometry (in Angstrom), charge = -1, multiplicity = 1:

       Center              X                  Y                   Z               Mass
    ------------   -----------------  -----------------  -----------------  -----------------
      Gh(LI)          0.000000000000     0.000000000000     0.000000000000     7.016003436600
         CL           0.000000000000     2.029797000000     0.000000000000    34.968852682000
      Gh(CL)          4.059594000000     0.000000000000     0.000000000000    34.968852682000

  Charge       = -1
  Multiplicity = 1
  Basis Set: AUG-CC-PVTZ
    Blend: AUG-CC-PVTZ
  Basis Set: (AUG-CC-PVTZ AUX)
    Blend: AUG-CC-PVTZ-JKFIT + DEF2-UNIVERSAL-JKFIT

    Orbital Energies [Eh]
    ---------------------

    Doubly Occupied:

       1A   -104.506587     2A    -10.229896     3A     -7.695952
       4A     -7.695948     5A     -7.695923     6A     -0.733493
       7A     -0.150328     8A     -0.150322     9A     -0.150322

  @DF-RHF Final Energy:  -459.57351998284025

   => Energetics <=

    Nuclear Repulsion Energy =              0.0000000000000000
    One-Electron Energy =                -641.1294955167885519
    Two-Electron Energy =                 181.5559755339482706
    Total Energy =                       -459.5735199828402529
 Dipole X            :         -0.0000510            0.0000000           -0.0000510
 Dipole Y            :        -69.0446525           65.2079271           -3.8367254
 Dipole Z            :          0.0000000            0.0000000            0.0000000
 Magnitude           :                                                    3.8367254
  Basis Set: (AUG-CC-PVTZ AUX)
    Blend: AUG-CC-PVTZ-RI + DEF2-QZVPP-RI
	 Reference Energy          =    -459.5735199828402529 [Eh]
	 Singles Energy            =      -0.0000000000000000 [Eh]
	 Same-Spin Energy          =      -0.0627874303369012 [Eh]
	 Opposite-Spin Energy      =      -0.1805125101037974 [Eh]
	 Correlation Energy        =      -0.2432999404406986 [Eh]
	 Total Energy              =    -459.8168199232809457 [Eh]

	 ================> DF-SCS-MP2 Energies <==================
	-----------------------------------------------------------
	 SCS Same-Spin Scale       =       0.3333333333333333 [-]
	 SCS Opposite-Spin Scale   =       1.2000000000000000 [-]
	 SCS Same-Spin Energy      =      -0.0209291434456337 [Eh]
	 SCS Opposite-Spin Energy  =      -0.2166150121245568 [Eh]
	 SCS Correlation Energy    =      -0.2375441555701906 [Eh]
	 SCS Total Energy          =    -459.8110641384104156 [Eh]
	-----------------------------------------------------------

*** Psi4 exiting successfully. Buy a developer a beer!
