                               Psi4 1.8.2 release

  ==> Input File <==

--------------------------------------------------------------------------
MEMORY 60 GB

molecule dimer {
-1 1
Li         0.000000     0.000000     0.000000
Cl         0.000000     2.029797     0.000000
Cl         2.435756     0.000000     0.000000

units ang
no_reorient
no_com
symmetry c1
}

set {
basis        aug-cc-pVTZ
scf_type     df
}

energy("mp2")
--------------------------------------------------------------------------

    Molecular point group: c1

    Geometry (in Angstrom), charge = -1, multiplicity = 1:

       Center              X                  Y                   Z               Mass
    ------------   -----------------  -----------------  -----------------  -----------------
         LI           0.000000000000     0.000000000000     0.000000000000     7.016003436600
         CL           0.000000000000     2.029797000000     0.000000000000    34.968852682000
         CL           2.435756000000     0.000000000000     0.000000000000    34.968852682000

  Charge       = -1
  Multiplicity = 1
  Basis Set: AUG-CC-PVTZ
    Blend: AUG-CC-PVTZ
  Basis Set: (AUG-CC-PVTZ AUX)
    Blend: AUG-CC-PVTZ-JKFIT + DEF2-UNIVERSAL-JKFIT

    Orbital Energies [Eh]
    ---------------------

    Doubly Occupied:

       1A   -104.560961     2A   -104.544667     3A    -10.287303
       4A    -10.269122     5A     -7.753444     6A     -7.753220
       7A     -7.753167     8A     -7.735243     9A     -7.735101
      10A     -7.735047    11A     -2.271284    12A     -0.808713
      13A     -0.777755    14A     -0.252121    15A     -0.228613
      16A     -0.219636    17A     -0.200623    18A     -0.189019
      19A     -0.167910

  @DF-RHF Final Energy:  -926.65757944128143

   => Energetics <=

    Nuclear Repulsion Energy =             72.6096747182242268
    One-Electron Energy =               -1436.0486092943763197
    Two-Electron Energy =                 436.7813551348708074
    Total Energy =                       -926.6575794412813138
 Dipole X            :        -81.9979207           78.2494997           -3.7484210
 Dipole Y            :        -68.1220104           65.2079271           -2.9140833
 Dipole Z            :          0.0000000            0.0000000            0.0000000
 Magnitude           :                                                    4.7478986
  Basis Set: (AUG-CC-PVTZ AUX)
    Blend: AUG-CC-PVTZ-RI + DEF2-QZVPP-RI
	 Reference Energy          =    -926.6575794412814275 [Eh]
	 Singles Energy            =      -0.0000000000000000 [Eh]
	 Same-Spin Energy          =      -0.1284868930547653 [Eh]
	 Opposite-Spin Energy      =      -0.3765130178425201 [Eh]
	 Correlation Energy        =      -0.5049999108972855 [Eh]
	 Total Energy              =    -927.1625793521786818 [Eh]

	 ================> DF-SCS-MP2 Energies <==================
	-----------------------------------------------------------
	 SCS Same-Spin Scale       =       0.3333333333333333 [-]
	 SCS Opposite-Spin Scale   =       1.2000000000000000 [-]
	 SCS Same-Spin Energy      =      -0.0428289643515884 [Eh]
	 SCS Opposite-Spin Energy  =      -0.4518156214110241 [Eh]
	 SCS Correlation Energy    =      -0.4946445857626126 [Eh]
	 SCS Total Energy          =    -927.1522240270439852 [Eh]
	-----------------------------------------------------------

*** Psi4 exiting successfully. Buy a developer a beer!
