                               Psi4 1.8.2 release

  ==> Input File <==

--------------------------------------------------------------------------
MEMORY 60 GB

molecule dimer {
1 1
Li     0.000000     0.000000     0.000000
--
-1 1
Cl     0.000000     2.029797     0.000000
--
-1 1
Cl     2.435756     0.000000     0.000000

units ang
no_reorient
no_com
symmetry c1
}

set {
basis        aug-cc-pVTZ
scf_type     df
}

energy("mp2", bsse_type="cp")
--------------------------------------------------------------------------

                               Psi4 1.8.2 release
    Molecular point group: c1
  Charge       = 1
  Multiplicity = 1
  Basis Set: AUG-CC-PVTZ
    Blend: AUG-CC-PVTZ
  Basis Set: (AUG-CC-PVTZ AUX)
    Blend: AUG-CC-PVTZ-JKFIT + DEF2-UNIVERSAL-JKFIT
  @DF-RHF Final Energy:    -7.23638342662013
    Total Energy =                         -7.2363834266201312
 Dipole X            :          0.0000575            0.0000000            0.0000575
 Dipole Y            :          0.0000238            0.0000000            0.0000238
 Dipole Z            :         -0.0000000            0.0000000           -0.0000000
 Magnitude           :                                                    0.0000622
  Basis Set: (AUG-CC-PVTZ AUX)
    Blend: AUG-CC-PVTZ-RI + DEF2-QZVPP-RI
	 Reference Energy          =      -7.2363834266201303 [Eh]
	 Singles Energy            =      -0.0000000000000000 [Eh]
	 Same-Spin Energy          =       0.0000000000000000 [Eh]
	 Opposite-Spin Energy      =      -0.0132980606510036 [Eh]
	 Correlation Energy        =      -0.0132980606510036 [Eh]
	 Total Energy              =      -7.2496814872711344 [Eh]
	 SCS Total Energy          =      -7.2523410994013346 [Eh]
                               Psi4 1.8.2 release
    Molecular point group: c1
  Basis Set: AUG-CC-PVTZ
    Blend: AUG-CC-PVTZ
  Basis Set: (AUG-CC-PVTZ AUX)
    Blend: AUG-CC-PVTZ-JKFIT + DEF2-UNIVERSAL-JKFIT
  @DF-RHF Final Energy:  -459.57352385416317
    Total Energy =                       -459.5735238541631134
  Basis Set: (AUG-CC-PVTZ AUX)
                               Psi4 1.8.2 release
  @DF-RHF Final Energy:  -918.99087240586562
    Total Energy =                       -918.9908724058657299
                               Psi4 1.8.2 release
  @DF-RHF Final Energy:  -467.03634899013184
    Total Energy =                       -467.0363489901318417
                               Psi4 1.8.2 release
  @DF-RHF Final Energy:  -467.05209488856622
    Total Energy =                       -467.0520948885662165
                               Psi4 1.8.2 release
  Multiplicity = 1
  @DF-RHF Final Energy:  -459.57351480543673
    Total Energy =                       -459.5735148054366732
	 Singles Energy            =      -0.0000000000000000 [Eh]
	 Same-Spin Energy          =      -0.0627169476950075 [Eh]
	 Opposite-Spin Energy      =      -0.1802589945151780 [Eh]
	 Correlation Energy        =      -0.2429759422101855 [Eh]
	 Total Energy              =    -459.8164907476469239 [Eh]
	 SCS Total Energy          =    -459.8107312480865971 [Eh]
                               Psi4 1.8.2 release
    Molecular point group: c1

    Geometry (in Bohr), charge = -1, multiplicity = 1:

       Center              X                  Y                   Z               Mass
    ------------   -----------------  -----------------  -----------------  -----------------
         LI           0.000000000000     0.000000000000     0.000000000000     7.016003436600
         CL           0.000000000000     3.835760420276     0.000000000000    34.968852682000
         CL           4.602911748441     0.000000000000     0.000000000000    34.968852682000

  Charge       = -1
  Multiplicity = 1
  Basis Set: AUG-CC-PVTZ
    Blend: AUG-CC-PVTZ
  Basis Set: (AUG-CC-PVTZ AUX)
    Blend: AUG-CC-PVTZ-JKFIT + DEF2-UNIVERSAL-JKFIT

    Orbital Energies [Eh]
    ---------------------

    Doubly Occupied:

       1A   -104.560961     2A   -104.544667     3A    -10.287303
       4A    -10.269122     5A     -7.753444     6A     -7.753220
       7A     -7.753167     8A     -7.735243     9A     -7.735101
      10A     -7.735047    11A     -2.271284    12A     -0.808713
      13A     -0.777755    14A     -0.252121    15A     -0.228613
      16A     -0.219636    17A     -0.200623    18A     -0.189019
      19A     -0.167910

  @DF-RHF Final Energy:  -926.65757944128188

   => Energetics <=

    Nuclear Repulsion Energy =             72.6096747182242268
    One-Electron Energy =               -1436.0486092943772292
    Two-Electron Energy =                 436.7813551348712053
    Total Energy =                       -926.6575794412818823
 Dipole X            :        -81.9979207           78.2494997           -3.7484210
 Dipole Y            :        -68.1220104           65.2079271           -2.9140833
 Dipole Z            :          0.0000000            0.0000000            0.0000000
 Magnitude           :                                                    4.7478986
  Basis Set: (AUG-CC-PVTZ AUX)
    Blend: AUG-CC-PVTZ-RI + DEF2-QZVPP-RI
	 Reference Energy          =    -926.6575794412818823 [Eh]
	 Singles Energy            =      -0.0000000000000000 [Eh]
	 Same-Spin Energy          =      -0.1284868930547662 [Eh]
	 Opposite-Spin Energy      =      -0.3765130178425274 [Eh]
	 Correlation Energy        =      -0.5049999108972937 [Eh]
	 Total Energy              =    -927.1625793521791365 [Eh]

	 ================> DF-SCS-MP2 Energies <==================
	-----------------------------------------------------------
	 SCS Same-Spin Scale       =       0.3333333333333333 [-]
	 SCS Opposite-Spin Scale   =       1.2000000000000000 [-]
	 SCS Same-Spin Energy      =      -0.0428289643515887 [Eh]
	 SCS Opposite-Spin Energy  =      -0.4518156214110329 [Eh]
	 SCS Correlation Energy    =      -0.4946445857626217 [Eh]
	 SCS Total Energy          =    -927.1522240270445536 [Eh]
	-----------------------------------------------------------

*** Psi4 exiting successfully. Buy a developer a beer!
