                               Psi4 1.9 release

  ==> Input File <==

--------------------------------------------------------------------------
MEMORY 60 GB

molecule dimer {
0 1
Li     0.000000     0.000000     0.000000
Cl     0.000000     2.029797     0.000000
--
-1 1
Cl     4.059594     0.000000     0.000000

units ang
no_reorient
no_com
symmetry c1
}

set {
basis        aug-cc-pVTZ
scf_type     df
}

energy("mp2", bsse_type="cp")
--------------------------------------------------------------------------

                               Psi4 1.9 release
    Molecular point group: c1
  Charge       = -1
  Multiplicity = 1
  Basis Set: AUG-CC-PVTZ
    Blend: AUG-CC-PVTZ
  Basis Set: (AUG-CC-PVTZ AUX)
    Blend: AUG-CC-PVTZ-JKFIT + DEF2-UNIVERSAL-JKFIT
  @DF-RHF Final Energy:  -459.57349136315668
    Total Energy =                       -459.5734913631566769
 Dipole X            :       -138.0875685          130.4158543           -7.6717142
 Dipole Y            :         -0.0001026            0.0000000           -0.0001026
 Dipole Z            :          0.0000000            0.0000000            0.0000000
 Magnitude           :                                                    7.6717142
  Basis Set: (AUG-CC-PVTZ AUX)
    Blend: AUG-CC-PVTZ-RI + DEF2-QZVPP-RI
	 Reference Energy          =    -459.5734913631566769 [Eh]
	 Singles Energy            =      -0.0000000000000000 [Eh]
	 Same-Spin Energy          =      -0.0623935454777899 [Eh]
	 Opposite-Spin Energy      =      -0.1790492698606241 [Eh]
	 Correlation Energy        =      -0.2414428153384141 [Eh]
	 Total Energy              =    -459.8149341784950934 [Eh]
	 SCS Total Energy          =    -459.8091483354820070 [Eh]
                               Psi4 1.9 release
    Molecular point group: c1
  Multiplicity = 1
  Basis Set: AUG-CC-PVTZ
    Blend: AUG-CC-PVTZ
  Basis Set: (AUG-CC-PVTZ AUX)
    Blend: AUG-CC-PVTZ-JKFIT + DEF2-UNIVERSAL-JKFIT
  @DF-RHF Final Energy:  -467.05205540318224
    Total Energy =                       -467.0520554031821803
  Basis Set: (AUG-CC-PVTZ AUX)
	 Singles Energy            =      -0.0000000000000000 [Eh]
	 Same-Spin Energy          =      -0.0627766997890461 [Eh]
	 Opposite-Spin Energy      =      -0.1926998400930506 [Eh]
	 Correlation Energy        =      -0.2554765398820967 [Eh]
	 Total Energy              =    -467.3075319430643617 [Eh]
	 SCS Total Energy          =    -467.3042207778902366 [Eh]
                               Psi4 1.9 release
    Molecular point group: c1

    Geometry (in Bohr), charge = -1, multiplicity = 1:

       Center              X                  Y                   Z               Mass
    ------------   -----------------  -----------------  -----------------  -----------------
         LI           0.000000000000     0.000000000000     0.000000000000     7.016003436600
         CL           0.000000000000     3.835760420276     0.000000000000    34.968852682000
         CL           7.671520840552     0.000000000000     0.000000000000    34.968852682000

  Charge       = -1
  Multiplicity = 1
  Basis Set: AUG-CC-PVTZ
    Blend: AUG-CC-PVTZ
  Basis Set: (AUG-CC-PVTZ AUX)
    Blend: AUG-CC-PVTZ-JKFIT + DEF2-UNIVERSAL-JKFIT

    Orbital Energies [Eh]
    ---------------------

    Doubly Occupied:

       1A   -104.611505     2A   -104.520162     3A    -10.337229
       4A    -10.243801     5A     -7.803431     6A     -7.803177
       7A     -7.803122     8A     -7.709877     9A     -7.709818
      10A     -7.709787    11A     -2.355363    12A     -0.854630
      13A     -0.747310    14A     -0.290104    15A     -0.262776
      16A     -0.260931    17A     -0.164867    18A     -0.163838
      19A     -0.163131

  @DF-RHF Final Energy:  -926.63689623066944

   => Energetics <=

    Nuclear Repulsion Energy =             53.6385765940740669
    One-Electron Energy =               -1397.5212228991761094
    Two-Electron Energy =                 417.2457500744326921
    Total Energy =                       -926.6368962306694357
 Dipole X            :       -137.6606769          130.4158543           -7.2448226
 Dipole Y            :        -68.0842391           65.2079271           -2.8763119
 Dipole Z            :          0.0000000            0.0000000            0.0000000
 Magnitude           :                                                    7.7949102
  Basis Set: (AUG-CC-PVTZ AUX)
    Blend: AUG-CC-PVTZ-RI + DEF2-QZVPP-RI
	 Reference Energy          =    -926.6368962306694357 [Eh]
	 Singles Energy            =      -0.0000000000000000 [Eh]
	 Same-Spin Energy          =      -0.1256408222161120 [Eh]
	 Opposite-Spin Energy      =      -0.3722415423985828 [Eh]
	 Correlation Energy        =      -0.4978823646146947 [Eh]
	 Total Energy              =    -927.1347785952841605 [Eh]

	 ================> DF-SCS-MP2 Energies <==================
	-----------------------------------------------------------
	 SCS Same-Spin Scale       =       0.3333333333333333 [-]
	 SCS Opposite-Spin Scale   =       1.2000000000000000 [-]
	 SCS Same-Spin Energy      =      -0.0418802740720373 [Eh]
	 SCS Opposite-Spin Energy  =      -0.4466898508782993 [Eh]
	 SCS Correlation Energy    =      -0.4885701249503366 [Eh]
	 SCS Total Energy          =    -927.1254663556197784 [Eh]
	-----------------------------------------------------------

*** Psi4 exiting successfully. Buy a developer a beer!
