                               Psi4 1.8.2 release

  ==> Input File <==

--------------------------------------------------------------------------
MEMORY 60 GB

molecule dimer {
1 1
Li     0.000000     0.000000     0.000000
--
-1 1
Cl     0.000000     2.029797     0.000000
--
-1 1
Cl     2.029797     0.000000     0.000000

units ang
no_reorient
no_com
symmetry c1
}

set {
basis        aug-cc-pVTZ
scf_type     df
}

energy("mp2", bsse_type="cp")
--------------------------------------------------------------------------

                               Psi4 1.8.2 release
    Molecular point group: c1
  Charge       = 1
  Multiplicity = 1
  Basis Set: AUG-CC-PVTZ
    Blend: AUG-CC-PVTZ
  Basis Set: (AUG-CC-PVTZ AUX)
    Blend: AUG-CC-PVTZ-JKFIT + DEF2-UNIVERSAL-JKFIT
  @DF-RHF Final Energy:    -7.23638359286964
    Total Energy =                         -7.2363835928696387
 Dipole X            :          0.0000210            0.0000000            0.0000210
 Dipole Y            :          0.0000210            0.0000000            0.0000210
 Dipole Z            :         -0.0000000            0.0000000           -0.0000000
 Magnitude           :                                                    0.0000297
  Basis Set: (AUG-CC-PVTZ AUX)
    Blend: AUG-CC-PVTZ-RI + DEF2-QZVPP-RI
	 Reference Energy          =      -7.2363835928696396 [Eh]
	 Singles Energy            =      -0.0000000000000000 [Eh]
	 Same-Spin Energy          =       0.0000000000000000 [Eh]
	 Opposite-Spin Energy      =      -0.0140158913920003 [Eh]
	 Correlation Energy        =      -0.0140158913920003 [Eh]
	 Total Energy              =      -7.2503994842616395 [Eh]
	 SCS Total Energy          =      -7.2532026625400396 [Eh]
                               Psi4 1.8.2 release
    Molecular point group: c1
  Basis Set: AUG-CC-PVTZ
    Blend: AUG-CC-PVTZ
  Basis Set: (AUG-CC-PVTZ AUX)
    Blend: AUG-CC-PVTZ-JKFIT + DEF2-UNIVERSAL-JKFIT
  @DF-RHF Final Energy:  -459.57352540714021
    Total Energy =                       -459.5735254071402096
  Basis Set: (AUG-CC-PVTZ AUX)
                               Psi4 1.8.2 release
  @DF-RHF Final Energy:  -918.96949004984822
    Total Energy =                       -918.9694900498483321
                               Psi4 1.8.2 release
  @DF-RHF Final Energy:  -467.05212677674513
    Total Energy =                       -467.0521267767451263
                               Psi4 1.8.2 release
  @DF-RHF Final Energy:  -467.05212677674433
    Total Energy =                       -467.0521267767443305
                               Psi4 1.8.2 release
  Multiplicity = 1
  @DF-RHF Final Energy:  -459.57352540714328
    Total Energy =                       -459.5735254071432792
	 Singles Energy            =      -0.0000000000000000 [Eh]
	 Same-Spin Energy          =      -0.0628797059600933 [Eh]
	 Opposite-Spin Energy      =      -0.1809137368892149 [Eh]
	 Correlation Energy        =      -0.2437934428493082 [Eh]
	 Total Energy              =    -459.8173188499926027 [Eh]
	 SCS Total Energy          =    -459.8115817933970106 [Eh]
                               Psi4 1.8.2 release
    Molecular point group: c1

    Geometry (in Bohr), charge = -1, multiplicity = 1:

       Center              X                  Y                   Z               Mass
    ------------   -----------------  -----------------  -----------------  -----------------
         LI           0.000000000000     0.000000000000     0.000000000000     7.016003436600
         CL           0.000000000000     3.835760420276     0.000000000000    34.968852682000
         CL           3.835760420276     0.000000000000     0.000000000000    34.968852682000

  Charge       = -1
  Multiplicity = 1
  Basis Set: AUG-CC-PVTZ
    Blend: AUG-CC-PVTZ
  Basis Set: (AUG-CC-PVTZ AUX)
    Blend: AUG-CC-PVTZ-JKFIT + DEF2-UNIVERSAL-JKFIT

    Orbital Energies [Eh]
    ---------------------

    Doubly Occupied:

       1A   -104.546279     2A   -104.546279     3A    -10.273188
       4A    -10.273182     5A     -7.739264     6A     -7.739262
       7A     -7.739012     8A     -7.739012     9A     -7.739010
      10A     -7.739006    11A     -2.239850    12A     -0.808501
      13A     -0.782100    14A     -0.262594    15A     -0.222263
      16A     -0.220275    17A     -0.215266    18A     -0.188608
      19A     -0.151321

  @DF-RHF Final Energy:  -926.64575605471418

   => Energetics <=

    Nuclear Repulsion Energy =             79.8678296338630247
    One-Electron Energy =               -1450.6986301494587224
    Two-Electron Energy =                 444.1850444608814996
    Total Energy =                       -926.6457560547141838
 Dipole X            :        -68.1510220           65.2079271           -2.9430948
 Dipole Y            :        -68.1510220           65.2079271           -2.9430948
 Dipole Z            :          0.0000000            0.0000000            0.0000000
 Magnitude           :                                                    4.1621646
  Basis Set: (AUG-CC-PVTZ AUX)
    Blend: AUG-CC-PVTZ-RI + DEF2-QZVPP-RI
	 Reference Energy          =    -926.6457560547141838 [Eh]
	 Singles Energy            =      -0.0000000000000000 [Eh]
	 Same-Spin Energy          =      -0.1303168635443961 [Eh]
	 Opposite-Spin Energy      =      -0.3791744933008767 [Eh]
	 Correlation Energy        =      -0.5094913568452727 [Eh]
	 Total Energy              =    -927.1552474115594578 [Eh]

	 ================> DF-SCS-MP2 Energies <==================
	-----------------------------------------------------------
	 SCS Same-Spin Scale       =       0.3333333333333333 [-]
	 SCS Opposite-Spin Scale   =       1.2000000000000000 [-]
	 SCS Same-Spin Energy      =      -0.0434389545147987 [Eh]
	 SCS Opposite-Spin Energy  =      -0.4550093919610519 [Eh]
	 SCS Correlation Energy    =      -0.4984483464758506 [Eh]
	 SCS Total Energy          =    -927.1442044011899952 [Eh]
	-----------------------------------------------------------

*** Psi4 exiting successfully. Buy a developer a beer!
