                               Psi4 1.8.2 release

  ==> Input File <==

--------------------------------------------------------------------------
MEMORY 60 GB

molecule dimer {
1 1
Li     0.000000     0.000000     0.000000
--
-1 1
Cl     0.000000     2.029797     0.000000
--
-1 1
Cl     2.638736     0.000000     0.000000

units ang
no_reorient
no_com
symmetry c1
}

set {
basis        aug-cc-pVTZ
scf_type     df
}

energy("mp2", bsse_type="cp")
--------------------------------------------------------------------------

                               Psi4 1.8.2 release
    Molecular point group: c1
  Charge       = 1
  Multiplicity = 1
  Basis Set: AUG-CC-PVTZ
    Blend: AUG-CC-PVTZ
  Basis Set: (AUG-CC-PVTZ AUX)
    Blend: AUG-CC-PVTZ-JKFIT + DEF2-UNIVERSAL-JKFIT
  @DF-RHF Final Energy:    -7.23638342981069
    Total Energy =                         -7.2363834298106902
 Dipole X            :          0.0000603            0.0000000            0.0000603
 Dipole Y            :          0.0000253            0.0000000            0.0000253
 Dipole Z            :         -0.0000000            0.0000000           -0.0000000
 Magnitude           :                                                    0.0000654
  Basis Set: (AUG-CC-PVTZ AUX)
    Blend: AUG-CC-PVTZ-RI + DEF2-QZVPP-RI
	 Reference Energy          =      -7.2363834298106902 [Eh]
	 Singles Energy            =      -0.0000000000000000 [Eh]
	 Same-Spin Energy          =       0.0000000000000000 [Eh]
	 Opposite-Spin Energy      =      -0.0130827482959183 [Eh]
	 Correlation Energy        =      -0.0130827482959183 [Eh]
	 Total Energy              =      -7.2494661781066085 [Eh]
	 SCS Total Energy          =      -7.2520827277657922 [Eh]
                               Psi4 1.8.2 release
    Molecular point group: c1
  Basis Set: AUG-CC-PVTZ
    Blend: AUG-CC-PVTZ
  Basis Set: (AUG-CC-PVTZ AUX)
    Blend: AUG-CC-PVTZ-JKFIT + DEF2-UNIVERSAL-JKFIT
  @DF-RHF Final Energy:  -459.57352354192307
    Total Energy =                       -459.5735235419230662
  Basis Set: (AUG-CC-PVTZ AUX)
                               Psi4 1.8.2 release
  @DF-RHF Final Energy:  -918.99899078394867
    Total Energy =                       -918.9989907839486705
                               Psi4 1.8.2 release
  @DF-RHF Final Energy:  -467.02310170639822
    Total Energy =                       -467.0231017063981653
                               Psi4 1.8.2 release
  @DF-RHF Final Energy:  -467.05208560325633
    Total Energy =                       -467.0520856032562733
                               Psi4 1.8.2 release
  Multiplicity = 1
  @DF-RHF Final Energy:  -459.57351044979418
    Total Energy =                       -459.5735104497941848
	 Singles Energy            =      -0.0000000000000000 [Eh]
	 Same-Spin Energy          =      -0.0626538997965568 [Eh]
	 Opposite-Spin Energy      =      -0.1800092942578892 [Eh]
	 Correlation Energy        =      -0.2426631940544459 [Eh]
	 Total Energy              =    -459.8161736438486287 [Eh]
	 SCS Total Energy          =    -459.8104062361691717 [Eh]
                               Psi4 1.8.2 release
    Molecular point group: c1

    Geometry (in Bohr), charge = -1, multiplicity = 1:

       Center              X                  Y                   Z               Mass
    ------------   -----------------  -----------------  -----------------  -----------------
         LI           0.000000000000     0.000000000000     0.000000000000     7.016003436600
         CL           0.000000000000     3.835760420276     0.000000000000    34.968852682000
         CL           4.986488357386     0.000000000000     0.000000000000    34.968852682000

  Charge       = -1
  Multiplicity = 1
  Basis Set: AUG-CC-PVTZ
    Blend: AUG-CC-PVTZ
  Basis Set: (AUG-CC-PVTZ AUX)
    Blend: AUG-CC-PVTZ-JKFIT + DEF2-UNIVERSAL-JKFIT

    Orbital Energies [Eh]
    ---------------------

    Doubly Occupied:

       1A   -104.568388     2A   -104.541835     3A    -10.294544
       4A    -10.265809     5A     -7.760708     6A     -7.760483
       7A     -7.760415     8A     -7.731937     9A     -7.731802
      10A     -7.731737    11A     -2.286297    12A     -0.814125
      13A     -0.772546    14A     -0.253090    15A     -0.231266
      16A     -0.224146    17A     -0.193412    18A     -0.185810
      19A     -0.172236

  @DF-RHF Final Energy:  -926.65602467090753

   => Energetics <=

    Nuclear Repulsion Energy =             69.4613728714481624
    One-Electron Energy =               -1429.6736206433990901
    Two-Electron Energy =                 433.5562231010433152
    Total Energy =                       -926.6560246709075273
 Dipole X            :        -88.9466215           84.7703021           -4.1763194
 Dipole Y            :        -68.1091943           65.2079271           -2.9012672
 Dipole Z            :         -0.0000000            0.0000000           -0.0000000
 Magnitude           :                                                    5.0851740
  Basis Set: (AUG-CC-PVTZ AUX)
    Blend: AUG-CC-PVTZ-RI + DEF2-QZVPP-RI
	 Reference Energy          =    -926.6560246709075273 [Eh]
	 Singles Energy            =      -0.0000000000000000 [Eh]
	 Same-Spin Energy          =      -0.1278399823176786 [Eh]
	 Opposite-Spin Energy      =      -0.3755589321375881 [Eh]
	 Correlation Energy        =      -0.5033989144552666 [Eh]
	 Total Energy              =    -927.1594235853627879 [Eh]

	 ================> DF-SCS-MP2 Energies <==================
	-----------------------------------------------------------
	 SCS Same-Spin Scale       =       0.3333333333333333 [-]
	 SCS Opposite-Spin Scale   =       1.2000000000000000 [-]
	 SCS Same-Spin Energy      =      -0.0426133274392262 [Eh]
	 SCS Opposite-Spin Energy  =      -0.4506707185651057 [Eh]
	 SCS Correlation Energy    =      -0.4932840460043319 [Eh]
	 SCS Total Energy          =    -927.1493087169118326 [Eh]
	-----------------------------------------------------------

*** Psi4 exiting successfully. Buy a developer a beer!
