                               Psi4 1.8.2 release

  ==> Input File <==

--------------------------------------------------------------------------
MEMORY 60 GB

molecule dimer {
-1 1
Gh(Li)     0.000000     0.000000     0.000000
Cl         0.000000     2.029797     0.000000
Gh(Cl)     2.841716     0.000000     0.000000

units ang
no_reorient
no_com
symmetry c1
}

set {
basis        aug-cc-pVTZ
scf_type     df
}

energy("mp2")
--------------------------------------------------------------------------

    Molecular point group: c1

    Geometry (in Angstrom), charge = -1, multiplicity = 1:

       Center              X                  Y                   Z               Mass
    ------------   -----------------  -----------------  -----------------  -----------------
      Gh(LI)          0.000000000000     0.000000000000     0.000000000000     7.016003436600
         CL           0.000000000000     2.029797000000     0.000000000000    34.968852682000
      Gh(CL)          2.841716000000     0.000000000000     0.000000000000    34.968852682000

  Charge       = -1
  Multiplicity = 1
  Basis Set: AUG-CC-PVTZ
    Blend: AUG-CC-PVTZ
  Basis Set: (AUG-CC-PVTZ AUX)
    Blend: AUG-CC-PVTZ-JKFIT + DEF2-UNIVERSAL-JKFIT

    Orbital Energies [Eh]
    ---------------------

    Doubly Occupied:

       1A   -104.506624     2A    -10.229906     3A     -7.695964
       4A     -7.695956     5A     -7.695934     6A     -0.733493
       7A     -0.150328     8A     -0.150322     9A     -0.150320

  @DF-RHF Final Energy:  -459.57352305851884

   => Energetics <=

    Nuclear Repulsion Energy =              0.0000000000000000
    One-Electron Energy =                -641.1293517434527303
    Two-Electron Energy =                 181.5558286849338856
    Total Energy =                       -459.5735230585188447
 Dipole X            :          0.0000666            0.0000000            0.0000666
 Dipole Y            :        -69.0446706           65.2079271           -3.8367434
 Dipole Z            :         -0.0000000            0.0000000           -0.0000000
 Magnitude           :                                                    3.8367434
  Basis Set: (AUG-CC-PVTZ AUX)
    Blend: AUG-CC-PVTZ-RI + DEF2-QZVPP-RI
	 Reference Energy          =    -459.5735230585188447 [Eh]
	 Singles Energy            =      -0.0000000000000000 [Eh]
	 Same-Spin Energy          =      -0.0628183145271505 [Eh]
	 Opposite-Spin Energy      =      -0.1806304167214451 [Eh]
	 Correlation Energy        =      -0.2434487312485957 [Eh]
	 Total Energy              =    -459.8169717897674218 [Eh]

	 ================> DF-SCS-MP2 Energies <==================
	-----------------------------------------------------------
	 SCS Same-Spin Scale       =       0.3333333333333333 [-]
	 SCS Opposite-Spin Scale   =       1.2000000000000000 [-]
	 SCS Same-Spin Energy      =      -0.0209394381757168 [Eh]
	 SCS Opposite-Spin Energy  =      -0.2167565000657342 [Eh]
	 SCS Correlation Energy    =      -0.2376959382414510 [Eh]
	 SCS Total Energy          =    -459.8112189967603172 [Eh]
	-----------------------------------------------------------

*** Psi4 exiting successfully. Buy a developer a beer!
