                               Psi4 1.8.2 release

  ==> Input File <==

--------------------------------------------------------------------------
MEMORY 60 GB

molecule dimer {
-1 1
Li         0.000000     0.000000     0.000000
Cl         0.000000     2.029797     0.000000
Cl         2.841716     0.000000     0.000000

units ang
no_reorient
no_com
symmetry c1
}

set {
basis        aug-cc-pVTZ
scf_type     df
}

energy("mp2")
--------------------------------------------------------------------------

    Molecular point group: c1

    Geometry (in Angstrom), charge = -1, multiplicity = 1:

       Center              X                  Y                   Z               Mass
    ------------   -----------------  -----------------  -----------------  -----------------
         LI           0.000000000000     0.000000000000     0.000000000000     7.016003436600
         CL           0.000000000000     2.029797000000     0.000000000000    34.968852682000
         CL           2.841716000000     0.000000000000     0.000000000000    34.968852682000

  Charge       = -1
  Multiplicity = 1
  Basis Set: AUG-CC-PVTZ
    Blend: AUG-CC-PVTZ
  Basis Set: (AUG-CC-PVTZ AUX)
    Blend: AUG-CC-PVTZ-JKFIT + DEF2-UNIVERSAL-JKFIT

    Orbital Energies [Eh]
    ---------------------

    Doubly Occupied:

       1A   -104.575623     2A   -104.538416     3A    -10.301642
       4A    -10.262139     5A     -7.767823     6A     -7.767594
       7A     -7.767520     8A     -7.728265     9A     -7.728138
      10A     -7.728073    11A     -2.299994    12A     -0.820317
      13A     -0.767455    14A     -0.257274    15A     -0.233670
      16A     -0.229775    17A     -0.187182    18A     -0.181960
      19A     -0.173840

  @DF-RHF Final Energy:  -926.65303918324230

   => Energetics <=

    Nuclear Repulsion Energy =             66.5855973879897789
    One-Electron Energy =               -1423.8438707660106957
    Two-Electron Energy =                 430.6052341947785749
    Total Energy =                       -926.6530391832422993
 Dipole X            :        -95.9051878           91.2911044           -4.6140834
 Dipole Y            :        -68.0992073           65.2079271           -2.8912802
 Dipole Z            :          0.0000000            0.0000000            0.0000000
 Magnitude           :                                                    5.4451140
  Basis Set: (AUG-CC-PVTZ AUX)
    Blend: AUG-CC-PVTZ-RI + DEF2-QZVPP-RI
	 Reference Energy          =    -926.6530391832422993 [Eh]
	 Singles Energy            =      -0.0000000000000000 [Eh]
	 Same-Spin Energy          =      -0.1273130124577871 [Eh]
	 Opposite-Spin Energy      =      -0.3747791833392879 [Eh]
	 Correlation Energy        =      -0.5020921957970751 [Eh]
	 Total Energy              =    -927.1551313790394033 [Eh]

	 ================> DF-SCS-MP2 Energies <==================
	-----------------------------------------------------------
	 SCS Same-Spin Scale       =       0.3333333333333333 [-]
	 SCS Opposite-Spin Scale   =       1.2000000000000000 [-]
	 SCS Same-Spin Energy      =      -0.0424376708192624 [Eh]
	 SCS Opposite-Spin Energy  =      -0.4497350200071455 [Eh]
	 SCS Correlation Energy    =      -0.4921726908264079 [Eh]
	 SCS Total Energy          =    -927.1452118740687638 [Eh]
	-----------------------------------------------------------

*** Psi4 exiting successfully. Buy a developer a beer!
