                               Psi4 1.8.2 release

  ==> Input File <==

--------------------------------------------------------------------------
MEMORY 60 GB

molecule dimer {
1 1
Li     0.000000     0.000000     0.000000
--
-1 1
Cl     0.000000     2.029797     0.000000
--
-1 1
Cl     2.232777     0.000000     0.000000

units ang
no_reorient
no_com
symmetry c1
}

set {
basis        aug-cc-pVTZ
scf_type     df
}

energy("mp2", bsse_type="cp")
--------------------------------------------------------------------------

                               Psi4 1.8.2 release
    Molecular point group: c1
  Charge       = 1
  Multiplicity = 1
  Basis Set: AUG-CC-PVTZ
    Blend: AUG-CC-PVTZ
  Basis Set: (AUG-CC-PVTZ AUX)
    Blend: AUG-CC-PVTZ-JKFIT + DEF2-UNIVERSAL-JKFIT
  @DF-RHF Final Energy:    -7.23638345104556
    Total Energy =                         -7.2363834510455618
 Dipole X            :          0.0000417            0.0000000            0.0000417
 Dipole Y            :          0.0000229            0.0000000            0.0000229
 Dipole Z            :          0.0000000            0.0000000            0.0000000
 Magnitude           :                                                    0.0000476
  Basis Set: (AUG-CC-PVTZ AUX)
    Blend: AUG-CC-PVTZ-RI + DEF2-QZVPP-RI
	 Reference Energy          =      -7.2363834510455618 [Eh]
	 Singles Energy            =      -0.0000000000000000 [Eh]
	 Same-Spin Energy          =       0.0000000000000000 [Eh]
	 Opposite-Spin Energy      =      -0.0136106065414533 [Eh]
	 Correlation Energy        =      -0.0136106065414533 [Eh]
	 Total Energy              =      -7.2499940575870152 [Eh]
	 SCS Total Energy          =      -7.2527161788953061 [Eh]
                               Psi4 1.8.2 release
    Molecular point group: c1
  Basis Set: AUG-CC-PVTZ
    Blend: AUG-CC-PVTZ
  Basis Set: (AUG-CC-PVTZ AUX)
    Blend: AUG-CC-PVTZ-JKFIT + DEF2-UNIVERSAL-JKFIT
  @DF-RHF Final Energy:  -459.57352433649515
    Total Energy =                       -459.5735243364951543
  Basis Set: (AUG-CC-PVTZ AUX)
                               Psi4 1.8.2 release
  @DF-RHF Final Energy:  -918.98119563261605
    Total Energy =                       -918.9811956326159361
                               Psi4 1.8.2 release
  @DF-RHF Final Energy:  -467.04735914670181
    Total Energy =                       -467.0473591467017513
                               Psi4 1.8.2 release
  @DF-RHF Final Energy:  -467.05210688350974
    Total Energy =                       -467.0521068835097367
                               Psi4 1.8.2 release
  Multiplicity = 1
  @DF-RHF Final Energy:  -459.57351998421763
    Total Energy =                       -459.5735199842176826
	 Singles Energy            =      -0.0000000000000000 [Eh]
	 Same-Spin Energy          =      -0.0627922175086724 [Eh]
	 Opposite-Spin Energy      =      -0.1805577192387680 [Eh]
	 Correlation Energy        =      -0.2433499367474404 [Eh]
	 Total Energy              =    -459.8168699209650754 [Eh]
	 SCS Total Energy          =    -459.8111199864737273 [Eh]
                               Psi4 1.8.2 release
    Molecular point group: c1

    Geometry (in Bohr), charge = -1, multiplicity = 1:

       Center              X                  Y                   Z               Mass
    ------------   -----------------  -----------------  -----------------  -----------------
         LI           0.000000000000     0.000000000000     0.000000000000     7.016003436600
         CL           0.000000000000     3.835760420276     0.000000000000    34.968852682000
         CL           4.219337029221     0.000000000000     0.000000000000    34.968852682000

  Charge       = -1
  Multiplicity = 1
  Basis Set: AUG-CC-PVTZ
    Blend: AUG-CC-PVTZ
  Basis Set: (AUG-CC-PVTZ AUX)
    Blend: AUG-CC-PVTZ-JKFIT + DEF2-UNIVERSAL-JKFIT

    Orbital Energies [Eh]
    ---------------------

    Doubly Occupied:

       1A   -104.553507     2A   -104.546370     3A    -10.280097
       4A    -10.271705     5A     -7.746207     6A     -7.745977
       7A     -7.745949     8A     -7.737806     9A     -7.737643
      10A     -7.737614    11A     -2.255413    12A     -0.805816
      13A     -0.781776    14A     -0.255638    15A     -0.224596
      16A     -0.217814    17A     -0.208760    18A     -0.190301
      19A     -0.160818

  @DF-RHF Final Energy:  -926.65557589940158

   => Energetics <=

    Nuclear Repulsion Energy =             76.0647228527731727
    One-Electron Energy =               -1443.0329814809372238
    Two-Electron Energy =                 440.3126827287625247
    Total Energy =                       -926.6555758994014695
 Dipole X            :        -75.0644937           71.7287295           -3.3357642
 Dipole Y            :        -68.1367591           65.2079271           -2.9288319
 Dipole Z            :          0.0000000            0.0000000            0.0000000
 Magnitude           :                                                    4.4390742
  Basis Set: (AUG-CC-PVTZ AUX)
    Blend: AUG-CC-PVTZ-RI + DEF2-QZVPP-RI
	 Reference Energy          =    -926.6555758994015832 [Eh]
	 Singles Energy            =      -0.0000000000000000 [Eh]
	 Same-Spin Energy          =      -0.1292919596322555 [Eh]
	 Opposite-Spin Energy      =      -0.3776919294880768 [Eh]
	 Correlation Energy        =      -0.5069838891203324 [Eh]
	 Total Energy              =    -927.1625597885218895 [Eh]

	 ================> DF-SCS-MP2 Energies <==================
	-----------------------------------------------------------
	 SCS Same-Spin Scale       =       0.3333333333333333 [-]
	 SCS Opposite-Spin Scale   =       1.2000000000000000 [-]
	 SCS Same-Spin Energy      =      -0.0430973198774185 [Eh]
	 SCS Opposite-Spin Energy  =      -0.4532303153856922 [Eh]
	 SCS Correlation Energy    =      -0.4963276352631107 [Eh]
	 SCS Total Energy          =    -927.1519035346647115 [Eh]
	-----------------------------------------------------------

*** Psi4 exiting successfully. Buy a developer a beer!
