                               Psi4 1.8.2 release

  ==> Input File <==

--------------------------------------------------------------------------
MEMORY 60 GB

molecule dimer {
-1 1
Li         0.000000     0.000000     0.000000
Cl         0.000000     2.029797     0.000000
Cl         2.029797     0.000000     0.000000

units ang
no_reorient
no_com
symmetry c1
}

set {
basis        aug-cc-pVTZ
scf_type     df
}

energy("mp2")
--------------------------------------------------------------------------

    Molecular point group: c1

    Geometry (in Angstrom), charge = -1, multiplicity = 1:

       Center              X                  Y                   Z               Mass
    ------------   -----------------  -----------------  -----------------  -----------------
         LI           0.000000000000     0.000000000000     0.000000000000     7.016003436600
         CL           0.000000000000     2.029797000000     0.000000000000    34.968852682000
         CL           2.029797000000     0.000000000000     0.000000000000    34.968852682000

  Charge       = -1
  Multiplicity = 1
  Basis Set: AUG-CC-PVTZ
    Blend: AUG-CC-PVTZ
  Basis Set: (AUG-CC-PVTZ AUX)
    Blend: AUG-CC-PVTZ-JKFIT + DEF2-UNIVERSAL-JKFIT

    Orbital Energies [Eh]
    ---------------------

    Doubly Occupied:

       1A   -104.546279     2A   -104.546279     3A    -10.273188
       4A    -10.273182     5A     -7.739264     6A     -7.739262
       7A     -7.739012     8A     -7.739012     9A     -7.739010
      10A     -7.739006    11A     -2.239850    12A     -0.808501
      13A     -0.782100    14A     -0.262594    15A     -0.222263
      16A     -0.220275    17A     -0.215266    18A     -0.188608
      19A     -0.151321

  @DF-RHF Final Energy:  -926.64575605471498

   => Energetics <=

    Nuclear Repulsion Energy =             79.8678296338630247
    One-Electron Energy =               -1450.6986301494598592
    Two-Electron Energy =                 444.1850444608818407
    Total Energy =                       -926.6457560547149797
 Dipole X            :        -68.1510220           65.2079271           -2.9430948
 Dipole Y            :        -68.1510220           65.2079271           -2.9430948
 Dipole Z            :          0.0000000            0.0000000            0.0000000
 Magnitude           :                                                    4.1621646
  Basis Set: (AUG-CC-PVTZ AUX)
    Blend: AUG-CC-PVTZ-RI + DEF2-QZVPP-RI
	 Reference Energy          =    -926.6457560547149797 [Eh]
	 Singles Energy            =      -0.0000000000000000 [Eh]
	 Same-Spin Energy          =      -0.1303168635443968 [Eh]
	 Opposite-Spin Energy      =      -0.3791744933008777 [Eh]
	 Correlation Energy        =      -0.5094913568452745 [Eh]
	 Total Energy              =    -927.1552474115602536 [Eh]

	 ================> DF-SCS-MP2 Energies <==================
	-----------------------------------------------------------
	 SCS Same-Spin Scale       =       0.3333333333333333 [-]
	 SCS Opposite-Spin Scale   =       1.2000000000000000 [-]
	 SCS Same-Spin Energy      =      -0.0434389545147989 [Eh]
	 SCS Opposite-Spin Energy  =      -0.4550093919610532 [Eh]
	 SCS Correlation Energy    =      -0.4984483464758521 [Eh]
	 SCS Total Energy          =    -927.1442044011907910 [Eh]
	-----------------------------------------------------------

*** Psi4 exiting successfully. Buy a developer a beer!
