                               Psi4 1.9 release

  ==> Input File <==

--------------------------------------------------------------------------
MEMORY 60 GB

molecule dimer {
0 1
Li     0.000000     0.000000     0.000000
Cl     0.000000     2.029797     0.000000
--
-1 1
Cl     2.435756     0.000000     0.000000

units ang
no_reorient
no_com
symmetry c1
}

set {
basis        aug-cc-pVTZ
scf_type     df
}

energy("mp2", bsse_type="cp")
--------------------------------------------------------------------------

                               Psi4 1.9 release
    Molecular point group: c1
  Charge       = -1
  Multiplicity = 1
  Basis Set: AUG-CC-PVTZ
    Blend: AUG-CC-PVTZ
  Basis Set: (AUG-CC-PVTZ AUX)
    Blend: AUG-CC-PVTZ-JKFIT + DEF2-UNIVERSAL-JKFIT
  @DF-RHF Final Energy:  -459.57351480547118
    Total Energy =                       -459.5735148054712340
 Dipole X            :        -82.8531574           78.2494997           -4.6036576
 Dipole Y            :          0.0001398            0.0000000            0.0001398
 Dipole Z            :          0.0000000            0.0000000            0.0000000
 Magnitude           :                                                    4.6036576
  Basis Set: (AUG-CC-PVTZ AUX)
    Blend: AUG-CC-PVTZ-RI + DEF2-QZVPP-RI
	 Reference Energy          =    -459.5735148054711772 [Eh]
	 Singles Energy            =      -0.0000000000000000 [Eh]
	 Same-Spin Energy          =      -0.0627169476949834 [Eh]
	 Opposite-Spin Energy      =      -0.1802589945151341 [Eh]
	 Correlation Energy        =      -0.2429759422101175 [Eh]
	 Total Energy              =    -459.8164907476813141 [Eh]
	 SCS Total Energy          =    -459.8107312481209874 [Eh]
                               Psi4 1.9 release
    Molecular point group: c1
  Multiplicity = 1
  Basis Set: AUG-CC-PVTZ
    Blend: AUG-CC-PVTZ
  Basis Set: (AUG-CC-PVTZ AUX)
    Blend: AUG-CC-PVTZ-JKFIT + DEF2-UNIVERSAL-JKFIT
  @DF-RHF Final Energy:  -467.05209488856997
    Total Energy =                       -467.0520948885699681
  Basis Set: (AUG-CC-PVTZ AUX)
	 Singles Energy            =      -0.0000000000000000 [Eh]
	 Same-Spin Energy          =      -0.0628716465058351 [Eh]
	 Opposite-Spin Energy      =      -0.1934990889086760 [Eh]
	 Correlation Energy        =      -0.2563707354145111 [Eh]
	 Total Energy              =    -467.3084656239844890 [Eh]
	 SCS Total Energy          =    -467.3052510107623334 [Eh]
                               Psi4 1.9 release
    Molecular point group: c1

    Geometry (in Bohr), charge = -1, multiplicity = 1:

       Center              X                  Y                   Z               Mass
    ------------   -----------------  -----------------  -----------------  -----------------
         LI           0.000000000000     0.000000000000     0.000000000000     7.016003436600
         CL           0.000000000000     3.835760420276     0.000000000000    34.968852682000
         CL           4.602911748441     0.000000000000     0.000000000000    34.968852682000

  Charge       = -1
  Multiplicity = 1
  Basis Set: AUG-CC-PVTZ
    Blend: AUG-CC-PVTZ
  Basis Set: (AUG-CC-PVTZ AUX)
    Blend: AUG-CC-PVTZ-JKFIT + DEF2-UNIVERSAL-JKFIT

    Orbital Energies [Eh]
    ---------------------

    Doubly Occupied:

       1A   -104.560961     2A   -104.544667     3A    -10.287303
       4A    -10.269122     5A     -7.753444     6A     -7.753220
       7A     -7.753167     8A     -7.735243     9A     -7.735101
      10A     -7.735047    11A     -2.271284    12A     -0.808713
      13A     -0.777755    14A     -0.252121    15A     -0.228613
      16A     -0.219636    17A     -0.200623    18A     -0.189019
      19A     -0.167910

  @DF-RHF Final Energy:  -926.65757944134236

   => Energetics <=

    Nuclear Repulsion Energy =             72.6096747182242268
    One-Electron Energy =               -1436.0486092944383927
    Two-Electron Energy =                 436.7813551348718306
    Total Energy =                       -926.6575794413424774
 Dipole X            :        -81.9979207           78.2494997           -3.7484210
 Dipole Y            :        -68.1220104           65.2079271           -2.9140833
 Dipole Z            :          0.0000000            0.0000000            0.0000000
 Magnitude           :                                                    4.7478986
  Basis Set: (AUG-CC-PVTZ AUX)
    Blend: AUG-CC-PVTZ-RI + DEF2-QZVPP-RI
	 Reference Energy          =    -926.6575794413423637 [Eh]
	 Singles Energy            =      -0.0000000000000000 [Eh]
	 Same-Spin Energy          =      -0.1284868930547221 [Eh]
	 Opposite-Spin Energy      =      -0.3765130178421812 [Eh]
	 Correlation Energy        =      -0.5049999108969033 [Eh]
	 Total Energy              =    -927.1625793522392769 [Eh]

	 ================> DF-SCS-MP2 Energies <==================
	-----------------------------------------------------------
	 SCS Same-Spin Scale       =       0.3333333333333333 [-]
	 SCS Opposite-Spin Scale   =       1.2000000000000000 [-]
	 SCS Same-Spin Energy      =      -0.0428289643515740 [Eh]
	 SCS Opposite-Spin Energy  =      -0.4518156214106174 [Eh]
	 SCS Correlation Energy    =      -0.4946445857621915 [Eh]
	 SCS Total Energy          =    -927.1522240271045803 [Eh]
	-----------------------------------------------------------

*** Psi4 exiting successfully. Buy a developer a beer!
