                               Psi4 1.9 release

  ==> Input File <==

--------------------------------------------------------------------------
MEMORY 60 GB

molecule dimer {
0 1
Br     0.000000     0.000000     0.000000
Li     0.000000     2.170734     0.000000
--
1 1
Li     2.821954     0.000000     0.000000

units ang
no_reorient
no_com
symmetry c1
}

set {
basis        aug-cc-pVTZ
scf_type     df
}

energy("mp2", bsse_type="cp")
--------------------------------------------------------------------------

                               Psi4 1.9 release
    Molecular point group: c1
  Charge       = 1
  Multiplicity = 1
  Basis Set: AUG-CC-PVTZ
    Blend: AUG-CC-PVTZ
  Basis Set: (AUG-CC-PVTZ AUX)
    Blend: AUG-CC-PVTZ-JKFIT + DEF2-UNIVERSAL-JKFIT
  @DF-RHF Final Energy:    -7.23638318099255
    Total Energy =                         -7.2363831809925525
 Dipole X            :        -10.6655216           15.9981606            5.3326390
 Dipole Y            :          0.0000160            0.0000000            0.0000160
 Dipole Z            :          0.0000000            0.0000000            0.0000000
 Magnitude           :                                                    5.3326390
  Basis Set: (AUG-CC-PVTZ AUX)
    Blend: AUG-CC-PVTZ-RI + DEF2-QZVPP-RI
	 Reference Energy          =      -7.2363831809925516 [Eh]
	 Singles Energy            =      -0.0000000000000000 [Eh]
	 Same-Spin Energy          =       0.0000000000000000 [Eh]
	 Opposite-Spin Energy      =      -0.0117158027395820 [Eh]
	 Correlation Energy        =      -0.0117158027395820 [Eh]
	 Total Energy              =      -7.2480989837321337 [Eh]
	 SCS Total Energy          =      -7.2504421442800497 [Eh]
                               Psi4 1.9 release
    Molecular point group: c1
  Multiplicity = 1
  Basis Set: AUG-CC-PVTZ
    Blend: AUG-CC-PVTZ
  Basis Set: (AUG-CC-PVTZ AUX)
    Blend: AUG-CC-PVTZ-JKFIT + DEF2-UNIVERSAL-JKFIT
  @DF-RHF Final Energy: -2579.99948395662341
    Total Energy =                      -2579.9994839566238625
  Basis Set: (AUG-CC-PVTZ AUX)
	 Singles Energy            =      -0.0000000000000000 [Eh]
	 Same-Spin Energy          =      -0.0894897321951048 [Eh]
	 Opposite-Spin Energy      =      -0.2196427069905345 [Eh]
	 Correlation Energy        =      -0.3091324391856394 [Eh]
	 Total Energy              =   -2580.3086163958091674 [Eh]
	 SCS Total Energy          =   -2580.2928851157439567 [Eh]
                               Psi4 1.9 release
    Molecular point group: c1

    Geometry (in Bohr), charge = 1, multiplicity = 1:

       Center              X                  Y                   Z               Mass
    ------------   -----------------  -----------------  -----------------  -----------------
         BR           0.000000000000     0.000000000000     0.000000000000    78.918337600000
         LI           0.000000000000     4.102092751220     0.000000000000     7.016003436600
         LI           5.332720198640     0.000000000000     0.000000000000     7.016003436600

  Charge       = 1
  Multiplicity = 1
  Basis Set: AUG-CC-PVTZ
    Blend: AUG-CC-PVTZ
  Basis Set: (AUG-CC-PVTZ AUX)
    Blend: AUG-CC-PVTZ-JKFIT + DEF2-UNIVERSAL-JKFIT

    Orbital Energies [Eh]
    ---------------------

    Doubly Occupied:

       1A   -490.122739     2A    -65.263105     3A    -58.617716
       4A    -58.617457     5A    -58.617449     6A     -9.935659
       7A     -7.543638     8A     -7.543081     9A     -7.542298
      10A     -3.285685    11A     -3.285438    12A     -3.284702
      13A     -3.283690    14A     -3.283672    15A     -2.712768
      16A     -2.648096    17A     -1.098944    18A     -0.565937
      19A     -0.553018    20A     -0.537057

  @DF-RHF Final Energy: -2587.28559559482710

   => Energetics <=

    Nuclear Repulsion Energy =             46.6241611744874689
    One-Electron Energy =               -3691.1352111413239072
    Two-Electron Energy =                1057.2254543720093807
    Total Energy =                      -2587.2855955948271003
 Dipole X            :        -11.6779612           15.9981606            4.3201994
 Dipole Y            :         -9.3075886           12.3062783            2.9986897
 Dipole Z            :          0.0000000            0.0000000            0.0000000
 Magnitude           :                                                    5.2589222
  Basis Set: (AUG-CC-PVTZ AUX)
    Blend: AUG-CC-PVTZ-RI + DEF2-QZVPP-RI
	 Reference Energy          =   -2587.2855955948271003 [Eh]
	 Singles Energy            =      -0.0000000000000000 [Eh]
	 Same-Spin Energy          =      -0.0895424905256829 [Eh]
	 Opposite-Spin Energy      =      -0.2318191420053347 [Eh]
	 Correlation Energy        =      -0.3213616325310176 [Eh]
	 Total Energy              =   -2587.6069572273581798 [Eh]

	 ================> DF-SCS-MP2 Energies <==================
	-----------------------------------------------------------
	 SCS Same-Spin Scale       =       0.3333333333333333 [-]
	 SCS Opposite-Spin Scale   =       1.2000000000000000 [-]
	 SCS Same-Spin Energy      =      -0.0298474968418943 [Eh]
	 SCS Opposite-Spin Energy  =      -0.2781829704064016 [Eh]
	 SCS Correlation Energy    =      -0.3080304672482959 [Eh]
	 SCS Total Energy          =   -2587.5936260620756002 [Eh]
	-----------------------------------------------------------

*** Psi4 exiting successfully. Buy a developer a beer!
