                               Psi4 1.8.2 release

  ==> Input File <==

--------------------------------------------------------------------------
MEMORY 60 GB

molecule dimer {
1 1
Br         0.000000     0.000000     0.000000
Li         0.000000     2.170734     0.000000
Li         2.387807     0.000000     0.000000

units ang
no_reorient
no_com
symmetry c1
}

set {
basis        aug-cc-pVTZ
scf_type     df
}

energy("mp2")
--------------------------------------------------------------------------

    Molecular point group: c1

    Geometry (in Angstrom), charge = 1, multiplicity = 1:

       Center              X                  Y                   Z               Mass
    ------------   -----------------  -----------------  -----------------  -----------------
         BR           0.000000000000     0.000000000000     0.000000000000    78.918337600000
         LI           0.000000000000     2.170734000000     0.000000000000     7.016003436600
         LI           2.387807000000     0.000000000000     0.000000000000     7.016003436600

  Charge       = 1
  Multiplicity = 1
  Basis Set: AUG-CC-PVTZ
    Blend: AUG-CC-PVTZ
  Basis Set: (AUG-CC-PVTZ AUX)
    Blend: AUG-CC-PVTZ-JKFIT + DEF2-UNIVERSAL-JKFIT

    Orbital Energies [Eh]
    ---------------------

    Doubly Occupied:

       1A   -490.141941     2A    -65.282639     3A    -58.637175
       4A    -58.637002     5A    -58.637002     6A     -9.955491
       7A     -7.563426     8A     -7.563033     9A     -7.562267
      10A     -3.305356    11A     -3.305186    12A     -3.304443
      13A     -3.303757    14A     -3.303713    15A     -2.684604
      16A     -2.663189    17A     -1.123894    18A     -0.588321
      19A     -0.583213    20A     -0.558890

  @DF-RHF Final Energy: -2587.29508810648895

   => Energetics <=

    Nuclear Repulsion Energy =             50.3422593466979791
    One-Electron Energy =               -3697.8656189278362945
    Two-Electron Energy =                1060.2282714746497732
    Total Energy =                      -2587.2950881064884925
 Dipole X            :        -10.0917499           13.5369038            3.4451539
 Dipole Y            :         -9.2805332           12.3062783            3.0257451
 Dipole Z            :          0.0000000            0.0000000            0.0000000
 Magnitude           :                                                    4.5852174
  Basis Set: (AUG-CC-PVTZ AUX)
    Blend: AUG-CC-PVTZ-RI + DEF2-QZVPP-RI
	 Reference Energy          =   -2587.2950881064889472 [Eh]
	 Singles Energy            =      -0.0000000000000000 [Eh]
	 Same-Spin Energy          =      -0.0899872899542448 [Eh]
	 Opposite-Spin Energy      =      -0.2329683418549400 [Eh]
	 Correlation Energy        =      -0.3229556318091848 [Eh]
	 Total Energy              =   -2587.6180437382981836 [Eh]

	 ================> DF-SCS-MP2 Energies <==================
	-----------------------------------------------------------
	 SCS Same-Spin Scale       =       0.3333333333333333 [-]
	 SCS Opposite-Spin Scale   =       1.2000000000000000 [-]
	 SCS Same-Spin Energy      =      -0.0299957633180816 [Eh]
	 SCS Opposite-Spin Energy  =      -0.2795620102259280 [Eh]
	 SCS Correlation Energy    =      -0.3095577735440096 [Eh]
	 SCS Total Energy          =   -2587.6046458800328764 [Eh]
	-----------------------------------------------------------

*** Psi4 exiting successfully. Buy a developer a beer!
