                               Psi4 1.8.2 release

  ==> Input File <==

--------------------------------------------------------------------------
MEMORY 60 GB

molecule dimer {
1 1
Br         0.000000     0.000000     0.000000
Li         0.000000     2.170734     0.000000
Li         2.604881     0.000000     0.000000

units ang
no_reorient
no_com
symmetry c1
}

set {
basis        aug-cc-pVTZ
scf_type     df
}

energy("mp2")
--------------------------------------------------------------------------

    Molecular point group: c1

    Geometry (in Angstrom), charge = 1, multiplicity = 1:

       Center              X                  Y                   Z               Mass
    ------------   -----------------  -----------------  -----------------  -----------------
         BR           0.000000000000     0.000000000000     0.000000000000    78.918337600000
         LI           0.000000000000     2.170734000000     0.000000000000     7.016003436600
         LI           2.604881000000     0.000000000000     0.000000000000     7.016003436600

  Charge       = 1
  Multiplicity = 1
  Basis Set: AUG-CC-PVTZ
    Blend: AUG-CC-PVTZ
  Basis Set: (AUG-CC-PVTZ AUX)
    Blend: AUG-CC-PVTZ-JKFIT + DEF2-UNIVERSAL-JKFIT

    Orbital Energies [Eh]
    ---------------------

    Doubly Occupied:

       1A   -490.132650     2A    -65.273117     3A    -58.627704
       4A    -58.627477     5A    -58.627470     6A     -9.945757
       7A     -7.553723     8A     -7.553225     9A     -7.552441
      10A     -3.295740    11A     -3.295515    12A     -3.294769
      13A     -3.293865    14A     -3.293837    15A     -2.698994
      16A     -2.655549    17A     -1.110945    18A     -0.576705
      19A     -0.567897    20A     -0.547708

  @DF-RHF Final Energy: -2587.29161130398779

   => Energetics <=

    Nuclear Repulsion Energy =             48.3318307609709024
    One-Electron Energy =               -3694.1967068805433883
    Two-Electron Energy =                1058.5732648155849347
    Total Energy =                      -2587.2916113039873380
 Dipole X            :        -10.8949139           14.7675350            3.8726212
 Dipole Y            :         -9.2947928           12.3062783            3.0114854
 Dipole Z            :          0.0000000            0.0000000            0.0000000
 Magnitude           :                                                    4.9057353
  Basis Set: (AUG-CC-PVTZ AUX)
    Blend: AUG-CC-PVTZ-RI + DEF2-QZVPP-RI
	 Reference Energy          =   -2587.2916113039877928 [Eh]
	 Singles Energy            =      -0.0000000000000000 [Eh]
	 Same-Spin Energy          =      -0.0897194936074823 [Eh]
	 Opposite-Spin Energy      =      -0.2323083419017352 [Eh]
	 Correlation Energy        =      -0.3220278355092174 [Eh]
	 Total Energy              =   -2587.6136391394970815 [Eh]

	 ================> DF-SCS-MP2 Energies <==================
	-----------------------------------------------------------
	 SCS Same-Spin Scale       =       0.3333333333333333 [-]
	 SCS Opposite-Spin Scale   =       1.2000000000000000 [-]
	 SCS Same-Spin Energy      =      -0.0299064978691608 [Eh]
	 SCS Opposite-Spin Energy  =      -0.2787700102820822 [Eh]
	 SCS Correlation Energy    =      -0.3086765081512430 [Eh]
	 SCS Total Energy          =   -2587.6002878121389585 [Eh]
	-----------------------------------------------------------

*** Psi4 exiting successfully. Buy a developer a beer!
