                               Psi4 1.9 release

  ==> Input File <==

--------------------------------------------------------------------------
MEMORY 60 GB

molecule dimer {
0 1
Br     0.000000     0.000000     0.000000
Li     0.000000     2.170734     0.000000
--
1 1
Li     3.256101     0.000000     0.000000

units ang
no_reorient
no_com
symmetry c1
}

set {
basis        aug-cc-pVTZ
scf_type     df
}

energy("mp2", bsse_type="cp")
--------------------------------------------------------------------------

                               Psi4 1.9 release
    Molecular point group: c1
  Charge       = 1
  Multiplicity = 1
  Basis Set: AUG-CC-PVTZ
    Blend: AUG-CC-PVTZ
  Basis Set: (AUG-CC-PVTZ AUX)
    Blend: AUG-CC-PVTZ-JKFIT + DEF2-UNIVERSAL-JKFIT
  @DF-RHF Final Energy:    -7.23638306541691
    Total Energy =                         -7.2363830654169075
 Dipole X            :        -12.3063425           18.4594174            6.1530749
 Dipole Y            :          0.0000218            0.0000000            0.0000218
 Dipole Z            :         -0.0000000            0.0000000           -0.0000000
 Magnitude           :                                                    6.1530749
  Basis Set: (AUG-CC-PVTZ AUX)
    Blend: AUG-CC-PVTZ-RI + DEF2-QZVPP-RI
	 Reference Energy          =      -7.2363830654169066 [Eh]
	 Singles Energy            =      -0.0000000000000000 [Eh]
	 Same-Spin Energy          =       0.0000000000000000 [Eh]
	 Opposite-Spin Energy      =      -0.0114695971296626 [Eh]
	 Correlation Energy        =      -0.0114695971296626 [Eh]
	 Total Energy              =      -7.2478526625465696 [Eh]
	 SCS Total Energy          =      -7.2501465819725022 [Eh]
                               Psi4 1.9 release
    Molecular point group: c1
  Multiplicity = 1
  Basis Set: AUG-CC-PVTZ
    Blend: AUG-CC-PVTZ
  Basis Set: (AUG-CC-PVTZ AUX)
    Blend: AUG-CC-PVTZ-JKFIT + DEF2-UNIVERSAL-JKFIT
  @DF-RHF Final Energy: -2579.99947264850289
    Total Energy =                      -2579.9994726485028878
  Basis Set: (AUG-CC-PVTZ AUX)
	 Singles Energy            =      -0.0000000000000000 [Eh]
	 Same-Spin Energy          =      -0.0892659499259726 [Eh]
	 Opposite-Spin Energy      =      -0.2190506773658766 [Eh]
	 Correlation Energy        =      -0.3083166272918492 [Eh]
	 Total Energy              =   -2580.3077892757946756 [Eh]
	 SCS Total Energy          =   -2580.2920887779837358 [Eh]
                               Psi4 1.9 release
    Molecular point group: c1

    Geometry (in Bohr), charge = 1, multiplicity = 1:

       Center              X                  Y                   Z               Mass
    ------------   -----------------  -----------------  -----------------  -----------------
         BR           0.000000000000     0.000000000000     0.000000000000    78.918337600000
         LI           0.000000000000     4.102092751220     0.000000000000     7.016003436600
         LI           6.153139126829     0.000000000000     0.000000000000     7.016003436600

  Charge       = 1
  Multiplicity = 1
  Basis Set: AUG-CC-PVTZ
    Blend: AUG-CC-PVTZ
  Basis Set: (AUG-CC-PVTZ AUX)
    Blend: AUG-CC-PVTZ-JKFIT + DEF2-UNIVERSAL-JKFIT

    Orbital Energies [Eh]
    ---------------------

    Doubly Occupied:

       1A   -490.102447     2A    -65.242796     3A    -58.597404
       4A    -58.597146     5A    -58.597140     6A     -9.915348
       7A     -7.523273     8A     -7.522768     9A     -7.522011
      10A     -3.265300    11A     -3.265081    12A     -3.264373
      13A     -3.263434    14A     -3.263414    15A     -2.736282
      16A     -2.633860    17A     -1.077240    18A     -0.545961
      19A     -0.526608    20A     -0.517127

  @DF-RHF Final Energy: -2587.27270808736466

   => Energetics <=

    Nuclear Repulsion Energy =             43.8781648007628462
    One-Electron Energy =               -3686.3437153984223187
    Two-Electron Energy =                1055.1928425102948950
    Total Energy =                      -2587.2727080873646628
 Dipole X            :        -13.2011204           18.4594174            5.2582969
 Dipole Y            :         -9.3282949           12.3062783            2.9779834
 Dipole Z            :         -0.0000000            0.0000000           -0.0000000
 Magnitude           :                                                    6.0430184
  Basis Set: (AUG-CC-PVTZ AUX)
    Blend: AUG-CC-PVTZ-RI + DEF2-QZVPP-RI
	 Reference Energy          =   -2587.2727080873646628 [Eh]
	 Singles Energy            =      -0.0000000000000000 [Eh]
	 Same-Spin Energy          =      -0.0893296968852795 [Eh]
	 Opposite-Spin Energy      =      -0.2310601667232862 [Eh]
	 Correlation Energy        =      -0.3203898636085656 [Eh]
	 Total Energy              =   -2587.5930979509730605 [Eh]

	 ================> DF-SCS-MP2 Energies <==================
	-----------------------------------------------------------
	 SCS Same-Spin Scale       =       0.3333333333333333 [-]
	 SCS Opposite-Spin Scale   =       1.2000000000000000 [-]
	 SCS Same-Spin Energy      =      -0.0297765656284265 [Eh]
	 SCS Opposite-Spin Energy  =      -0.2772722000679434 [Eh]
	 SCS Correlation Energy    =      -0.3070487656963699 [Eh]
	 SCS Total Energy          =   -2587.5797568530610988 [Eh]
	-----------------------------------------------------------

*** Psi4 exiting successfully. Buy a developer a beer!
