                               Psi4 1.8.2 release

  ==> Input File <==

--------------------------------------------------------------------------
MEMORY 60 GB

molecule dimer {
-1 1
Br     0.000000     0.000000     0.000000
--
1 1
Li     0.000000     2.170734     0.000000
--
1 1
Li     2.821954     0.000000     0.000000

units ang
no_reorient
no_com
symmetry c1
}

set {
basis        aug-cc-pVTZ
scf_type     df
}

energy("mp2", bsse_type="cp")
--------------------------------------------------------------------------

                               Psi4 1.8.2 release
    Molecular point group: c1
  Charge       = -1
  Multiplicity = 1
  Basis Set: AUG-CC-PVTZ
    Blend: AUG-CC-PVTZ
  Basis Set: (AUG-CC-PVTZ AUX)
    Blend: AUG-CC-PVTZ-JKFIT + DEF2-UNIVERSAL-JKFIT
  @DF-RHF Final Energy: -2572.53370173358962
    Total Energy =                      -2572.5337017335900782
 Dipole X            :          0.0001995            0.0000000            0.0001995
 Dipole Y            :          0.0004005            0.0000000            0.0004005
 Dipole Z            :          0.0000000            0.0000000            0.0000000
 Magnitude           :                                                    0.0004474
  Basis Set: (AUG-CC-PVTZ AUX)
    Blend: AUG-CC-PVTZ-RI + DEF2-QZVPP-RI
	 Reference Energy          =   -2572.5337017335896235 [Eh]
	 Singles Energy            =      -0.0000000000000000 [Eh]
	 Same-Spin Energy          =      -0.0892352319165898 [Eh]
	 Opposite-Spin Energy      =      -0.2070072237608999 [Eh]
	 Correlation Energy        =      -0.2962424556774897 [Eh]
	 Total Energy              =   -2572.8299441892672803 [Eh]
	 SCS Total Energy          =   -2572.8118554794082229 [Eh]
                               Psi4 1.8.2 release
    Molecular point group: c1
  Basis Set: AUG-CC-PVTZ
    Blend: AUG-CC-PVTZ
  Basis Set: (AUG-CC-PVTZ AUX)
    Blend: AUG-CC-PVTZ-JKFIT + DEF2-UNIVERSAL-JKFIT
  @DF-RHF Final Energy:    -7.23638323758113
    Total Energy =                         -7.2363832375811299
  Basis Set: (AUG-CC-PVTZ AUX)
                               Psi4 1.8.2 release
  @DF-RHF Final Energy:   -14.32420347407969
    Total Energy =                        -14.3242034740796917
                               Psi4 1.8.2 release
  @DF-RHF Final Energy: -2579.97284076551387
    Total Energy =                      -2579.9728407655138653
                               Psi4 1.8.2 release
  @DF-RHF Final Energy: -2579.99948395631782
    Total Energy =                      -2579.9994839563178175
                               Psi4 1.8.2 release
  Multiplicity = 1
  @DF-RHF Final Energy:    -7.23638318099248
    Total Energy =                         -7.2363831809924797
	 Singles Energy            =      -0.0000000000000000 [Eh]
	 Same-Spin Energy          =       0.0000000000000000 [Eh]
	 Opposite-Spin Energy      =      -0.0117158027395921 [Eh]
	 Correlation Energy        =      -0.0117158027395921 [Eh]
	 Total Energy              =      -7.2480989837320715 [Eh]
	 SCS Total Energy          =      -7.2504421442799902 [Eh]
                               Psi4 1.8.2 release
    Molecular point group: c1

    Geometry (in Bohr), charge = 1, multiplicity = 1:

       Center              X                  Y                   Z               Mass
    ------------   -----------------  -----------------  -----------------  -----------------
         BR           0.000000000000     0.000000000000     0.000000000000    78.918337600000
         LI           0.000000000000     4.102092751220     0.000000000000     7.016003436600
         LI           5.332720198640     0.000000000000     0.000000000000     7.016003436600

  Charge       = 1
  Multiplicity = 1
  Basis Set: AUG-CC-PVTZ
    Blend: AUG-CC-PVTZ
  Basis Set: (AUG-CC-PVTZ AUX)
    Blend: AUG-CC-PVTZ-JKFIT + DEF2-UNIVERSAL-JKFIT

    Orbital Energies [Eh]
    ---------------------

    Doubly Occupied:

       1A   -490.122739     2A    -65.263105     3A    -58.617716
       4A    -58.617457     5A    -58.617449     6A     -9.935659
       7A     -7.543638     8A     -7.543081     9A     -7.542298
      10A     -3.285685    11A     -3.285438    12A     -3.284702
      13A     -3.283690    14A     -3.283672    15A     -2.712768
      16A     -2.648096    17A     -1.098944    18A     -0.565937
      19A     -0.553018    20A     -0.537057

  @DF-RHF Final Energy: -2587.28559559451742

   => Energetics <=

    Nuclear Repulsion Energy =             46.6241611744874689
    One-Electron Energy =               -3691.1352111411479200
    Two-Electron Energy =                1057.2254543721428490
    Total Energy =                      -2587.2855955945174173
 Dipole X            :        -11.6779612           15.9981606            4.3201994
 Dipole Y            :         -9.3075886           12.3062783            2.9986897
 Dipole Z            :         -0.0000000            0.0000000           -0.0000000
 Magnitude           :                                                    5.2589222
  Basis Set: (AUG-CC-PVTZ AUX)
    Blend: AUG-CC-PVTZ-RI + DEF2-QZVPP-RI
	 Reference Energy          =   -2587.2855955945174173 [Eh]
	 Singles Energy            =      -0.0000000000000000 [Eh]
	 Same-Spin Energy          =      -0.0895424905258110 [Eh]
	 Opposite-Spin Energy      =      -0.2318191420064887 [Eh]
	 Correlation Energy        =      -0.3213616325322997 [Eh]
	 Total Energy              =   -2587.6069572270498611 [Eh]

	 ================> DF-SCS-MP2 Energies <==================
	-----------------------------------------------------------
	 SCS Same-Spin Scale       =       0.3333333333333333 [-]
	 SCS Opposite-Spin Scale   =       1.2000000000000000 [-]
	 SCS Same-Spin Energy      =      -0.0298474968419370 [Eh]
	 SCS Opposite-Spin Energy  =      -0.2781829704077864 [Eh]
	 SCS Correlation Energy    =      -0.3080304672497234 [Eh]
	 SCS Total Energy          =   -2587.5936260617672815 [Eh]
	-----------------------------------------------------------

*** Psi4 exiting successfully. Buy a developer a beer!
