                               Psi4 1.8.2 release

  ==> Input File <==

--------------------------------------------------------------------------
MEMORY 60 GB

molecule dimer {
-1 1
Br         0.000000     0.000000     0.000000
Gh(Li)     0.000000     2.170734     0.000000
Gh(Li)     2.604881     0.000000     0.000000

units ang
no_reorient
no_com
symmetry c1
}

set {
basis        aug-cc-pVTZ
scf_type     df
}

energy("mp2")
--------------------------------------------------------------------------

    Molecular point group: c1

    Geometry (in Angstrom), charge = -1, multiplicity = 1:

       Center              X                  Y                   Z               Mass
    ------------   -----------------  -----------------  -----------------  -----------------
         BR           0.000000000000     0.000000000000     0.000000000000    78.918337600000
      Gh(LI)          0.000000000000     2.170734000000     0.000000000000     7.016003436600
      Gh(LI)          2.604881000000     0.000000000000     0.000000000000     7.016003436600

  Charge       = -1
  Multiplicity = 1
  Basis Set: AUG-CC-PVTZ
    Blend: AUG-CC-PVTZ
  Basis Set: (AUG-CC-PVTZ AUX)
    Blend: AUG-CC-PVTZ-JKFIT + DEF2-UNIVERSAL-JKFIT

    Orbital Energies [Eh]
    ---------------------

    Doubly Occupied:

       1A   -489.721555     2A    -64.861292     3A    -58.215809
       4A    -58.215806     5A    -58.215805     6A     -9.533111
       7A     -7.140457     8A     -7.140445     9A     -7.140432
      10A     -2.882146    11A     -2.882145    12A     -2.882141
      13A     -2.882136    14A     -2.882133    15A     -0.685994
      16A     -0.139338    17A     -0.139338    18A     -0.139332

  @DF-RHF Final Energy: -2572.53370352703905

   => Energetics <=

    Nuclear Repulsion Energy =              0.0000000000000000
    One-Electron Energy =               -3593.6685765396946408
    Two-Electron Energy =                1021.1348730126558166
    Total Energy =                      -2572.5337035270385968
 Dipole X            :          0.0002429            0.0000000            0.0002429
 Dipole Y            :          0.0003795            0.0000000            0.0003795
 Dipole Z            :          0.0000000            0.0000000            0.0000000
 Magnitude           :                                                    0.0004506
  Basis Set: (AUG-CC-PVTZ AUX)
    Blend: AUG-CC-PVTZ-RI + DEF2-QZVPP-RI
	 Reference Energy          =   -2572.5337035270390516 [Eh]
	 Singles Energy            =      -0.0000000000000000 [Eh]
	 Same-Spin Energy          =      -0.0893937300563740 [Eh]
	 Opposite-Spin Energy      =      -0.2074009116598784 [Eh]
	 Correlation Energy        =      -0.2967946417162524 [Eh]
	 Total Energy              =   -2572.8304981687551845 [Eh]

	 ================> DF-SCS-MP2 Energies <==================
	-----------------------------------------------------------
	 SCS Same-Spin Scale       =       0.3333333333333333 [-]
	 SCS Opposite-Spin Scale   =       1.2000000000000000 [-]
	 SCS Same-Spin Energy      =      -0.0297979100187913 [Eh]
	 SCS Opposite-Spin Energy  =      -0.2488810939918540 [Eh]
	 SCS Correlation Energy    =      -0.2786790040106454 [Eh]
	 SCS Total Energy          =   -2572.8123825310494794 [Eh]
	-----------------------------------------------------------

*** Psi4 exiting successfully. Buy a developer a beer!
