                               Psi4 1.9 release

  ==> Input File <==

--------------------------------------------------------------------------
MEMORY 60 GB

molecule dimer {
0 1
Br     0.000000     0.000000     0.000000
Li     0.000000     2.170734     0.000000
--
1 1
Li     4.341468     0.000000     0.000000

units ang
no_reorient
no_com
symmetry c1
}

set {
basis        aug-cc-pVTZ
scf_type     df
}

energy("mp2", bsse_type="cp")
--------------------------------------------------------------------------

                               Psi4 1.9 release
    Molecular point group: c1
  Charge       = 1
  Multiplicity = 1
  Basis Set: AUG-CC-PVTZ
    Blend: AUG-CC-PVTZ
  Basis Set: (AUG-CC-PVTZ AUX)
    Blend: AUG-CC-PVTZ-JKFIT + DEF2-UNIVERSAL-JKFIT
  @DF-RHF Final Energy:    -7.23638275486824
    Total Energy =                         -7.2363827548682416
 Dipole X            :        -16.4083988           24.6125565            8.2041577
 Dipole Y            :          0.0000042            0.0000000            0.0000042
 Dipole Z            :         -0.0000000            0.0000000           -0.0000000
 Magnitude           :                                                    8.2041577
  Basis Set: (AUG-CC-PVTZ AUX)
    Blend: AUG-CC-PVTZ-RI + DEF2-QZVPP-RI
	 Reference Energy          =      -7.2363827548682425 [Eh]
	 Singles Energy            =      -0.0000000000000000 [Eh]
	 Same-Spin Energy          =      -0.0000000000000000 [Eh]
	 Opposite-Spin Energy      =      -0.0111476509921625 [Eh]
	 Correlation Energy        =      -0.0111476509921625 [Eh]
	 Total Energy              =      -7.2475304058604051 [Eh]
	 SCS Total Energy          =      -7.2497599360588376 [Eh]
                               Psi4 1.9 release
    Molecular point group: c1
  Multiplicity = 1
  Basis Set: AUG-CC-PVTZ
    Blend: AUG-CC-PVTZ
  Basis Set: (AUG-CC-PVTZ AUX)
    Blend: AUG-CC-PVTZ-JKFIT + DEF2-UNIVERSAL-JKFIT
  @DF-RHF Final Energy: -2579.99945807202266
    Total Energy =                      -2579.9994580720222075
  Basis Set: (AUG-CC-PVTZ AUX)
	 Singles Energy            =      -0.0000000000000000 [Eh]
	 Same-Spin Energy          =      -0.0889732465792961 [Eh]
	 Opposite-Spin Energy      =      -0.2183022130403061 [Eh]
	 Correlation Energy        =      -0.3072754596196022 [Eh]
	 Total Energy              =   -2580.3067335316422941 [Eh]
	 SCS Total Energy          =   -2580.2910784765308563 [Eh]
                               Psi4 1.9 release
    Molecular point group: c1

    Geometry (in Bohr), charge = 1, multiplicity = 1:

       Center              X                  Y                   Z               Mass
    ------------   -----------------  -----------------  -----------------  -----------------
         BR           0.000000000000     0.000000000000     0.000000000000    78.918337600000
         LI           0.000000000000     4.102092751220     0.000000000000     7.016003436600
         LI           8.204185502439     0.000000000000     0.000000000000     7.016003436600

  Charge       = 1
  Multiplicity = 1
  Basis Set: AUG-CC-PVTZ
    Blend: AUG-CC-PVTZ
  Basis Set: (AUG-CC-PVTZ AUX)
    Blend: AUG-CC-PVTZ-JKFIT + DEF2-UNIVERSAL-JKFIT

    Orbital Energies [Eh]
    ---------------------

    Doubly Occupied:

       1A   -490.059252     2A    -65.199755     3A    -58.554284
       4A    -58.554143     5A    -58.554138     6A     -9.872457
       7A     -7.480207     8A     -7.479939     9A     -7.479379
      10A     -3.222027    11A     -3.221958    12A     -3.221354
      13A     -3.220997    14A     -3.220924    15A     -2.770140
      16A     -2.604000    17A     -1.035223    18A     -0.505903
      19A     -0.480271    20A     -0.477042

  @DF-RHF Final Energy: -2587.25209461469012

   => Energetics <=

    Nuclear Repulsion Energy =             39.3762238339144091
    One-Electron Energy =               -3678.8298528176574109
    Two-Electron Energy =                1052.2015343690525242
    Total Energy =                      -2587.2520946146905771
 Dipole X            :        -16.9559377           24.6125565            7.6566189
 Dipole Y            :         -9.3563441           12.3062783            2.9499341
 Dipole Z            :         -0.0000000            0.0000000           -0.0000000
 Magnitude           :                                                    8.2052376
  Basis Set: (AUG-CC-PVTZ AUX)
    Blend: AUG-CC-PVTZ-RI + DEF2-QZVPP-RI
	 Reference Energy          =   -2587.2520946146901224 [Eh]
	 Singles Energy            =      -0.0000000000000000 [Eh]
	 Same-Spin Energy          =      -0.0890211519676737 [Eh]
	 Opposite-Spin Energy      =      -0.2296764055349492 [Eh]
	 Correlation Energy        =      -0.3186975575026229 [Eh]
	 Total Energy              =   -2587.5707921721927960 [Eh]

	 ================> DF-SCS-MP2 Energies <==================
	-----------------------------------------------------------
	 SCS Same-Spin Scale       =       0.3333333333333333 [-]
	 SCS Opposite-Spin Scale   =       1.2000000000000000 [-]
	 SCS Same-Spin Energy      =      -0.0296737173225579 [Eh]
	 SCS Opposite-Spin Energy  =      -0.2756116866419390 [Eh]
	 SCS Correlation Energy    =      -0.3052854039644969 [Eh]
	 SCS Total Energy          =   -2587.5573800186548397 [Eh]
	-----------------------------------------------------------

*** Psi4 exiting successfully. Buy a developer a beer!
