                               Psi4 1.8.2 release

  ==> Input File <==

--------------------------------------------------------------------------
MEMORY 60 GB

molecule dimer {
1 1
Br         0.000000     0.000000     0.000000
Li         0.000000     2.170734     0.000000
Li         2.821954     0.000000     0.000000

units ang
no_reorient
no_com
symmetry c1
}

set {
basis        aug-cc-pVTZ
scf_type     df
}

energy("mp2")
--------------------------------------------------------------------------

    Molecular point group: c1

    Geometry (in Angstrom), charge = 1, multiplicity = 1:

       Center              X                  Y                   Z               Mass
    ------------   -----------------  -----------------  -----------------  -----------------
         BR           0.000000000000     0.000000000000     0.000000000000    78.918337600000
         LI           0.000000000000     2.170734000000     0.000000000000     7.016003436600
         LI           2.821954000000     0.000000000000     0.000000000000     7.016003436600

  Charge       = 1
  Multiplicity = 1
  Basis Set: AUG-CC-PVTZ
    Blend: AUG-CC-PVTZ
  Basis Set: (AUG-CC-PVTZ AUX)
    Blend: AUG-CC-PVTZ-JKFIT + DEF2-UNIVERSAL-JKFIT

    Orbital Energies [Eh]
    ---------------------

    Doubly Occupied:

       1A   -490.122739     2A    -65.263105     3A    -58.617716
       4A    -58.617457     5A    -58.617449     6A     -9.935659
       7A     -7.543638     8A     -7.543081     9A     -7.542298
      10A     -3.285685    11A     -3.285438    12A     -3.284702
      13A     -3.283690    14A     -3.283672    15A     -2.712768
      16A     -2.648096    17A     -1.098944    18A     -0.565937
      19A     -0.553018    20A     -0.537057

  @DF-RHF Final Energy: -2587.28559559458472

   => Energetics <=

    Nuclear Repulsion Energy =             46.6241611744874689
    One-Electron Energy =               -3691.1352111411151782
    Two-Electron Energy =                1057.2254543720423499
    Total Energy =                      -2587.2855955945851747
 Dipole X            :        -11.6779612           15.9981606            4.3201994
 Dipole Y            :         -9.3075886           12.3062783            2.9986897
 Dipole Z            :          0.0000000            0.0000000            0.0000000
 Magnitude           :                                                    5.2589222
  Basis Set: (AUG-CC-PVTZ AUX)
    Blend: AUG-CC-PVTZ-RI + DEF2-QZVPP-RI
	 Reference Energy          =   -2587.2855955945847199 [Eh]
	 Singles Energy            =      -0.0000000000000000 [Eh]
	 Same-Spin Energy          =      -0.0895424905257468 [Eh]
	 Opposite-Spin Energy      =      -0.2318191420067681 [Eh]
	 Correlation Energy        =      -0.3213616325325149 [Eh]
	 Total Energy              =   -2587.6069572271171637 [Eh]

	 ================> DF-SCS-MP2 Energies <==================
	-----------------------------------------------------------
	 SCS Same-Spin Scale       =       0.3333333333333333 [-]
	 SCS Opposite-Spin Scale   =       1.2000000000000000 [-]
	 SCS Same-Spin Energy      =      -0.0298474968419156 [Eh]
	 SCS Opposite-Spin Energy  =      -0.2781829704081217 [Eh]
	 SCS Correlation Energy    =      -0.3080304672500373 [Eh]
	 SCS Total Energy          =   -2587.5936260618345841 [Eh]
	-----------------------------------------------------------

*** Psi4 exiting successfully. Buy a developer a beer!
