                               Psi4 1.9 release

  ==> Input File <==

--------------------------------------------------------------------------
MEMORY 60 GB

molecule dimer {
0 1
Br     0.000000     0.000000     0.000000
Li     0.000000     2.170734     0.000000
--
1 1
Li     2.387807     0.000000     0.000000

units ang
no_reorient
no_com
symmetry c1
}

set {
basis        aug-cc-pVTZ
scf_type     df
}

energy("mp2", bsse_type="cp")
--------------------------------------------------------------------------

                               Psi4 1.9 release
    Molecular point group: c1
  Charge       = 1
  Multiplicity = 1
  Basis Set: AUG-CC-PVTZ
    Blend: AUG-CC-PVTZ
  Basis Set: (AUG-CC-PVTZ AUX)
    Blend: AUG-CC-PVTZ-JKFIT + DEF2-UNIVERSAL-JKFIT
  @DF-RHF Final Energy:    -7.23638322898721
    Total Energy =                         -7.2363832289872114
 Dipole X            :         -9.0246628           13.5369038            4.5122410
 Dipole Y            :          0.0000178            0.0000000            0.0000178
 Dipole Z            :         -0.0000000            0.0000000           -0.0000000
 Magnitude           :                                                    4.5122410
  Basis Set: (AUG-CC-PVTZ AUX)
    Blend: AUG-CC-PVTZ-RI + DEF2-QZVPP-RI
	 Reference Energy          =      -7.2363832289872114 [Eh]
	 Singles Energy            =      -0.0000000000000000 [Eh]
	 Same-Spin Energy          =       0.0000000000000000 [Eh]
	 Opposite-Spin Energy      =      -0.0122591951272532 [Eh]
	 Correlation Energy        =      -0.0122591951272532 [Eh]
	 Total Energy              =      -7.2486424241144647 [Eh]
	 SCS Total Energy          =      -7.2510942631399153 [Eh]
                               Psi4 1.9 release
    Molecular point group: c1
  Multiplicity = 1
  Basis Set: AUG-CC-PVTZ
    Blend: AUG-CC-PVTZ
  Basis Set: (AUG-CC-PVTZ AUX)
    Blend: AUG-CC-PVTZ-JKFIT + DEF2-UNIVERSAL-JKFIT
  @DF-RHF Final Energy: -2579.99949797789031
    Total Energy =                      -2579.9994979778903144
  Basis Set: (AUG-CC-PVTZ AUX)
	 Singles Energy            =      -0.0000000000000000 [Eh]
	 Same-Spin Energy          =      -0.0898556559308109 [Eh]
	 Opposite-Spin Energy      =      -0.2205777515588347 [Eh]
	 Correlation Energy        =      -0.3104334074896456 [Eh]
	 Total Energy              =   -2580.3099313853799686 [Eh]
	 SCS Total Energy          =   -2580.2941431650710911 [Eh]
                               Psi4 1.9 release
    Molecular point group: c1

    Geometry (in Bohr), charge = 1, multiplicity = 1:

       Center              X                  Y                   Z               Mass
    ------------   -----------------  -----------------  -----------------  -----------------
         BR           0.000000000000     0.000000000000     0.000000000000    78.918337600000
         LI           0.000000000000     4.102092751220     0.000000000000     7.016003436600
         LI           4.512301270451     0.000000000000     0.000000000000     7.016003436600

  Charge       = 1
  Multiplicity = 1
  Basis Set: AUG-CC-PVTZ
    Blend: AUG-CC-PVTZ
  Basis Set: (AUG-CC-PVTZ AUX)
    Blend: AUG-CC-PVTZ-JKFIT + DEF2-UNIVERSAL-JKFIT

    Orbital Energies [Eh]
    ---------------------

    Doubly Occupied:

       1A   -490.141941     2A    -65.282639     3A    -58.637175
       4A    -58.637002     5A    -58.637002     6A     -9.955491
       7A     -7.563426     8A     -7.563033     9A     -7.562267
      10A     -3.305356    11A     -3.305186    12A     -3.304443
      13A     -3.303757    14A     -3.303713    15A     -2.684604
      16A     -2.663189    17A     -1.123894    18A     -0.588321
      19A     -0.583213    20A     -0.558890

  @DF-RHF Final Energy: -2587.29508810619018

   => Energetics <=

    Nuclear Repulsion Energy =             50.3422593466979862
    One-Electron Energy =               -3697.8656189274070130
    Two-Electron Energy =                1060.2282714745188059
    Total Energy =                      -2587.2950881061901782
 Dipole X            :        -10.0917499           13.5369038            3.4451539
 Dipole Y            :         -9.2805332           12.3062783            3.0257451
 Dipole Z            :         -0.0000000            0.0000000           -0.0000000
 Magnitude           :                                                    4.5852174
  Basis Set: (AUG-CC-PVTZ AUX)
    Blend: AUG-CC-PVTZ-RI + DEF2-QZVPP-RI
	 Reference Energy          =   -2587.2950881061901782 [Eh]
	 Singles Energy            =      -0.0000000000000000 [Eh]
	 Same-Spin Energy          =      -0.0899872899544293 [Eh]
	 Opposite-Spin Energy      =      -0.2329683418540580 [Eh]
	 Correlation Energy        =      -0.3229556318084873 [Eh]
	 Total Energy              =   -2587.6180437379985051 [Eh]

	 ================> DF-SCS-MP2 Energies <==================
	-----------------------------------------------------------
	 SCS Same-Spin Scale       =       0.3333333333333333 [-]
	 SCS Opposite-Spin Scale   =       1.2000000000000000 [-]
	 SCS Same-Spin Energy      =      -0.0299957633181431 [Eh]
	 SCS Opposite-Spin Energy  =      -0.2795620102248696 [Eh]
	 SCS Correlation Energy    =      -0.3095577735430127 [Eh]
	 SCS Total Energy          =   -2587.6046458797331979 [Eh]
	-----------------------------------------------------------

*** Psi4 exiting successfully. Buy a developer a beer!
