                               Psi4 1.8.2 release

  ==> Input File <==

--------------------------------------------------------------------------
MEMORY 60 GB

molecule dimer {
1 1
Br         0.000000     0.000000     0.000000
Li         0.000000     2.170734     0.000000
Li         4.341468     0.000000     0.000000

units ang
no_reorient
no_com
symmetry c1
}

set {
basis        aug-cc-pVTZ
scf_type     df
}

energy("mp2")
--------------------------------------------------------------------------

    Molecular point group: c1

    Geometry (in Angstrom), charge = 1, multiplicity = 1:

       Center              X                  Y                   Z               Mass
    ------------   -----------------  -----------------  -----------------  -----------------
         BR           0.000000000000     0.000000000000     0.000000000000    78.918337600000
         LI           0.000000000000     2.170734000000     0.000000000000     7.016003436600
         LI           4.341468000000     0.000000000000     0.000000000000     7.016003436600

  Charge       = 1
  Multiplicity = 1
  Basis Set: AUG-CC-PVTZ
    Blend: AUG-CC-PVTZ
  Basis Set: (AUG-CC-PVTZ AUX)
    Blend: AUG-CC-PVTZ-JKFIT + DEF2-UNIVERSAL-JKFIT

    Orbital Energies [Eh]
    ---------------------

    Doubly Occupied:

       1A   -490.059252     2A    -65.199755     3A    -58.554284
       4A    -58.554143     5A    -58.554138     6A     -9.872457
       7A     -7.480207     8A     -7.479939     9A     -7.479379
      10A     -3.222027    11A     -3.221958    12A     -3.221354
      13A     -3.220997    14A     -3.220924    15A     -2.770140
      16A     -2.604000    17A     -1.035223    18A     -0.505903
      19A     -0.480271    20A     -0.477042

  @DF-RHF Final Energy: -2587.25209461485611

   => Energetics <=

    Nuclear Repulsion Energy =             39.3762238339144020
    One-Electron Energy =               -3678.8298528177429034
    Two-Electron Energy =                1052.2015343689720339
    Total Energy =                      -2587.2520946148561052
 Dipole X            :        -16.9559377           24.6125565            7.6566189
 Dipole Y            :         -9.3563441           12.3062783            2.9499341
 Dipole Z            :          0.0000000            0.0000000            0.0000000
 Magnitude           :                                                    8.2052376
  Basis Set: (AUG-CC-PVTZ AUX)
    Blend: AUG-CC-PVTZ-RI + DEF2-QZVPP-RI
	 Reference Energy          =   -2587.2520946148561052 [Eh]
	 Singles Energy            =      -0.0000000000000000 [Eh]
	 Same-Spin Energy          =      -0.0890211519676367 [Eh]
	 Opposite-Spin Energy      =      -0.2296764055350090 [Eh]
	 Correlation Energy        =      -0.3186975575026456 [Eh]
	 Total Energy              =   -2587.5707921723587788 [Eh]

	 ================> DF-SCS-MP2 Energies <==================
	-----------------------------------------------------------
	 SCS Same-Spin Scale       =       0.3333333333333333 [-]
	 SCS Opposite-Spin Scale   =       1.2000000000000000 [-]
	 SCS Same-Spin Energy      =      -0.0296737173225456 [Eh]
	 SCS Opposite-Spin Energy  =      -0.2756116866420107 [Eh]
	 SCS Correlation Energy    =      -0.3052854039645563 [Eh]
	 SCS Total Energy          =   -2587.5573800188208224 [Eh]
	-----------------------------------------------------------

*** Psi4 exiting successfully. Buy a developer a beer!
