                               Psi4 1.8.2 release

  ==> Input File <==

--------------------------------------------------------------------------
MEMORY 60 GB

molecule dimer {
-1 1
Br     0.000000     0.000000     0.000000
--
1 1
Li     0.000000     2.170734     0.000000
--
1 1
Li     2.170734     0.000000     0.000000

units ang
no_reorient
no_com
symmetry c1
}

set {
basis        aug-cc-pVTZ
scf_type     df
}

energy("mp2", bsse_type="cp")
--------------------------------------------------------------------------

                               Psi4 1.8.2 release
    Molecular point group: c1
  Charge       = -1
  Multiplicity = 1
  Basis Set: AUG-CC-PVTZ
    Blend: AUG-CC-PVTZ
  Basis Set: (AUG-CC-PVTZ AUX)
    Blend: AUG-CC-PVTZ-JKFIT + DEF2-UNIVERSAL-JKFIT
  @DF-RHF Final Energy: -2572.53370783380296
    Total Energy =                      -2572.5337078338034189
 Dipole X            :          0.0002907            0.0000000            0.0002907
 Dipole Y            :          0.0002907            0.0000000            0.0002907
 Dipole Z            :          0.0000000            0.0000000            0.0000000
 Magnitude           :                                                    0.0004111
  Basis Set: (AUG-CC-PVTZ AUX)
    Blend: AUG-CC-PVTZ-RI + DEF2-QZVPP-RI
	 Reference Energy          =   -2572.5337078338029642 [Eh]
	 Singles Energy            =      -0.0000000000000000 [Eh]
	 Same-Spin Energy          =      -0.0898545474769787 [Eh]
	 Opposite-Spin Energy      =      -0.2085271618524216 [Eh]
	 Correlation Energy        =      -0.2983817093294003 [Eh]
	 Total Energy              =   -2572.8320895431324971 [Eh]
	 SCS Total Energy          =   -2572.8138919438515586 [Eh]
                               Psi4 1.8.2 release
    Molecular point group: c1
  Basis Set: AUG-CC-PVTZ
    Blend: AUG-CC-PVTZ
  Basis Set: (AUG-CC-PVTZ AUX)
    Blend: AUG-CC-PVTZ-JKFIT + DEF2-UNIVERSAL-JKFIT
  @DF-RHF Final Energy:    -7.23638331445820
    Total Energy =                         -7.2363833144581999
  Basis Set: (AUG-CC-PVTZ AUX)
                               Psi4 1.8.2 release
  @DF-RHF Final Energy:   -14.30052881647176
    Total Energy =                        -14.3005288164717630
                               Psi4 1.8.2 release
  @DF-RHF Final Energy: -2579.99950642893100
    Total Energy =                      -2579.9995064289309994
                               Psi4 1.8.2 release
  @DF-RHF Final Energy: -2579.99950642893327
    Total Energy =                      -2579.9995064289332731
                               Psi4 1.8.2 release
  Multiplicity = 1
  @DF-RHF Final Energy:    -7.23638331445807
    Total Energy =                         -7.2363833144580711
	 Singles Energy            =      -0.0000000000000000 [Eh]
	 Same-Spin Energy          =       0.0000000000000000 [Eh]
	 Opposite-Spin Energy      =      -0.0127324577081889 [Eh]
	 Correlation Energy        =      -0.0127324577081889 [Eh]
	 Total Energy              =      -7.2491157721662605 [Eh]
	 SCS Total Energy          =      -7.2516622637078987 [Eh]
                               Psi4 1.8.2 release
    Molecular point group: c1

    Geometry (in Bohr), charge = 1, multiplicity = 1:

       Center              X                  Y                   Z               Mass
    ------------   -----------------  -----------------  -----------------  -----------------
         BR           0.000000000000     0.000000000000     0.000000000000    78.918337600000
         LI           0.000000000000     4.102092751220     0.000000000000     7.016003436600
         LI           4.102092751220     0.000000000000     0.000000000000     7.016003436600

  Charge       = 1
  Multiplicity = 1
  Basis Set: AUG-CC-PVTZ
    Blend: AUG-CC-PVTZ
  Basis Set: (AUG-CC-PVTZ AUX)
    Blend: AUG-CC-PVTZ-JKFIT + DEF2-UNIVERSAL-JKFIT

    Orbital Energies [Eh]
    ---------------------

    Doubly Occupied:

       1A   -490.150220     2A    -65.291384     3A    -58.645849
       4A    -58.645749     5A    -58.645714     6A     -9.964682
       7A     -7.572623     8A     -7.572286     9A     -7.571586
      10A     -3.314385    11A     -3.314265    12A     -3.313617
      13A     -3.313092    14A     -3.313069    15A     -2.671117
      16A     -2.670921    17A     -1.137979    18A     -0.601637
      19A     -0.597430    20A     -0.570856

  @DF-RHF Final Energy: -2587.29195648600307

   => Energetics <=

    Nuclear Repulsion Energy =             52.7447754481789488
    One-Electron Energy =               -3702.3165490507822142
    Two-Electron Energy =                1062.2798171165998156
    Total Energy =                      -2587.2919564860030732
 Dipole X            :         -9.2651093           12.3062783            3.0411690
 Dipole Y            :         -9.2651093           12.3062783            3.0411690
 Dipole Z            :         -0.0000000            0.0000000           -0.0000000
 Magnitude           :                                                    4.3008624
  Basis Set: (AUG-CC-PVTZ AUX)
    Blend: AUG-CC-PVTZ-RI + DEF2-QZVPP-RI
	 Reference Energy          =   -2587.2919564860030732 [Eh]
	 Singles Energy            =      -0.0000000000000000 [Eh]
	 Same-Spin Energy          =      -0.0903942749251330 [Eh]
	 Opposite-Spin Energy      =      -0.2339137413876004 [Eh]
	 Correlation Energy        =      -0.3243080163127334 [Eh]
	 Total Energy              =   -2587.6162645023159712 [Eh]

	 ================> DF-SCS-MP2 Energies <==================
	-----------------------------------------------------------
	 SCS Same-Spin Scale       =       0.3333333333333333 [-]
	 SCS Opposite-Spin Scale   =       1.2000000000000000 [-]
	 SCS Same-Spin Energy      =      -0.0301314249750443 [Eh]
	 SCS Opposite-Spin Energy  =      -0.2806964896651205 [Eh]
	 SCS Correlation Energy    =      -0.3108279146401648 [Eh]
	 SCS Total Energy          =   -2587.6027844006430314 [Eh]
	-----------------------------------------------------------

*** Psi4 exiting successfully. Buy a developer a beer!
