                               Psi4 1.8.2 release

  ==> Input File <==

--------------------------------------------------------------------------
MEMORY 60 GB

molecule dimer {
-1 1
Br         0.000000     0.000000     0.000000
Gh(Li)     0.000000     2.170734     0.000000
Gh(Li)     3.256101     0.000000     0.000000

units ang
no_reorient
no_com
symmetry c1
}

set {
basis        aug-cc-pVTZ
scf_type     df
}

energy("mp2")
--------------------------------------------------------------------------

    Molecular point group: c1

    Geometry (in Angstrom), charge = -1, multiplicity = 1:

       Center              X                  Y                   Z               Mass
    ------------   -----------------  -----------------  -----------------  -----------------
         BR           0.000000000000     0.000000000000     0.000000000000    78.918337600000
      Gh(LI)          0.000000000000     2.170734000000     0.000000000000     7.016003436600
      Gh(LI)          3.256101000000     0.000000000000     0.000000000000     7.016003436600

  Charge       = -1
  Multiplicity = 1
  Basis Set: AUG-CC-PVTZ
    Blend: AUG-CC-PVTZ
  Basis Set: (AUG-CC-PVTZ AUX)
    Blend: AUG-CC-PVTZ-JKFIT + DEF2-UNIVERSAL-JKFIT

    Orbital Energies [Eh]
    ---------------------

    Doubly Occupied:

       1A   -489.721395     2A    -64.861176     3A    -58.215687
       4A    -58.215686     5A    -58.215684     6A     -9.533073
       7A     -7.140418     8A     -7.140411     9A     -7.140399
      10A     -2.882108    11A     -2.882106    12A     -2.882100
      13A     -2.882097    14A     -2.882094    15A     -0.685995
      16A     -0.139340    17A     -0.139337    18A     -0.139332

  @DF-RHF Final Energy: -2572.53369857636699

   => Energetics <=

    Nuclear Repulsion Energy =              0.0000000000000000
    One-Electron Energy =               -3593.6705154909732300
    Two-Electron Energy =                1021.1368169146057880
    Total Energy =                      -2572.5336985763674420
 Dipole X            :          0.0001455            0.0000000            0.0001455
 Dipole Y            :          0.0004080            0.0000000            0.0004080
 Dipole Z            :         -0.0000000            0.0000000           -0.0000000
 Magnitude           :                                                    0.0004332
  Basis Set: (AUG-CC-PVTZ AUX)
    Blend: AUG-CC-PVTZ-RI + DEF2-QZVPP-RI
	 Reference Energy          =   -2572.5336985763669873 [Eh]
	 Singles Energy            =      -0.0000000000000000 [Eh]
	 Same-Spin Energy          =      -0.0890136660222409 [Eh]
	 Opposite-Spin Energy      =      -0.2064487636938173 [Eh]
	 Correlation Energy        =      -0.2954624297160581 [Eh]
	 Total Energy              =   -2572.8291610060832681 [Eh]

	 ================> DF-SCS-MP2 Energies <==================
	-----------------------------------------------------------
	 SCS Same-Spin Scale       =       0.3333333333333333 [-]
	 SCS Opposite-Spin Scale   =       1.2000000000000000 [-]
	 SCS Same-Spin Energy      =      -0.0296712220074136 [Eh]
	 SCS Opposite-Spin Energy  =      -0.2477385164325807 [Eh]
	 SCS Correlation Energy    =      -0.2774097384399943 [Eh]
	 SCS Total Energy          =   -2572.8111083148069156 [Eh]
	-----------------------------------------------------------

*** Psi4 exiting successfully. Buy a developer a beer!
