                               Psi4 1.8.2 release

  ==> Input File <==

--------------------------------------------------------------------------
MEMORY 60 GB

molecule dimer {
1 1
Br         0.000000     0.000000     0.000000
Li         0.000000     2.170734     0.000000
Li         3.256101     0.000000     0.000000

units ang
no_reorient
no_com
symmetry c1
}

set {
basis        aug-cc-pVTZ
scf_type     df
}

energy("mp2")
--------------------------------------------------------------------------

    Molecular point group: c1

    Geometry (in Angstrom), charge = 1, multiplicity = 1:

       Center              X                  Y                   Z               Mass
    ------------   -----------------  -----------------  -----------------  -----------------
         BR           0.000000000000     0.000000000000     0.000000000000    78.918337600000
         LI           0.000000000000     2.170734000000     0.000000000000     7.016003436600
         LI           3.256101000000     0.000000000000     0.000000000000     7.016003436600

  Charge       = 1
  Multiplicity = 1
  Basis Set: AUG-CC-PVTZ
    Blend: AUG-CC-PVTZ
  Basis Set: (AUG-CC-PVTZ AUX)
    Blend: AUG-CC-PVTZ-JKFIT + DEF2-UNIVERSAL-JKFIT

    Orbital Energies [Eh]
    ---------------------

    Doubly Occupied:

       1A   -490.102447     2A    -65.242796     3A    -58.597404
       4A    -58.597146     5A    -58.597140     6A     -9.915348
       7A     -7.523273     8A     -7.522768     9A     -7.522011
      10A     -3.265300    11A     -3.265081    12A     -3.264373
      13A     -3.263434    14A     -3.263414    15A     -2.736282
      16A     -2.633860    17A     -1.077240    18A     -0.545961
      19A     -0.526608    20A     -0.517127

  @DF-RHF Final Energy: -2587.27270808756111

   => Energetics <=

    Nuclear Repulsion Energy =             43.8781648007628462
    One-Electron Energy =               -3686.3437153985382793
    Two-Electron Energy =                1055.1928425102139499
    Total Energy =                      -2587.2727080875611136
 Dipole X            :        -13.2011204           18.4594174            5.2582969
 Dipole Y            :         -9.3282949           12.3062783            2.9779834
 Dipole Z            :         -0.0000000            0.0000000           -0.0000000
 Magnitude           :                                                    6.0430184
  Basis Set: (AUG-CC-PVTZ AUX)
    Blend: AUG-CC-PVTZ-RI + DEF2-QZVPP-RI
	 Reference Energy          =   -2587.2727080875611136 [Eh]
	 Singles Energy            =      -0.0000000000000000 [Eh]
	 Same-Spin Energy          =      -0.0893296968851872 [Eh]
	 Opposite-Spin Energy      =      -0.2310601667233788 [Eh]
	 Correlation Energy        =      -0.3203898636085660 [Eh]
	 Total Energy              =   -2587.5930979511695114 [Eh]

	 ================> DF-SCS-MP2 Energies <==================
	-----------------------------------------------------------
	 SCS Same-Spin Scale       =       0.3333333333333333 [-]
	 SCS Opposite-Spin Scale   =       1.2000000000000000 [-]
	 SCS Same-Spin Energy      =      -0.0297765656283957 [Eh]
	 SCS Opposite-Spin Energy  =      -0.2772722000680545 [Eh]
	 SCS Correlation Energy    =      -0.3070487656964502 [Eh]
	 SCS Total Energy          =   -2587.5797568532575497 [Eh]
	-----------------------------------------------------------

*** Psi4 exiting successfully. Buy a developer a beer!
