                               Psi4 1.8.2 release

  ==> Input File <==

--------------------------------------------------------------------------
MEMORY 60 GB

molecule dimer {
-1 1
Br     0.000000     0.000000     0.000000
--
1 1
Li     0.000000     2.170734     0.000000
--
1 1
Li     2.387807     0.000000     0.000000

units ang
no_reorient
no_com
symmetry c1
}

set {
basis        aug-cc-pVTZ
scf_type     df
}

energy("mp2", bsse_type="cp")
--------------------------------------------------------------------------

                               Psi4 1.8.2 release
    Molecular point group: c1
  Charge       = -1
  Multiplicity = 1
  Basis Set: AUG-CC-PVTZ
    Blend: AUG-CC-PVTZ
  Basis Set: (AUG-CC-PVTZ AUX)
    Blend: AUG-CC-PVTZ-JKFIT + DEF2-UNIVERSAL-JKFIT
  @DF-RHF Final Energy: -2572.53370550288037
    Total Energy =                      -2572.5337055028803661
 Dipole X            :          0.0002778            0.0000000            0.0002778
 Dipole Y            :          0.0003413            0.0000000            0.0003413
 Dipole Z            :          0.0000000            0.0000000            0.0000000
 Magnitude           :                                                    0.0004401
  Basis Set: (AUG-CC-PVTZ AUX)
    Blend: AUG-CC-PVTZ-RI + DEF2-QZVPP-RI
	 Reference Energy          =   -2572.5337055028803661 [Eh]
	 Singles Energy            =      -0.0000000000000000 [Eh]
	 Same-Spin Energy          =      -0.0895970938273967 [Eh]
	 Opposite-Spin Energy      =      -0.2078988297012564 [Eh]
	 Correlation Energy        =      -0.2974959235286531 [Eh]
	 Total Energy              =   -2572.8312014264088248 [Eh]
	 SCS Total Energy          =   -2572.8130497964643837 [Eh]
                               Psi4 1.8.2 release
    Molecular point group: c1
  Basis Set: AUG-CC-PVTZ
    Blend: AUG-CC-PVTZ
  Basis Set: (AUG-CC-PVTZ AUX)
    Blend: AUG-CC-PVTZ-JKFIT + DEF2-UNIVERSAL-JKFIT
  @DF-RHF Final Energy:    -7.23638328245098
    Total Energy =                         -7.2363832824509764
  Basis Set: (AUG-CC-PVTZ AUX)
                               Psi4 1.8.2 release
  @DF-RHF Final Energy:   -14.30889473033877
    Total Energy =                        -14.3088947303387695
                               Psi4 1.8.2 release
  @DF-RHF Final Energy: -2579.99573593155583
    Total Energy =                      -2579.9957359315558278
                               Psi4 1.8.2 release
  @DF-RHF Final Energy: -2579.99949797793806
    Total Energy =                      -2579.9994979779385176
                               Psi4 1.8.2 release
  Multiplicity = 1
  @DF-RHF Final Energy:    -7.23638322898715
    Total Energy =                         -7.2363832289871510
	 Singles Energy            =      -0.0000000000000000 [Eh]
	 Same-Spin Energy          =       0.0000000000000000 [Eh]
	 Opposite-Spin Energy      =      -0.0122591951272570 [Eh]
	 Correlation Energy        =      -0.0122591951272570 [Eh]
	 Total Energy              =      -7.2486424241144078 [Eh]
	 SCS Total Energy          =      -7.2510942631398594 [Eh]
                               Psi4 1.8.2 release
    Molecular point group: c1

    Geometry (in Bohr), charge = 1, multiplicity = 1:

       Center              X                  Y                   Z               Mass
    ------------   -----------------  -----------------  -----------------  -----------------
         BR           0.000000000000     0.000000000000     0.000000000000    78.918337600000
         LI           0.000000000000     4.102092751220     0.000000000000     7.016003436600
         LI           4.512301270451     0.000000000000     0.000000000000     7.016003436600

  Charge       = 1
  Multiplicity = 1
  Basis Set: AUG-CC-PVTZ
    Blend: AUG-CC-PVTZ
  Basis Set: (AUG-CC-PVTZ AUX)
    Blend: AUG-CC-PVTZ-JKFIT + DEF2-UNIVERSAL-JKFIT

    Orbital Energies [Eh]
    ---------------------

    Doubly Occupied:

       1A   -490.141941     2A    -65.282639     3A    -58.637175
       4A    -58.637002     5A    -58.637002     6A     -9.955491
       7A     -7.563426     8A     -7.563033     9A     -7.562267
      10A     -3.305356    11A     -3.305186    12A     -3.304443
      13A     -3.303757    14A     -3.303713    15A     -2.684604
      16A     -2.663189    17A     -1.123894    18A     -0.588321
      19A     -0.583213    20A     -0.558890

  @DF-RHF Final Energy: -2587.29508810622883

   => Energetics <=

    Nuclear Repulsion Energy =             50.3422593466979862
    One-Electron Energy =               -3697.8656189276121040
    Two-Electron Energy =                1060.2282714746850161
    Total Energy =                      -2587.2950881062288317
 Dipole X            :        -10.0917499           13.5369038            3.4451539
 Dipole Y            :         -9.2805332           12.3062783            3.0257451
 Dipole Z            :          0.0000000            0.0000000            0.0000000
 Magnitude           :                                                    4.5852174
  Basis Set: (AUG-CC-PVTZ AUX)
    Blend: AUG-CC-PVTZ-RI + DEF2-QZVPP-RI
	 Reference Energy          =   -2587.2950881062288317 [Eh]
	 Singles Energy            =      -0.0000000000000000 [Eh]
	 Same-Spin Energy          =      -0.0899872899543288 [Eh]
	 Opposite-Spin Energy      =      -0.2329683418549851 [Eh]
	 Correlation Energy        =      -0.3229556318093139 [Eh]
	 Total Energy              =   -2587.6180437380380681 [Eh]

	 ================> DF-SCS-MP2 Energies <==================
	-----------------------------------------------------------
	 SCS Same-Spin Scale       =       0.3333333333333333 [-]
	 SCS Opposite-Spin Scale   =       1.2000000000000000 [-]
	 SCS Same-Spin Energy      =      -0.0299957633181096 [Eh]
	 SCS Opposite-Spin Energy  =      -0.2795620102259821 [Eh]
	 SCS Correlation Energy    =      -0.3095577735440917 [Eh]
	 SCS Total Energy          =   -2587.6046458797727610 [Eh]
	-----------------------------------------------------------

*** Psi4 exiting successfully. Buy a developer a beer!
