                               Psi4 1.8.2 release

  ==> Input File <==

--------------------------------------------------------------------------
MEMORY 60 GB

molecule dimer {
-1 1
Br         0.000000     0.000000     0.000000
Gh(Li)     0.000000     2.170734     0.000000
Gh(Li)     4.341468     0.000000     0.000000

units ang
no_reorient
no_com
symmetry c1
}

set {
basis        aug-cc-pVTZ
scf_type     df
}

energy("mp2")
--------------------------------------------------------------------------

    Molecular point group: c1

    Geometry (in Angstrom), charge = -1, multiplicity = 1:

       Center              X                  Y                   Z               Mass
    ------------   -----------------  -----------------  -----------------  -----------------
         BR           0.000000000000     0.000000000000     0.000000000000    78.918337600000
      Gh(LI)          0.000000000000     2.170734000000     0.000000000000     7.016003436600
      Gh(LI)          4.341468000000     0.000000000000     0.000000000000     7.016003436600

  Charge       = -1
  Multiplicity = 1
  Basis Set: AUG-CC-PVTZ
    Blend: AUG-CC-PVTZ
  Basis Set: (AUG-CC-PVTZ AUX)
    Blend: AUG-CC-PVTZ-JKFIT + DEF2-UNIVERSAL-JKFIT

    Orbital Energies [Eh]
    ---------------------

    Doubly Occupied:

       1A   -489.721271     2A    -64.861091     3A    -58.215597
       4A    -58.215596     5A    -58.215594     6A     -9.533048
       7A     -7.140393     8A     -7.140389     9A     -7.140376
      10A     -2.882082    11A     -2.882079    12A     -2.882072
      13A     -2.882071    14A     -2.882067    15A     -0.685997
      16A     -0.139341    17A     -0.139339    18A     -0.139334

  @DF-RHF Final Energy: -2572.53369463059698

   => Energetics <=

    Nuclear Repulsion Energy =              0.0000000000000000
    One-Electron Energy =               -3593.6719151991142098
    Two-Electron Energy =                1021.1382205685171130
    Total Energy =                      -2572.5336946305969832
 Dipole X            :          0.0001530            0.0000000            0.0001530
 Dipole Y            :          0.0004893            0.0000000            0.0004893
 Dipole Z            :          0.0000000            0.0000000            0.0000000
 Magnitude           :                                                    0.0005127
  Basis Set: (AUG-CC-PVTZ AUX)
    Blend: AUG-CC-PVTZ-RI + DEF2-QZVPP-RI
	 Reference Energy          =   -2572.5336946305969832 [Eh]
	 Singles Energy            =      -0.0000000000000000 [Eh]
	 Same-Spin Energy          =      -0.0887234433953352 [Eh]
	 Opposite-Spin Energy      =      -0.2057551460851026 [Eh]
	 Correlation Energy        =      -0.2944785894804378 [Eh]
	 Total Energy              =   -2572.8281732200775878 [Eh]

	 ================> DF-SCS-MP2 Energies <==================
	-----------------------------------------------------------
	 SCS Same-Spin Scale       =       0.3333333333333333 [-]
	 SCS Opposite-Spin Scale   =       1.2000000000000000 [-]
	 SCS Same-Spin Energy      =      -0.0295744811317784 [Eh]
	 SCS Opposite-Spin Energy  =      -0.2469061753021231 [Eh]
	 SCS Correlation Energy    =      -0.2764806564339015 [Eh]
	 SCS Total Energy          =   -2572.8101752870306882 [Eh]
	-----------------------------------------------------------

*** Psi4 exiting successfully. Buy a developer a beer!
