                               Psi4 1.8.2 release

  ==> Input File <==

--------------------------------------------------------------------------
MEMORY 60 GB

molecule dimer {
-1 1
Br         0.000000     0.000000     0.000000
Gh(Li)     0.000000     2.170734     0.000000
Gh(Li)     2.170734     0.000000     0.000000

units ang
no_reorient
no_com
symmetry c1
}

set {
basis        aug-cc-pVTZ
scf_type     df
}

energy("mp2")
--------------------------------------------------------------------------

    Molecular point group: c1

    Geometry (in Angstrom), charge = -1, multiplicity = 1:

       Center              X                  Y                   Z               Mass
    ------------   -----------------  -----------------  -----------------  -----------------
         BR           0.000000000000     0.000000000000     0.000000000000    78.918337600000
      Gh(LI)          0.000000000000     2.170734000000     0.000000000000     7.016003436600
      Gh(LI)          2.170734000000     0.000000000000     0.000000000000     7.016003436600

  Charge       = -1
  Multiplicity = 1
  Basis Set: AUG-CC-PVTZ
    Blend: AUG-CC-PVTZ
  Basis Set: (AUG-CC-PVTZ AUX)
    Blend: AUG-CC-PVTZ-JKFIT + DEF2-UNIVERSAL-JKFIT

    Orbital Energies [Eh]
    ---------------------

    Doubly Occupied:

       1A   -489.721754     2A    -64.861437     3A    -58.215961
       4A    -58.215958     5A    -58.215958     6A     -9.533160
       7A     -7.140505     8A     -7.140492     9A     -7.140477
      10A     -2.882197    11A     -2.882197    12A     -2.882190
      13A     -2.882185    14A     -2.882183    15A     -0.685994
      16A     -0.139340    17A     -0.139336    18A     -0.139332

  @DF-RHF Final Energy: -2572.53370783376931

   => Energetics <=

    Nuclear Repulsion Energy =              0.0000000000000000
    One-Electron Energy =               -3593.6661010050047480
    Two-Electron Energy =                1021.1323931712357762
    Total Energy =                      -2572.5337078337688581
 Dipole X            :          0.0002907            0.0000000            0.0002907
 Dipole Y            :          0.0002907            0.0000000            0.0002907
 Dipole Z            :         -0.0000000            0.0000000           -0.0000000
 Magnitude           :                                                    0.0004111
  Basis Set: (AUG-CC-PVTZ AUX)
    Blend: AUG-CC-PVTZ-RI + DEF2-QZVPP-RI
	 Reference Energy          =   -2572.5337078337693129 [Eh]
	 Singles Energy            =      -0.0000000000000000 [Eh]
	 Same-Spin Energy          =      -0.0898545474771314 [Eh]
	 Opposite-Spin Energy      =      -0.2085271618526994 [Eh]
	 Correlation Energy        =      -0.2983817093298308 [Eh]
	 Total Energy              =   -2572.8320895430993005 [Eh]

	 ================> DF-SCS-MP2 Energies <==================
	-----------------------------------------------------------
	 SCS Same-Spin Scale       =       0.3333333333333333 [-]
	 SCS Opposite-Spin Scale   =       1.2000000000000000 [-]
	 SCS Same-Spin Energy      =      -0.0299515158257105 [Eh]
	 SCS Opposite-Spin Energy  =      -0.2502325942232392 [Eh]
	 SCS Correlation Energy    =      -0.2801841100489497 [Eh]
	 SCS Total Energy          =   -2572.8138919438183621 [Eh]
	-----------------------------------------------------------

*** Psi4 exiting successfully. Buy a developer a beer!
