                               Psi4 1.8.2 release

  ==> Input File <==

--------------------------------------------------------------------------
MEMORY 60 GB

molecule dimer {
-1 1
Br         0.000000     0.000000     0.000000
Gh(Li)     0.000000     2.170734     0.000000
Gh(Li)     3.039028     0.000000     0.000000

units ang
no_reorient
no_com
symmetry c1
}

set {
basis        aug-cc-pVTZ
scf_type     df
}

energy("mp2")
--------------------------------------------------------------------------

    Molecular point group: c1

    Geometry (in Angstrom), charge = -1, multiplicity = 1:

       Center              X                  Y                   Z               Mass
    ------------   -----------------  -----------------  -----------------  -----------------
         BR           0.000000000000     0.000000000000     0.000000000000    78.918337600000
      Gh(LI)          0.000000000000     2.170734000000     0.000000000000     7.016003436600
      Gh(LI)          3.039028000000     0.000000000000     0.000000000000     7.016003436600

  Charge       = -1
  Multiplicity = 1
  Basis Set: AUG-CC-PVTZ
    Blend: AUG-CC-PVTZ
  Basis Set: (AUG-CC-PVTZ AUX)
    Blend: AUG-CC-PVTZ-JKFIT + DEF2-UNIVERSAL-JKFIT

    Orbital Energies [Eh]
    ---------------------

    Doubly Occupied:

       1A   -489.721436     2A    -64.861205     3A    -58.215718
       4A    -58.215716     5A    -58.215714     6A     -9.533083
       7A     -7.140428     8A     -7.140419     9A     -7.140407
      10A     -2.882118    11A     -2.882116    12A     -2.882110
      13A     -2.882107    14A     -2.882104    15A     -0.685994
      16A     -0.139340    17A     -0.139337    18A     -0.139332

  @DF-RHF Final Energy: -2572.53370006261775

   => Energetics <=

    Nuclear Repulsion Energy =              0.0000000000000000
    One-Electron Energy =               -3593.6700326283912545
    Two-Electron Energy =                1021.1363325657737278
    Total Energy =                      -2572.5337000626177542
 Dipole X            :          0.0001636            0.0000000            0.0001636
 Dipole Y            :          0.0004069            0.0000000            0.0004069
 Dipole Z            :          0.0000000            0.0000000            0.0000000
 Magnitude           :                                                    0.0004386
  Basis Set: (AUG-CC-PVTZ AUX)
    Blend: AUG-CC-PVTZ-RI + DEF2-QZVPP-RI
	 Reference Energy          =   -2572.5337000626177542 [Eh]
	 Singles Energy            =      -0.0000000000000000 [Eh]
	 Same-Spin Energy          =      -0.0891117221561591 [Eh]
	 Opposite-Spin Energy      =      -0.2066962364583653 [Eh]
	 Correlation Energy        =      -0.2958079586145244 [Eh]
	 Total Energy              =   -2572.8295080212324137 [Eh]

	 ================> DF-SCS-MP2 Energies <==================
	-----------------------------------------------------------
	 SCS Same-Spin Scale       =       0.3333333333333333 [-]
	 SCS Opposite-Spin Scale   =       1.2000000000000000 [-]
	 SCS Same-Spin Energy      =      -0.0297039073853864 [Eh]
	 SCS Opposite-Spin Energy  =      -0.2480354837500384 [Eh]
	 SCS Correlation Energy    =      -0.2777393911354247 [Eh]
	 SCS Total Energy          =   -2572.8114394537533371 [Eh]
	-----------------------------------------------------------

*** Psi4 exiting successfully. Buy a developer a beer!
