                               Psi4 1.8.2 release

  ==> Input File <==

--------------------------------------------------------------------------
MEMORY 60 GB

molecule dimer {
-1 1
Br     0.000000     0.000000     0.000000
--
1 1
Li     0.000000     2.170734     0.000000
--
1 1
Li     3.256101     0.000000     0.000000

units ang
no_reorient
no_com
symmetry c1
}

set {
basis        aug-cc-pVTZ
scf_type     df
}

energy("mp2", bsse_type="cp")
--------------------------------------------------------------------------

                               Psi4 1.8.2 release
    Molecular point group: c1
  Charge       = -1
  Multiplicity = 1
  Basis Set: AUG-CC-PVTZ
    Blend: AUG-CC-PVTZ
  Basis Set: (AUG-CC-PVTZ AUX)
    Blend: AUG-CC-PVTZ-JKFIT + DEF2-UNIVERSAL-JKFIT
  @DF-RHF Final Energy: -2572.53369857652524
    Total Energy =                      -2572.5336985765252393
 Dipole X            :          0.0001455            0.0000000            0.0001455
 Dipole Y            :          0.0004080            0.0000000            0.0004080
 Dipole Z            :          0.0000000            0.0000000            0.0000000
 Magnitude           :                                                    0.0004332
  Basis Set: (AUG-CC-PVTZ AUX)
    Blend: AUG-CC-PVTZ-RI + DEF2-QZVPP-RI
	 Reference Energy          =   -2572.5336985765252393 [Eh]
	 Singles Energy            =      -0.0000000000000000 [Eh]
	 Same-Spin Energy          =      -0.0890136660222066 [Eh]
	 Opposite-Spin Energy      =      -0.2064487636937656 [Eh]
	 Correlation Energy        =      -0.2954624297159723 [Eh]
	 Total Energy              =   -2572.8291610062410655 [Eh]
	 SCS Total Energy          =   -2572.8111083149651677 [Eh]
                               Psi4 1.8.2 release
    Molecular point group: c1
  Basis Set: AUG-CC-PVTZ
    Blend: AUG-CC-PVTZ
  Basis Set: (AUG-CC-PVTZ AUX)
    Blend: AUG-CC-PVTZ-JKFIT + DEF2-UNIVERSAL-JKFIT
  @DF-RHF Final Energy:    -7.23638321000436
    Total Energy =                         -7.2363832100043588
  Basis Set: (AUG-CC-PVTZ AUX)
                               Psi4 1.8.2 release
  @DF-RHF Final Energy:   -14.33758964456713
    Total Energy =                        -14.3375896445671334
                               Psi4 1.8.2 release
  @DF-RHF Final Energy: -2579.94722766005225
    Total Energy =                      -2579.9472276600522491
                               Psi4 1.8.2 release
  @DF-RHF Final Energy: -2579.99947264884577
    Total Energy =                      -2579.9994726488457673
                               Psi4 1.8.2 release
  Multiplicity = 1
  @DF-RHF Final Energy:    -7.23638306541675
    Total Energy =                         -7.2363830654167494
	 Singles Energy            =      -0.0000000000000000 [Eh]
	 Same-Spin Energy          =       0.0000000000000000 [Eh]
	 Opposite-Spin Energy      =      -0.0114695971296630 [Eh]
	 Correlation Energy        =      -0.0114695971296630 [Eh]
	 Total Energy              =      -7.2478526625464124 [Eh]
	 SCS Total Energy          =      -7.2501465819723450 [Eh]
                               Psi4 1.8.2 release
    Molecular point group: c1

    Geometry (in Bohr), charge = 1, multiplicity = 1:

       Center              X                  Y                   Z               Mass
    ------------   -----------------  -----------------  -----------------  -----------------
         BR           0.000000000000     0.000000000000     0.000000000000    78.918337600000
         LI           0.000000000000     4.102092751220     0.000000000000     7.016003436600
         LI           6.153139126829     0.000000000000     0.000000000000     7.016003436600

  Charge       = 1
  Multiplicity = 1
  Basis Set: AUG-CC-PVTZ
    Blend: AUG-CC-PVTZ
  Basis Set: (AUG-CC-PVTZ AUX)
    Blend: AUG-CC-PVTZ-JKFIT + DEF2-UNIVERSAL-JKFIT

    Orbital Energies [Eh]
    ---------------------

    Doubly Occupied:

       1A   -490.102447     2A    -65.242796     3A    -58.597404
       4A    -58.597146     5A    -58.597140     6A     -9.915348
       7A     -7.523273     8A     -7.522768     9A     -7.522011
      10A     -3.265300    11A     -3.265081    12A     -3.264373
      13A     -3.263434    14A     -3.263414    15A     -2.736282
      16A     -2.633860    17A     -1.077240    18A     -0.545961
      19A     -0.526608    20A     -0.517127

  @DF-RHF Final Energy: -2587.27270808770390

   => Energetics <=

    Nuclear Repulsion Energy =             43.8781648007628462
    One-Electron Energy =               -3686.3437153986583326
    Two-Electron Energy =                1055.1928425101914399
    Total Energy =                      -2587.2727080877039043
 Dipole X            :        -13.2011204           18.4594174            5.2582969
 Dipole Y            :         -9.3282949           12.3062783            2.9779834
 Dipole Z            :          0.0000000            0.0000000            0.0000000
 Magnitude           :                                                    6.0430184
  Basis Set: (AUG-CC-PVTZ AUX)
    Blend: AUG-CC-PVTZ-RI + DEF2-QZVPP-RI
	 Reference Energy          =   -2587.2727080877039043 [Eh]
	 Singles Energy            =      -0.0000000000000000 [Eh]
	 Same-Spin Energy          =      -0.0893296968851469 [Eh]
	 Opposite-Spin Energy      =      -0.2310601667228364 [Eh]
	 Correlation Energy        =      -0.3203898636079833 [Eh]
	 Total Energy              =   -2587.5930979513118473 [Eh]

	 ================> DF-SCS-MP2 Energies <==================
	-----------------------------------------------------------
	 SCS Same-Spin Scale       =       0.3333333333333333 [-]
	 SCS Opposite-Spin Scale   =       1.2000000000000000 [-]
	 SCS Same-Spin Energy      =      -0.0297765656283823 [Eh]
	 SCS Opposite-Spin Energy  =      -0.2772722000674037 [Eh]
	 SCS Correlation Energy    =      -0.3070487656957860 [Eh]
	 SCS Total Energy          =   -2587.5797568533998856 [Eh]
	-----------------------------------------------------------

*** Psi4 exiting successfully. Buy a developer a beer!
