                               Psi4 1.8.2 release

  ==> Input File <==

--------------------------------------------------------------------------
MEMORY 60 GB

molecule dimer {
-1 1
Br         0.000000     0.000000     0.000000
Gh(Li)     0.000000     2.170734     0.000000
Gh(Li)     2.387807     0.000000     0.000000

units ang
no_reorient
no_com
symmetry c1
}

set {
basis        aug-cc-pVTZ
scf_type     df
}

energy("mp2")
--------------------------------------------------------------------------

    Molecular point group: c1

    Geometry (in Angstrom), charge = -1, multiplicity = 1:

       Center              X                  Y                   Z               Mass
    ------------   -----------------  -----------------  -----------------  -----------------
         BR           0.000000000000     0.000000000000     0.000000000000    78.918337600000
      Gh(LI)          0.000000000000     2.170734000000     0.000000000000     7.016003436600
      Gh(LI)          2.387807000000     0.000000000000     0.000000000000     7.016003436600

  Charge       = -1
  Multiplicity = 1
  Basis Set: AUG-CC-PVTZ
    Blend: AUG-CC-PVTZ
  Basis Set: (AUG-CC-PVTZ AUX)
    Blend: AUG-CC-PVTZ-JKFIT + DEF2-UNIVERSAL-JKFIT

    Orbital Energies [Eh]
    ---------------------

    Doubly Occupied:

       1A   -489.721643     2A    -64.861355     3A    -58.215876
       4A    -58.215873     5A    -58.215872     6A     -9.533132
       7A     -7.140478     8A     -7.140465     9A     -7.140451
      10A     -2.882168    11A     -2.882168    12A     -2.882162
      13A     -2.882157    14A     -2.882155    15A     -0.685994
      16A     -0.139339    17A     -0.139336    18A     -0.139332

  @DF-RHF Final Energy: -2572.53370550312093

   => Energetics <=

    Nuclear Repulsion Energy =              0.0000000000000000
    One-Electron Energy =               -3593.6674948038976254
    Two-Electron Energy =                1021.1337893007769253
    Total Energy =                      -2572.5337055031204727
 Dipole X            :          0.0002778            0.0000000            0.0002778
 Dipole Y            :          0.0003413            0.0000000            0.0003413
 Dipole Z            :          0.0000000            0.0000000            0.0000000
 Magnitude           :                                                    0.0004401
  Basis Set: (AUG-CC-PVTZ AUX)
    Blend: AUG-CC-PVTZ-RI + DEF2-QZVPP-RI
	 Reference Energy          =   -2572.5337055031209275 [Eh]
	 Singles Energy            =      -0.0000000000000000 [Eh]
	 Same-Spin Energy          =      -0.0895970938273026 [Eh]
	 Opposite-Spin Energy      =      -0.2078988297010216 [Eh]
	 Correlation Energy        =      -0.2974959235283242 [Eh]
	 Total Energy              =   -2572.8312014266493861 [Eh]

	 ================> DF-SCS-MP2 Energies <==================
	-----------------------------------------------------------
	 SCS Same-Spin Scale       =       0.3333333333333333 [-]
	 SCS Opposite-Spin Scale   =       1.2000000000000000 [-]
	 SCS Same-Spin Energy      =      -0.0298656979424342 [Eh]
	 SCS Opposite-Spin Energy  =      -0.2494785956412259 [Eh]
	 SCS Correlation Energy    =      -0.2793442935836601 [Eh]
	 SCS Total Energy          =   -2572.8130497967044903 [Eh]
	-----------------------------------------------------------

*** Psi4 exiting successfully. Buy a developer a beer!
