                               Psi4 1.8.2 release

  ==> Input File <==

--------------------------------------------------------------------------
MEMORY 60 GB

molecule dimer {
-1 1
Br     0.000000     0.000000     0.000000
--
1 1
Li     0.000000     2.170734     0.000000
--
1 1
Li     4.341468     0.000000     0.000000

units ang
no_reorient
no_com
symmetry c1
}

set {
basis        aug-cc-pVTZ
scf_type     df
}

energy("mp2", bsse_type="cp")
--------------------------------------------------------------------------

                               Psi4 1.8.2 release
    Molecular point group: c1
  Charge       = -1
  Multiplicity = 1
  Basis Set: AUG-CC-PVTZ
    Blend: AUG-CC-PVTZ
  Basis Set: (AUG-CC-PVTZ AUX)
    Blend: AUG-CC-PVTZ-JKFIT + DEF2-UNIVERSAL-JKFIT
  @DF-RHF Final Energy: -2572.53369463067611
    Total Energy =                      -2572.5336946306761092
 Dipole X            :          0.0001530            0.0000000            0.0001530
 Dipole Y            :          0.0004893            0.0000000            0.0004893
 Dipole Z            :         -0.0000000            0.0000000           -0.0000000
 Magnitude           :                                                    0.0005127
  Basis Set: (AUG-CC-PVTZ AUX)
    Blend: AUG-CC-PVTZ-RI + DEF2-QZVPP-RI
	 Reference Energy          =   -2572.5336946306761092 [Eh]
	 Singles Energy            =      -0.0000000000000000 [Eh]
	 Same-Spin Energy          =      -0.0887234433951769 [Eh]
	 Opposite-Spin Energy      =      -0.2057551460848379 [Eh]
	 Correlation Energy        =      -0.2944785894800148 [Eh]
	 Total Energy              =   -2572.8281732201562590 [Eh]
	 SCS Total Energy          =   -2572.8101752871098142 [Eh]
                               Psi4 1.8.2 release
    Molecular point group: c1
  Basis Set: AUG-CC-PVTZ
    Blend: AUG-CC-PVTZ
  Basis Set: (AUG-CC-PVTZ AUX)
    Blend: AUG-CC-PVTZ-JKFIT + DEF2-UNIVERSAL-JKFIT
  @DF-RHF Final Energy:    -7.23638314984002
    Total Energy =                         -7.2363831498400222
  Basis Set: (AUG-CC-PVTZ AUX)
                               Psi4 1.8.2 release
  @DF-RHF Final Energy:   -14.36376425982914
    Total Energy =                        -14.3637642598291357
                               Psi4 1.8.2 release
  @DF-RHF Final Energy: -2579.89901979016122
    Total Energy =                      -2579.8990197901612191
                               Psi4 1.8.2 release
  @DF-RHF Final Energy: -2579.99945807226050
    Total Energy =                      -2579.9994580722604951
                               Psi4 1.8.2 release
  Multiplicity = 1
  @DF-RHF Final Energy:    -7.23638275486813
    Total Energy =                         -7.2363827548681261
	 Singles Energy            =      -0.0000000000000000 [Eh]
	 Same-Spin Energy          =       0.0000000000000000 [Eh]
	 Opposite-Spin Energy      =      -0.0111476509921595 [Eh]
	 Correlation Energy        =      -0.0111476509921595 [Eh]
	 Total Energy              =      -7.2475304058602852 [Eh]
	 SCS Total Energy          =      -7.2497599360587177 [Eh]
                               Psi4 1.8.2 release
    Molecular point group: c1

    Geometry (in Bohr), charge = 1, multiplicity = 1:

       Center              X                  Y                   Z               Mass
    ------------   -----------------  -----------------  -----------------  -----------------
         BR           0.000000000000     0.000000000000     0.000000000000    78.918337600000
         LI           0.000000000000     4.102092751220     0.000000000000     7.016003436600
         LI           8.204185502439     0.000000000000     0.000000000000     7.016003436600

  Charge       = 1
  Multiplicity = 1
  Basis Set: AUG-CC-PVTZ
    Blend: AUG-CC-PVTZ
  Basis Set: (AUG-CC-PVTZ AUX)
    Blend: AUG-CC-PVTZ-JKFIT + DEF2-UNIVERSAL-JKFIT

    Orbital Energies [Eh]
    ---------------------

    Doubly Occupied:

       1A   -490.059252     2A    -65.199755     3A    -58.554284
       4A    -58.554143     5A    -58.554138     6A     -9.872457
       7A     -7.480207     8A     -7.479939     9A     -7.479379
      10A     -3.222027    11A     -3.221958    12A     -3.221354
      13A     -3.220997    14A     -3.220924    15A     -2.770140
      16A     -2.604000    17A     -1.035223    18A     -0.505903
      19A     -0.480271    20A     -0.477042

  @DF-RHF Final Energy: -2587.25209461492932

   => Energetics <=

    Nuclear Repulsion Energy =             39.3762238339144091
    One-Electron Energy =               -3678.8298528178247579
    Two-Electron Energy =                1052.2015343689809015
    Total Energy =                      -2587.2520946149293195
 Dipole X            :        -16.9559377           24.6125565            7.6566189
 Dipole Y            :         -9.3563441           12.3062783            2.9499341
 Dipole Z            :          0.0000000            0.0000000            0.0000000
 Magnitude           :                                                    8.2052376
  Basis Set: (AUG-CC-PVTZ AUX)
    Blend: AUG-CC-PVTZ-RI + DEF2-QZVPP-RI
	 Reference Energy          =   -2587.2520946149293195 [Eh]
	 Singles Energy            =      -0.0000000000000000 [Eh]
	 Same-Spin Energy          =      -0.0890211519674626 [Eh]
	 Opposite-Spin Energy      =      -0.2296764055345150 [Eh]
	 Correlation Energy        =      -0.3186975575019775 [Eh]
	 Total Energy              =   -2587.5707921724310836 [Eh]

	 ================> DF-SCS-MP2 Energies <==================
	-----------------------------------------------------------
	 SCS Same-Spin Scale       =       0.3333333333333333 [-]
	 SCS Opposite-Spin Scale   =       1.2000000000000000 [-]
	 SCS Same-Spin Energy      =      -0.0296737173224875 [Eh]
	 SCS Opposite-Spin Energy  =      -0.2756116866414179 [Eh]
	 SCS Correlation Energy    =      -0.3052854039639055 [Eh]
	 SCS Total Energy          =   -2587.5573800188931273 [Eh]
	-----------------------------------------------------------

*** Psi4 exiting successfully. Buy a developer a beer!
