                               Psi4 1.8.2 release

  ==> Input File <==

--------------------------------------------------------------------------
MEMORY 60 GB

molecule dimer {
-1 1
Br     0.000000     0.000000     0.000000
--
1 1
Li     0.000000     2.170734     0.000000
--
1 1
Li     2.604881     0.000000     0.000000

units ang
no_reorient
no_com
symmetry c1
}

set {
basis        aug-cc-pVTZ
scf_type     df
}

energy("mp2", bsse_type="cp")
--------------------------------------------------------------------------

                               Psi4 1.8.2 release
    Molecular point group: c1
  Charge       = -1
  Multiplicity = 1
  Basis Set: AUG-CC-PVTZ
    Blend: AUG-CC-PVTZ
  Basis Set: (AUG-CC-PVTZ AUX)
    Blend: AUG-CC-PVTZ-JKFIT + DEF2-UNIVERSAL-JKFIT
  @DF-RHF Final Energy: -2572.53370352692855
    Total Energy =                      -2572.5337035269285479
 Dipole X            :          0.0002429            0.0000000            0.0002429
 Dipole Y            :          0.0003795            0.0000000            0.0003795
 Dipole Z            :          0.0000000            0.0000000            0.0000000
 Magnitude           :                                                    0.0004506
  Basis Set: (AUG-CC-PVTZ AUX)
    Blend: AUG-CC-PVTZ-RI + DEF2-QZVPP-RI
	 Reference Energy          =   -2572.5337035269285479 [Eh]
	 Singles Energy            =      -0.0000000000000000 [Eh]
	 Same-Spin Energy          =      -0.0893937300565119 [Eh]
	 Opposite-Spin Energy      =      -0.2074009116600939 [Eh]
	 Correlation Energy        =      -0.2967946417166059 [Eh]
	 Total Energy              =   -2572.8304981686451356 [Eh]
	 SCS Total Energy          =   -2572.8123825309394306 [Eh]
                               Psi4 1.8.2 release
    Molecular point group: c1
  Basis Set: AUG-CC-PVTZ
    Blend: AUG-CC-PVTZ
  Basis Set: (AUG-CC-PVTZ AUX)
    Blend: AUG-CC-PVTZ-JKFIT + DEF2-UNIVERSAL-JKFIT
  @DF-RHF Final Energy:    -7.23638325717535
    Total Energy =                         -7.2363832571753512
  Basis Set: (AUG-CC-PVTZ AUX)
                               Psi4 1.8.2 release
  @DF-RHF Final Energy:   -14.31679227316220
    Total Energy =                        -14.3167922731621999
                               Psi4 1.8.2 release
  @DF-RHF Final Energy: -2579.98548408678153
    Total Energy =                      -2579.9854840867819803
                               Psi4 1.8.2 release
  @DF-RHF Final Energy: -2579.99949062122323
    Total Energy =                      -2579.9994906212236856
                               Psi4 1.8.2 release
  Multiplicity = 1
  @DF-RHF Final Energy:    -7.23638321557780
    Total Energy =                         -7.2363832155777974
	 Singles Energy            =      -0.0000000000000000 [Eh]
	 Same-Spin Energy          =       0.0000000000000000 [Eh]
	 Opposite-Spin Energy      =      -0.0119308421786843 [Eh]
	 Correlation Energy        =      -0.0119308421786843 [Eh]
	 Total Energy              =      -7.2483140577564820 [Eh]
	 SCS Total Energy          =      -7.2507002261922189 [Eh]
                               Psi4 1.8.2 release
    Molecular point group: c1

    Geometry (in Bohr), charge = 1, multiplicity = 1:

       Center              X                  Y                   Z               Mass
    ------------   -----------------  -----------------  -----------------  -----------------
         BR           0.000000000000     0.000000000000     0.000000000000    78.918337600000
         LI           0.000000000000     4.102092751220     0.000000000000     7.016003436600
         LI           4.922511679409     0.000000000000     0.000000000000     7.016003436600

  Charge       = 1
  Multiplicity = 1
  Basis Set: AUG-CC-PVTZ
    Blend: AUG-CC-PVTZ
  Basis Set: (AUG-CC-PVTZ AUX)
    Blend: AUG-CC-PVTZ-JKFIT + DEF2-UNIVERSAL-JKFIT

    Orbital Energies [Eh]
    ---------------------

    Doubly Occupied:

       1A   -490.132650     2A    -65.273117     3A    -58.627704
       4A    -58.627477     5A    -58.627470     6A     -9.945757
       7A     -7.553723     8A     -7.553225     9A     -7.552441
      10A     -3.295740    11A     -3.295515    12A     -3.294769
      13A     -3.293865    14A     -3.293837    15A     -2.698994
      16A     -2.655549    17A     -1.110945    18A     -0.576705
      19A     -0.567897    20A     -0.547708

  @DF-RHF Final Energy: -2587.29161130387001

   => Energetics <=

    Nuclear Repulsion Energy =             48.3318307609709024
    One-Electron Energy =               -3694.1967068804033261
    Two-Electron Energy =                1058.5732648155624247
    Total Energy =                      -2587.2916113038700132
 Dipole X            :        -10.8949139           14.7675350            3.8726212
 Dipole Y            :         -9.2947928           12.3062783            3.0114854
 Dipole Z            :          0.0000000            0.0000000            0.0000000
 Magnitude           :                                                    4.9057353
  Basis Set: (AUG-CC-PVTZ AUX)
    Blend: AUG-CC-PVTZ-RI + DEF2-QZVPP-RI
	 Reference Energy          =   -2587.2916113038700132 [Eh]
	 Singles Energy            =      -0.0000000000000000 [Eh]
	 Same-Spin Energy          =      -0.0897194936076114 [Eh]
	 Opposite-Spin Energy      =      -0.2323083419007013 [Eh]
	 Correlation Energy        =      -0.3220278355083127 [Eh]
	 Total Energy              =   -2587.6136391393783924 [Eh]

	 ================> DF-SCS-MP2 Energies <==================
	-----------------------------------------------------------
	 SCS Same-Spin Scale       =       0.3333333333333333 [-]
	 SCS Opposite-Spin Scale   =       1.2000000000000000 [-]
	 SCS Same-Spin Energy      =      -0.0299064978692038 [Eh]
	 SCS Opposite-Spin Energy  =      -0.2787700102808416 [Eh]
	 SCS Correlation Energy    =      -0.3086765081500454 [Eh]
	 SCS Total Energy          =   -2587.6002878120202695 [Eh]
	-----------------------------------------------------------

*** Psi4 exiting successfully. Buy a developer a beer!
