                               Psi4 1.9 release

  ==> Input File <==

--------------------------------------------------------------------------
MEMORY 60 GB

molecule dimer {
0 1
Br     0.000000     0.000000     0.000000
Li     0.000000     2.170734     0.000000
--
1 1
Li     3.039028     0.000000     0.000000

units ang
no_reorient
no_com
symmetry c1
}

set {
basis        aug-cc-pVTZ
scf_type     df
}

energy("mp2", bsse_type="cp")
--------------------------------------------------------------------------

                               Psi4 1.9 release
    Molecular point group: c1
  Charge       = 1
  Multiplicity = 1
  Basis Set: AUG-CC-PVTZ
    Blend: AUG-CC-PVTZ
  Basis Set: (AUG-CC-PVTZ AUX)
    Blend: AUG-CC-PVTZ-JKFIT + DEF2-UNIVERSAL-JKFIT
  @DF-RHF Final Energy:    -7.23638312331463
    Total Energy =                         -7.2363831233146350
 Dipole X            :        -11.4859340           17.2287918            5.7428579
 Dipole Y            :          0.0000192            0.0000000            0.0000192
 Dipole Z            :         -0.0000000            0.0000000           -0.0000000
 Magnitude           :                                                    5.7428579
  Basis Set: (AUG-CC-PVTZ AUX)
    Blend: AUG-CC-PVTZ-RI + DEF2-QZVPP-RI
	 Reference Energy          =      -7.2363831233146350 [Eh]
	 Singles Energy            =      -0.0000000000000000 [Eh]
	 Same-Spin Energy          =      -0.0000000000000000 [Eh]
	 Opposite-Spin Energy      =      -0.0115733803932907 [Eh]
	 Correlation Energy        =      -0.0115733803932907 [Eh]
	 Total Energy              =      -7.2479565037079254 [Eh]
	 SCS Total Energy          =      -7.2502711797865835 [Eh]
                               Psi4 1.9 release
    Molecular point group: c1
  Multiplicity = 1
  Basis Set: AUG-CC-PVTZ
    Blend: AUG-CC-PVTZ
  Basis Set: (AUG-CC-PVTZ AUX)
    Blend: AUG-CC-PVTZ-JKFIT + DEF2-UNIVERSAL-JKFIT
  @DF-RHF Final Energy: -2579.99947791486238
    Total Energy =                      -2579.9994779148623820
  Basis Set: (AUG-CC-PVTZ AUX)
	 Singles Energy            =      -0.0000000000000000 [Eh]
	 Same-Spin Energy          =      -0.0893649130542471 [Eh]
	 Opposite-Spin Energy      =      -0.2193134304181411 [Eh]
	 Correlation Energy        =      -0.3086783434723882 [Eh]
	 Total Energy              =   -2580.3081562583347477 [Eh]
	 SCS Total Energy          =   -2580.2924423357153501 [Eh]
                               Psi4 1.9 release
    Molecular point group: c1

    Geometry (in Bohr), charge = 1, multiplicity = 1:

       Center              X                  Y                   Z               Mass
    ------------   -----------------  -----------------  -----------------  -----------------
         BR           0.000000000000     0.000000000000     0.000000000000    78.918337600000
         LI           0.000000000000     4.102092751220     0.000000000000     7.016003436600
         LI           5.742930607598     0.000000000000     0.000000000000     7.016003436600

  Charge       = 1
  Multiplicity = 1
  Basis Set: AUG-CC-PVTZ
    Blend: AUG-CC-PVTZ
  Basis Set: (AUG-CC-PVTZ AUX)
    Blend: AUG-CC-PVTZ-JKFIT + DEF2-UNIVERSAL-JKFIT

    Orbital Energies [Eh]
    ---------------------

    Doubly Occupied:

       1A   -490.112568     2A    -65.252906     3A    -58.607521
       4A    -58.607255     5A    -58.607247     6A     -9.925442
       7A     -7.533405     8A     -7.532850     9A     -7.532078
      10A     -3.275452    11A     -3.275208    12A     -3.274486
      13A     -3.273472    14A     -3.273456    15A     -2.725281
      16A     -2.640853    17A     -1.087735    18A     -0.555703
      19A     -0.539201    20A     -0.526860

  @DF-RHF Final Energy: -2587.27899472847457

   => Energetics <=

    Nuclear Repulsion Energy =             45.1552767452434622
    One-Electron Energy =               -3688.5505817073931212
    Two-Electron Energy =                1056.1163102336747670
    Total Energy =                      -2587.2789947284745722
 Dipole X            :        -12.4451403           17.2287918            4.7836515
 Dipole Y            :         -9.3187600           12.3062783            2.9875182
 Dipole Z            :         -0.0000000            0.0000000           -0.0000000
 Magnitude           :                                                    5.6399102
  Basis Set: (AUG-CC-PVTZ AUX)
    Blend: AUG-CC-PVTZ-RI + DEF2-QZVPP-RI
	 Reference Energy          =   -2587.2789947284745722 [Eh]
	 Singles Energy            =      -0.0000000000000000 [Eh]
	 Same-Spin Energy          =      -0.0894207573323881 [Eh]
	 Opposite-Spin Energy      =      -0.2314189307670412 [Eh]
	 Correlation Energy        =      -0.3208396880994293 [Eh]
	 Total Energy              =   -2587.5998344165741401 [Eh]

	 ================> DF-SCS-MP2 Energies <==================
	-----------------------------------------------------------
	 SCS Same-Spin Scale       =       0.3333333333333333 [-]
	 SCS Opposite-Spin Scale   =       1.2000000000000000 [-]
	 SCS Same-Spin Energy      =      -0.0298069191107960 [Eh]
	 SCS Opposite-Spin Energy  =      -0.2777027169204495 [Eh]
	 SCS Correlation Energy    =      -0.3075096360312455 [Eh]
	 SCS Total Energy          =   -2587.5865043645057995 [Eh]
	-----------------------------------------------------------

*** Psi4 exiting successfully. Buy a developer a beer!
