                               Psi4 1.8.2 release

  ==> Input File <==

--------------------------------------------------------------------------
MEMORY 60 GB

molecule dimer {
-1 1
Br         0.000000     0.000000     0.000000
Gh(Li)     0.000000     2.170734     0.000000
Gh(Li)     2.821954     0.000000     0.000000

units ang
no_reorient
no_com
symmetry c1
}

set {
basis        aug-cc-pVTZ
scf_type     df
}

energy("mp2")
--------------------------------------------------------------------------

    Molecular point group: c1

    Geometry (in Angstrom), charge = -1, multiplicity = 1:

       Center              X                  Y                   Z               Mass
    ------------   -----------------  -----------------  -----------------  -----------------
         BR           0.000000000000     0.000000000000     0.000000000000    78.918337600000
      Gh(LI)          0.000000000000     2.170734000000     0.000000000000     7.016003436600
      Gh(LI)          2.821954000000     0.000000000000     0.000000000000     7.016003436600

  Charge       = -1
  Multiplicity = 1
  Basis Set: AUG-CC-PVTZ
    Blend: AUG-CC-PVTZ
  Basis Set: (AUG-CC-PVTZ AUX)
    Blend: AUG-CC-PVTZ-JKFIT + DEF2-UNIVERSAL-JKFIT

    Orbital Energies [Eh]
    ---------------------

    Doubly Occupied:

       1A   -489.721488     2A    -64.861243     3A    -58.215757
       4A    -58.215755     5A    -58.215754     6A     -9.533095
       7A     -7.140440     8A     -7.140430     9A     -7.140417
      10A     -2.882130    11A     -2.882128    12A     -2.882123
      13A     -2.882119    14A     -2.882116    15A     -0.685994
      16A     -0.139339    17A     -0.139337    18A     -0.139332

  @DF-RHF Final Energy: -2572.53370173364965

   => Energetics <=

    Nuclear Repulsion Energy =              0.0000000000000000
    One-Electron Energy =               -3593.6694057011491168
    Two-Electron Energy =                1021.1357039674996940
    Total Energy =                      -2572.5337017336496501
 Dipole X            :          0.0001995            0.0000000            0.0001995
 Dipole Y            :          0.0004005            0.0000000            0.0004005
 Dipole Z            :          0.0000000            0.0000000            0.0000000
 Magnitude           :                                                    0.0004474
  Basis Set: (AUG-CC-PVTZ AUX)
    Blend: AUG-CC-PVTZ-RI + DEF2-QZVPP-RI
	 Reference Energy          =   -2572.5337017336496501 [Eh]
	 Singles Energy            =      -0.0000000000000000 [Eh]
	 Same-Spin Energy          =      -0.0892352319165169 [Eh]
	 Opposite-Spin Energy      =      -0.2070072237608224 [Eh]
	 Correlation Energy        =      -0.2962424556773394 [Eh]
	 Total Energy              =   -2572.8299441893268522 [Eh]

	 ================> DF-SCS-MP2 Energies <==================
	-----------------------------------------------------------
	 SCS Same-Spin Scale       =       0.3333333333333333 [-]
	 SCS Opposite-Spin Scale   =       1.2000000000000000 [-]
	 SCS Same-Spin Energy      =      -0.0297450773055056 [Eh]
	 SCS Opposite-Spin Energy  =      -0.2484086685129869 [Eh]
	 SCS Correlation Energy    =      -0.2781537458184926 [Eh]
	 SCS Total Energy          =   -2572.8118554794682495 [Eh]
	-----------------------------------------------------------

*** Psi4 exiting successfully. Buy a developer a beer!
