                               Psi4 1.9 release

  ==> Input File <==

--------------------------------------------------------------------------
MEMORY 60 GB

molecule dimer {
0 1
Li     0.000000     0.000000     0.000000
Br     0.000000     2.170734     0.000000
--
-1 1
Br     4.341468     0.000000     0.000000

units ang
no_reorient
no_com
symmetry c1
}

set {
basis        aug-cc-pVTZ
scf_type     df
}

energy("mp2", bsse_type="cp")
--------------------------------------------------------------------------

                               Psi4 1.9 release
    Molecular point group: c1
  Charge       = -1
  Multiplicity = 1
  Basis Set: AUG-CC-PVTZ
    Blend: AUG-CC-PVTZ
  Basis Set: (AUG-CC-PVTZ AUX)
    Blend: AUG-CC-PVTZ-JKFIT + DEF2-UNIVERSAL-JKFIT
  @DF-RHF Final Energy: -2572.53367311095872
    Total Energy =                      -2572.5336731109582615
 Dipole X            :       -295.3507613          287.1464926           -8.2042687
 Dipole Y            :         -0.0000054            0.0000000           -0.0000054
 Dipole Z            :          0.0000000            0.0000000            0.0000000
 Magnitude           :                                                    8.2042687
  Basis Set: (AUG-CC-PVTZ AUX)
    Blend: AUG-CC-PVTZ-RI + DEF2-QZVPP-RI
	 Reference Energy          =   -2572.5336731109587163 [Eh]
	 Singles Energy            =      -0.0000000000000000 [Eh]
	 Same-Spin Energy          =      -0.0870834107558427 [Eh]
	 Opposite-Spin Energy      =      -0.2018679230044485 [Eh]
	 Correlation Energy        =      -0.2889513337602912 [Eh]
	 Total Energy              =   -2572.8226244447191675 [Eh]
	 SCS Total Energy          =   -2572.8049424221494519 [Eh]
                               Psi4 1.9 release
    Molecular point group: c1
  Multiplicity = 1
  Basis Set: AUG-CC-PVTZ
    Blend: AUG-CC-PVTZ
  Basis Set: (AUG-CC-PVTZ AUX)
    Blend: AUG-CC-PVTZ-JKFIT + DEF2-UNIVERSAL-JKFIT
  @DF-RHF Final Energy: -2579.99945576950950
    Total Energy =                      -2579.9994557695099502
  Basis Set: (AUG-CC-PVTZ AUX)
	 Singles Energy            =      -0.0000000000000000 [Eh]
	 Same-Spin Energy          =      -0.0888307506118389 [Eh]
	 Opposite-Spin Energy      =      -0.2179938524742454 [Eh]
	 Correlation Energy        =      -0.3068246030860843 [Eh]
	 Total Energy              =   -2580.3062803725956655 [Eh]
	 SCS Total Energy          =   -2580.2906586426825015 [Eh]
                               Psi4 1.9 release
    Molecular point group: c1

    Geometry (in Bohr), charge = -1, multiplicity = 1:

       Center              X                  Y                   Z               Mass
    ------------   -----------------  -----------------  -----------------  -----------------
         LI           0.000000000000     0.000000000000     0.000000000000     7.016003436600
         BR           0.000000000000     4.102092751220     0.000000000000    78.918337600000
         BR           8.204185502439     0.000000000000     0.000000000000    78.918337600000

  Charge       = -1
  Multiplicity = 1
  Basis Set: AUG-CC-PVTZ
    Blend: AUG-CC-PVTZ
  Basis Set: (AUG-CC-PVTZ AUX)
    Blend: AUG-CC-PVTZ-JKFIT + DEF2-UNIVERSAL-JKFIT

    Orbital Energies [Eh]
    ---------------------

    Doubly Occupied:

       1A   -489.822203     2A   -489.733521     3A    -64.962836
       4A    -64.873554     5A    -58.317314     6A    -58.317301
       7A    -58.317225     8A    -58.228072     9A    -58.228015
      10A    -58.227996    11A     -9.635639    12A     -9.545872
      13A     -7.243592    14A     -7.242954    15A     -7.242726
      16A     -7.153426    17A     -7.153146    18A     -7.153044
      19A     -2.985266    20A     -2.985034    21A     -2.984757
      22A     -2.984170    23A     -2.984138    24A     -2.895168
      25A     -2.895082    26A     -2.894955    27A     -2.894596
      28A     -2.894586    29A     -2.373788    30A     -0.799860
      31A     -0.698790    32A     -0.272613    33A     -0.244136
      34A     -0.242130    35A     -0.153007    36A     -0.151771
      37A     -0.150975

  @DF-RHF Final Energy: -5152.54334129095150

   => Energetics <=

    Nuclear Repulsion Energy =            171.9455646822584640
    One-Electron Energy =               -7537.2113005284618339
    Two-Electron Energy =                2212.7223945552527766
    Total Energy =                      -5152.5433412909515027
 Dipole X            :       -294.8441203          287.1464926           -7.6976277
 Dipole Y            :       -146.5051849          143.5732463           -2.9319386
 Dipole Z            :         -0.0000000            0.0000000           -0.0000000
 Magnitude           :                                                    8.2370951
  Basis Set: (AUG-CC-PVTZ AUX)
    Blend: AUG-CC-PVTZ-RI + DEF2-QZVPP-RI
	 Reference Energy          =   -5152.5433412909515027 [Eh]
	 Singles Energy            =      -0.0000000000000000 [Eh]
	 Same-Spin Energy          =      -0.1764699353222029 [Eh]
	 Opposite-Spin Energy      =      -0.4204193749018941 [Eh]
	 Correlation Energy        =      -0.5968893102240971 [Eh]
	 Total Energy              =   -5153.1402306011759720 [Eh]

	 ================> DF-SCS-MP2 Energies <==================
	-----------------------------------------------------------
	 SCS Same-Spin Scale       =       0.3333333333333333 [-]
	 SCS Opposite-Spin Scale   =       1.2000000000000000 [-]
	 SCS Same-Spin Energy      =      -0.0588233117740676 [Eh]
	 SCS Opposite-Spin Energy  =      -0.5045032498822729 [Eh]
	 SCS Correlation Energy    =      -0.5633265616563405 [Eh]
	 SCS Total Energy          =   -5153.1066678526076430 [Eh]
	-----------------------------------------------------------

*** Psi4 exiting successfully. Buy a developer a beer!
