                               Psi4 1.8.2 release

  ==> Input File <==

--------------------------------------------------------------------------
MEMORY 60 GB

molecule dimer {
-1 1
Gh(Li)     0.000000     0.000000     0.000000
Br         0.000000     2.170734     0.000000
Gh(Br)     3.256101     0.000000     0.000000

units ang
no_reorient
no_com
symmetry c1
}

set {
basis        aug-cc-pVTZ
scf_type     df
}

energy("mp2")
--------------------------------------------------------------------------

    Molecular point group: c1

    Geometry (in Angstrom), charge = -1, multiplicity = 1:

       Center              X                  Y                   Z               Mass
    ------------   -----------------  -----------------  -----------------  -----------------
      Gh(LI)          0.000000000000     0.000000000000     0.000000000000     7.016003436600
         BR           0.000000000000     2.170734000000     0.000000000000    78.918337600000
      Gh(BR)          3.256101000000     0.000000000000     0.000000000000    78.918337600000

  Charge       = -1
  Multiplicity = 1
  Basis Set: AUG-CC-PVTZ
    Blend: AUG-CC-PVTZ
  Basis Set: (AUG-CC-PVTZ AUX)
    Blend: AUG-CC-PVTZ-JKFIT + DEF2-UNIVERSAL-JKFIT

    Orbital Energies [Eh]
    ---------------------

    Doubly Occupied:

       1A   -489.721238     2A    -64.861063     3A    -58.215568
       4A    -58.215568     5A    -58.215565     6A     -9.533039
       7A     -7.140383     8A     -7.140380     9A     -7.140366
      10A     -2.882073    11A     -2.882071    12A     -2.882062
      13A     -2.882061    14A     -2.882058    15A     -0.685998
      16A     -0.139341    17A     -0.139340    18A     -0.139335

  @DF-RHF Final Energy: -2572.53369357738211

   => Energetics <=

    Nuclear Repulsion Energy =              0.0000000000000000
    One-Electron Energy =               -3593.6723634651752946
    Two-Electron Energy =                1021.1386698877932986
    Total Energy =                      -2572.5336935773821097
 Dipole X            :          0.0000213            0.0000000            0.0000213
 Dipole Y            :       -147.6758984          143.5732463           -4.1026521
 Dipole Z            :          0.0000000            0.0000000            0.0000000
 Magnitude           :                                                    4.1026521
  Basis Set: (AUG-CC-PVTZ AUX)
    Blend: AUG-CC-PVTZ-RI + DEF2-QZVPP-RI
	 Reference Energy          =   -2572.5336935773821097 [Eh]
	 Singles Energy            =      -0.0000000000000000 [Eh]
	 Same-Spin Energy          =      -0.0886539652811411 [Eh]
	 Opposite-Spin Energy      =      -0.2056203266822773 [Eh]
	 Correlation Energy        =      -0.2942742919634184 [Eh]
	 Total Energy              =   -2572.8279678693456844 [Eh]

	 ================> DF-SCS-MP2 Energies <==================
	-----------------------------------------------------------
	 SCS Same-Spin Scale       =       0.3333333333333333 [-]
	 SCS Opposite-Spin Scale   =       1.2000000000000000 [-]
	 SCS Same-Spin Energy      =      -0.0295513217603804 [Eh]
	 SCS Opposite-Spin Energy  =      -0.2467443920187327 [Eh]
	 SCS Correlation Energy    =      -0.2762957137791131 [Eh]
	 SCS Total Energy          =   -2572.8099892911614006 [Eh]
	-----------------------------------------------------------

*** Psi4 exiting successfully. Buy a developer a beer!
