                               Psi4 1.9 release

  ==> Input File <==

--------------------------------------------------------------------------
MEMORY 60 GB

molecule dimer {
0 1
Li     0.000000     0.000000     0.000000
Br     0.000000     2.170734     0.000000
--
-1 1
Br     2.170734     0.000000     0.000000

units ang
no_reorient
no_com
symmetry c1
}

set {
basis        aug-cc-pVTZ
scf_type     df
}

energy("mp2", bsse_type="cp")
--------------------------------------------------------------------------

                               Psi4 1.9 release
    Molecular point group: c1
  Charge       = -1
  Multiplicity = 1
  Basis Set: AUG-CC-PVTZ
    Blend: AUG-CC-PVTZ
  Basis Set: (AUG-CC-PVTZ AUX)
    Blend: AUG-CC-PVTZ-JKFIT + DEF2-UNIVERSAL-JKFIT
  @DF-RHF Final Energy: -2572.53369630192856
    Total Energy =                      -2572.5336963019285577
 Dipole X            :       -147.6758190          143.5732463           -4.1025727
 Dipole Y            :          0.0001321            0.0000000            0.0001321
 Dipole Z            :         -0.0000000            0.0000000           -0.0000000
 Magnitude           :                                                    4.1025727
  Basis Set: (AUG-CC-PVTZ AUX)
    Blend: AUG-CC-PVTZ-RI + DEF2-QZVPP-RI
	 Reference Energy          =   -2572.5336963019285577 [Eh]
	 Singles Energy            =      -0.0000000000000000 [Eh]
	 Same-Spin Energy          =      -0.0889065879573030 [Eh]
	 Opposite-Spin Energy      =      -0.2062873405453135 [Eh]
	 Correlation Energy        =      -0.2951939285026164 [Eh]
	 Total Energy              =   -2572.8288902304311705 [Eh]
	 SCS Total Energy          =   -2572.8108766399018350 [Eh]
                               Psi4 1.9 release
    Molecular point group: c1
  Multiplicity = 1
  Basis Set: AUG-CC-PVTZ
    Blend: AUG-CC-PVTZ
  Basis Set: (AUG-CC-PVTZ AUX)
    Blend: AUG-CC-PVTZ-JKFIT + DEF2-UNIVERSAL-JKFIT
  @DF-RHF Final Energy: -2579.99949302443474
    Total Energy =                      -2579.9994930244347415
  Basis Set: (AUG-CC-PVTZ AUX)
	 Singles Energy            =      -0.0000000000000000 [Eh]
	 Same-Spin Energy          =      -0.0892291810999376 [Eh]
	 Opposite-Spin Energy      =      -0.2200021529946559 [Eh]
	 Correlation Energy        =      -0.3092313340945935 [Eh]
	 Total Energy              =   -2580.3087243585291617 [Eh]
	 SCS Total Energy          =   -2580.2932386683951336 [Eh]
                               Psi4 1.9 release
    Molecular point group: c1

    Geometry (in Bohr), charge = -1, multiplicity = 1:

       Center              X                  Y                   Z               Mass
    ------------   -----------------  -----------------  -----------------  -----------------
         LI           0.000000000000     0.000000000000     0.000000000000     7.016003436600
         BR           0.000000000000     4.102092751220     0.000000000000    78.918337600000
         BR           4.102092751220     0.000000000000     0.000000000000    78.918337600000

  Charge       = -1
  Multiplicity = 1
  Basis Set: AUG-CC-PVTZ
    Blend: AUG-CC-PVTZ
  Basis Set: (AUG-CC-PVTZ AUX)
    Blend: AUG-CC-PVTZ-JKFIT + DEF2-UNIVERSAL-JKFIT

    Orbital Energies [Eh]
    ---------------------

    Doubly Occupied:

       1A   -489.762058     2A   -489.762058     3A    -64.903173
       4A    -64.903173     5A    -58.257607     6A    -58.257607
       7A    -58.257592     8A    -58.257592     9A    -58.257450
      10A    -58.257450    11A     -9.576488    12A     -9.576485
      13A     -7.184430    14A     -7.184426    15A     -7.183897
      16A     -7.183893    17A     -7.183480    18A     -7.183475
      19A     -2.926231    20A     -2.926229    21A     -2.926118
      22A     -2.926115    23A     -2.925418    24A     -2.925405
      25A     -2.924851    26A     -2.924850    27A     -2.924760
      28A     -2.924727    29A     -2.265853    30A     -0.758908
      31A     -0.731477    32A     -0.250952    33A     -0.209845
      34A     -0.206769    35A     -0.200369    36A     -0.174059
      37A     -0.134396

  @DF-RHF Final Energy: -5152.54721074586723

   => Energetics <=

    Nuclear Repulsion Energy =            262.3553079421618577
    One-Electron Energy =               -7719.1656996355277442
    Two-Electron Energy =                2304.2631809474983129
    Total Energy =                      -5152.5472107458681421
 Dipole X            :       -146.6055164          143.5732463           -3.0322701
 Dipole Y            :       -146.6055164          143.5732463           -3.0322701
 Dipole Z            :         -0.0000000            0.0000000           -0.0000000
 Magnitude           :                                                    4.2882775
  Basis Set: (AUG-CC-PVTZ AUX)
    Blend: AUG-CC-PVTZ-RI + DEF2-QZVPP-RI
	 Reference Energy          =   -5152.5472107458672326 [Eh]
	 Singles Energy            =      -0.0000000000000000 [Eh]
	 Same-Spin Energy          =      -0.1837294172790847 [Eh]
	 Opposite-Spin Energy      =      -0.4313166526992407 [Eh]
	 Correlation Energy        =      -0.6150460699783253 [Eh]
	 Total Energy              =   -5153.1622568158454669 [Eh]

	 ================> DF-SCS-MP2 Energies <==================
	-----------------------------------------------------------
	 SCS Same-Spin Scale       =       0.3333333333333333 [-]
	 SCS Opposite-Spin Scale   =       1.2000000000000000 [-]
	 SCS Same-Spin Energy      =      -0.0612431390930282 [Eh]
	 SCS Opposite-Spin Energy  =      -0.5175799832390888 [Eh]
	 SCS Correlation Energy    =      -0.5788231223321171 [Eh]
	 SCS Total Energy          =   -5153.1260338681995563 [Eh]
	-----------------------------------------------------------

*** Psi4 exiting successfully. Buy a developer a beer!
