                               Psi4 1.8.2 release

  ==> Input File <==

--------------------------------------------------------------------------
MEMORY 60 GB

molecule dimer {
1 1
Li     0.000000     0.000000     0.000000
--
-1 1
Br     0.000000     2.170734     0.000000
--
-1 1
Br     3.256101     0.000000     0.000000

units ang
no_reorient
no_com
symmetry c1
}

set {
basis        aug-cc-pVTZ
scf_type     df
}

energy("mp2", bsse_type="cp")
--------------------------------------------------------------------------

                               Psi4 1.8.2 release
    Molecular point group: c1
  Charge       = 1
  Multiplicity = 1
  Basis Set: AUG-CC-PVTZ
    Blend: AUG-CC-PVTZ
  Basis Set: (AUG-CC-PVTZ AUX)
    Blend: AUG-CC-PVTZ-JKFIT + DEF2-UNIVERSAL-JKFIT
  @DF-RHF Final Energy:    -7.23638318745509
    Total Energy =                         -7.2363831874550861
 Dipole X            :          0.0000262            0.0000000            0.0000262
 Dipole Y            :          0.0000334            0.0000000            0.0000334
 Dipole Z            :         -0.0000000            0.0000000           -0.0000000
 Magnitude           :                                                    0.0000424
  Basis Set: (AUG-CC-PVTZ AUX)
    Blend: AUG-CC-PVTZ-RI + DEF2-QZVPP-RI
	 Reference Energy          =      -7.2363831874550861 [Eh]
	 Singles Energy            =      -0.0000000000000000 [Eh]
	 Same-Spin Energy          =       0.0000000000000000 [Eh]
	 Opposite-Spin Energy      =      -0.0126516032907104 [Eh]
	 Correlation Energy        =      -0.0126516032907104 [Eh]
	 Total Energy              =      -7.2490347907457968 [Eh]
	 SCS Total Energy          =      -7.2515651114039388 [Eh]
                               Psi4 1.8.2 release
    Molecular point group: c1
  Basis Set: AUG-CC-PVTZ
    Blend: AUG-CC-PVTZ
  Basis Set: (AUG-CC-PVTZ AUX)
    Blend: AUG-CC-PVTZ-JKFIT + DEF2-UNIVERSAL-JKFIT
  @DF-RHF Final Energy: -2572.53369357746806
    Total Energy =                      -2572.5336935774685116
  Basis Set: (AUG-CC-PVTZ AUX)
                               Psi4 1.8.2 release
  @DF-RHF Final Energy: -5144.94191935211438
    Total Energy =                      -5144.9419193521134730
                               Psi4 1.8.2 release
  @DF-RHF Final Energy: -2579.94719781483809
    Total Energy =                      -2579.9471978148385460
                               Psi4 1.8.2 release
  @DF-RHF Final Energy: -2579.99946568397672
    Total Energy =                      -2579.9994656839767231
                               Psi4 1.8.2 release
  Multiplicity = 1
  @DF-RHF Final Energy: -2572.53368046307651
    Total Energy =                      -2572.5336804630765073
	 Singles Energy            =      -0.0000000000000000 [Eh]
	 Same-Spin Energy          =      -0.0876184133569369 [Eh]
	 Opposite-Spin Energy      =      -0.2031223015451364 [Eh]
	 Correlation Energy        =      -0.2907407149020733 [Eh]
	 Total Energy              =   -2572.8244211779783654 [Eh]
	 SCS Total Energy          =   -2572.8066333627161839 [Eh]
                               Psi4 1.8.2 release
    Molecular point group: c1

    Geometry (in Bohr), charge = -1, multiplicity = 1:

       Center              X                  Y                   Z               Mass
    ------------   -----------------  -----------------  -----------------  -----------------
         LI           0.000000000000     0.000000000000     0.000000000000     7.016003436600
         BR           0.000000000000     4.102092751220     0.000000000000    78.918337600000
         BR           6.153139126829     0.000000000000     0.000000000000    78.918337600000

  Charge       = -1
  Multiplicity = 1
  Basis Set: AUG-CC-PVTZ
    Blend: AUG-CC-PVTZ
  Basis Set: (AUG-CC-PVTZ AUX)
    Blend: AUG-CC-PVTZ-JKFIT + DEF2-UNIVERSAL-JKFIT

    Orbital Energies [Eh]
    ---------------------

    Doubly Occupied:

       1A   -489.794962     2A   -489.747775     3A    -64.935679
       4A    -64.887759     5A    -58.290168     6A    -58.290152
       7A    -58.290028     8A    -58.242339     9A    -58.242213
      10A    -58.242161    11A     -9.608552    12A     -9.559993
      13A     -7.216534    14A     -7.215952    15A     -7.215558
      16A     -7.167827    17A     -7.167195    18A     -7.166947
      19A     -2.958264    20A     -2.958104    21A     -2.957598
      22A     -2.957025    23A     -2.956935    24A     -2.909687
      25A     -2.909490    26A     -2.909169    27A     -2.908339
      28A     -2.908312    29A     -2.333368    30A     -0.773499
      31A     -0.713624    32A     -0.247084    33A     -0.220495
      34A     -0.218813    35A     -0.169263    36A     -0.165247
      37A     -0.159665

  @DF-RHF Final Energy: -5152.55498217500735

   => Energetics <=

    Nuclear Repulsion Energy =            208.3101948686694698
    One-Electron Energy =               -7610.4988000647545050
    Two-Electron Energy =                2249.6336230210763460
    Total Energy =                      -5152.5549821750082629
 Dipole X            :       -220.6774753          215.3598694           -5.3176059
 Dipole Y            :       -146.5257191          143.5732463           -2.9524728
 Dipole Z            :         -0.0000000            0.0000000           -0.0000000
 Magnitude           :                                                    6.0822716
  Basis Set: (AUG-CC-PVTZ AUX)
    Blend: AUG-CC-PVTZ-RI + DEF2-QZVPP-RI
	 Reference Energy          =   -5152.5549821750073534 [Eh]
	 Singles Energy            =      -0.0000000000000000 [Eh]
	 Same-Spin Energy          =      -0.1783804926812780 [Eh]
	 Opposite-Spin Energy      =      -0.4233771862672004 [Eh]
	 Correlation Energy        =      -0.6017576789484784 [Eh]
	 Total Energy              =   -5153.1567398539555143 [Eh]

	 ================> DF-SCS-MP2 Energies <==================
	-----------------------------------------------------------
	 SCS Same-Spin Scale       =       0.3333333333333333 [-]
	 SCS Opposite-Spin Scale   =       1.2000000000000000 [-]
	 SCS Same-Spin Energy      =      -0.0594601642270927 [Eh]
	 SCS Opposite-Spin Energy  =      -0.5080526235206404 [Eh]
	 SCS Correlation Energy    =      -0.5675127877477331 [Eh]
	 SCS Total Energy          =   -5153.1224949627548995 [Eh]
	-----------------------------------------------------------

*** Psi4 exiting successfully. Buy a developer a beer!
