                               Psi4 1.8.2 release

  ==> Input File <==

--------------------------------------------------------------------------
MEMORY 60 GB

molecule dimer {
-1 1
Gh(Li)     0.000000     0.000000     0.000000
Gh(Br)     0.000000     2.170734     0.000000
Br         2.387807     0.000000     0.000000

units ang
no_reorient
no_com
symmetry c1
}

set {
basis        aug-cc-pVTZ
scf_type     df
}

energy("mp2")
--------------------------------------------------------------------------

    Molecular point group: c1

    Geometry (in Angstrom), charge = -1, multiplicity = 1:

       Center              X                  Y                   Z               Mass
    ------------   -----------------  -----------------  -----------------  -----------------
      Gh(LI)          0.000000000000     0.000000000000     0.000000000000     7.016003436600
      Gh(BR)          0.000000000000     2.170734000000     0.000000000000    78.918337600000
         BR           2.387807000000     0.000000000000     0.000000000000    78.918337600000

  Charge       = -1
  Multiplicity = 1
  Basis Set: AUG-CC-PVTZ
    Blend: AUG-CC-PVTZ
  Basis Set: (AUG-CC-PVTZ AUX)
    Blend: AUG-CC-PVTZ-JKFIT + DEF2-UNIVERSAL-JKFIT

    Orbital Energies [Eh]
    ---------------------

    Doubly Occupied:

       1A   -489.721141     2A    -64.860993     3A    -58.215496
       4A    -58.215495     5A    -58.215493     6A     -9.533016
       7A     -7.140365     8A     -7.140360     9A     -7.140346
      10A     -2.882050    11A     -2.882048    12A     -2.882041
      13A     -2.882037    14A     -2.882036    15A     -0.685998
      16A     -0.139341    17A     -0.139340    18A     -0.139338

  @DF-RHF Final Energy: -2572.53369207568539

   => Energetics <=

    Nuclear Repulsion Energy =              0.0000000000000000
    One-Electron Energy =               -3593.6735133200468226
    Two-Electron Energy =                1021.1398212443616558
    Total Energy =                      -2572.5336920756853942
 Dipole X            :       -162.4432854          157.9305445           -4.5127409
 Dipole Y            :          0.0001301            0.0000000            0.0001301
 Dipole Z            :          0.0000000            0.0000000            0.0000000
 Magnitude           :                                                    4.5127409
  Basis Set: (AUG-CC-PVTZ AUX)
    Blend: AUG-CC-PVTZ-RI + DEF2-QZVPP-RI
	 Reference Energy          =   -2572.5336920756853942 [Eh]
	 Singles Energy            =      -0.0000000000000000 [Eh]
	 Same-Spin Energy          =      -0.0885281241374078 [Eh]
	 Opposite-Spin Energy      =      -0.2053603954861491 [Eh]
	 Correlation Energy        =      -0.2938885196235568 [Eh]
	 Total Energy              =   -2572.8275805953089730 [Eh]

	 ================> DF-SCS-MP2 Energies <==================
	-----------------------------------------------------------
	 SCS Same-Spin Scale       =       0.3333333333333333 [-]
	 SCS Opposite-Spin Scale   =       1.2000000000000000 [-]
	 SCS Same-Spin Energy      =      -0.0295093747124693 [Eh]
	 SCS Opposite-Spin Energy  =      -0.2464324745833789 [Eh]
	 SCS Correlation Energy    =      -0.2759418492958481 [Eh]
	 SCS Total Energy          =   -2572.8096339249814264 [Eh]
	-----------------------------------------------------------

*** Psi4 exiting successfully. Buy a developer a beer!
