                               Psi4 1.8.2 release

  ==> Input File <==

--------------------------------------------------------------------------
MEMORY 60 GB

molecule dimer {
-1 1
Li         0.000000     0.000000     0.000000
Br         0.000000     2.170734     0.000000
Br         3.039028     0.000000     0.000000

units ang
no_reorient
no_com
symmetry c1
}

set {
basis        aug-cc-pVTZ
scf_type     df
}

energy("mp2")
--------------------------------------------------------------------------

    Molecular point group: c1

    Geometry (in Angstrom), charge = -1, multiplicity = 1:

       Center              X                  Y                   Z               Mass
    ------------   -----------------  -----------------  -----------------  -----------------
         LI           0.000000000000     0.000000000000     0.000000000000     7.016003436600
         BR           0.000000000000     2.170734000000     0.000000000000    78.918337600000
         BR           3.039028000000     0.000000000000     0.000000000000    78.918337600000

  Charge       = -1
  Multiplicity = 1
  Basis Set: AUG-CC-PVTZ
    Blend: AUG-CC-PVTZ
  Basis Set: (AUG-CC-PVTZ AUX)
    Blend: AUG-CC-PVTZ-JKFIT + DEF2-UNIVERSAL-JKFIT

    Orbital Energies [Eh]
    ---------------------

    Doubly Occupied:

       1A   -489.788474     2A   -489.751421     3A    -64.929232
       4A    -64.891437     5A    -58.283721     6A    -58.283705
       7A    -58.283569     8A    -58.246026     9A    -58.245891
      10A    -58.245827    11A     -9.602148    12A     -9.563692
      13A     -7.210131    14A     -7.209566    15A     -7.209136
      16A     -7.171592    17A     -7.170895    18A     -7.170599
      19A     -2.951881    20A     -2.951737    21A     -2.951168
      22A     -2.950603    23A     -2.950496    24A     -2.913477
      25A     -2.913265    26A     -2.912874    27A     -2.911959
      28A     -2.911925    29A     -2.321774    30A     -0.767599
      31A     -0.718048    32A     -0.242194    33A     -0.217889
      34A     -0.213337    35A     -0.174400    36A     -0.168853
      37A     -0.159418

  @DF-RHF Final Energy: -5152.55794920623612

   => Energetics <=

    Nuclear Repulsion Energy =            217.4540580813700785
    One-Electron Energy =               -7628.9040924518940301
    Two-Electron Energy =                2258.8920851642878915
    Total Energy =                      -5152.5579492062361169
 Dipole X            :       -205.8374937          201.0025713           -4.8349224
 Dipole Y            :       -146.5372407          143.5732463           -2.9639944
 Dipole Z            :         -0.0000000            0.0000000           -0.0000000
 Magnitude           :                                                    5.6711320
  Basis Set: (AUG-CC-PVTZ AUX)
    Blend: AUG-CC-PVTZ-RI + DEF2-QZVPP-RI
	 Reference Energy          =   -5152.5579492062361169 [Eh]
	 Singles Energy            =      -0.0000000000000000 [Eh]
	 Same-Spin Energy          =      -0.1790544252679826 [Eh]
	 Opposite-Spin Energy      =      -0.4243973964360175 [Eh]
	 Correlation Energy        =      -0.6034518217040000 [Eh]
	 Total Energy              =   -5153.1614010279399736 [Eh]

	 ================> DF-SCS-MP2 Energies <==================
	-----------------------------------------------------------
	 SCS Same-Spin Scale       =       0.3333333333333333 [-]
	 SCS Opposite-Spin Scale   =       1.2000000000000000 [-]
	 SCS Same-Spin Energy      =      -0.0596848084226609 [Eh]
	 SCS Opposite-Spin Energy  =      -0.5092768757232210 [Eh]
	 SCS Correlation Energy    =      -0.5689616841458819 [Eh]
	 SCS Total Energy          =   -5153.1269108903816232 [Eh]
	-----------------------------------------------------------

*** Psi4 exiting successfully. Buy a developer a beer!
