                               Psi4 1.8.2 release

  ==> Input File <==

--------------------------------------------------------------------------
MEMORY 60 GB

molecule dimer {
-1 1
Gh(Li)     0.000000     0.000000     0.000000
Br         0.000000     2.170734     0.000000
Gh(Br)     2.604881     0.000000     0.000000

units ang
no_reorient
no_com
symmetry c1
}

set {
basis        aug-cc-pVTZ
scf_type     df
}

energy("mp2")
--------------------------------------------------------------------------

    Molecular point group: c1

    Geometry (in Angstrom), charge = -1, multiplicity = 1:

       Center              X                  Y                   Z               Mass
    ------------   -----------------  -----------------  -----------------  -----------------
      Gh(LI)          0.000000000000     0.000000000000     0.000000000000     7.016003436600
         BR           0.000000000000     2.170734000000     0.000000000000    78.918337600000
      Gh(BR)          2.604881000000     0.000000000000     0.000000000000    78.918337600000

  Charge       = -1
  Multiplicity = 1
  Basis Set: AUG-CC-PVTZ
    Blend: AUG-CC-PVTZ
  Basis Set: (AUG-CC-PVTZ AUX)
    Blend: AUG-CC-PVTZ-JKFIT + DEF2-UNIVERSAL-JKFIT

    Orbital Energies [Eh]
    ---------------------

    Doubly Occupied:

       1A   -489.721276     2A    -64.861088     3A    -58.215596
       4A    -58.215595     5A    -58.215593     6A     -9.533047
       7A     -7.140392     8A     -7.140387     9A     -7.140375
      10A     -2.882083    11A     -2.882081    12A     -2.882072
      13A     -2.882069    14A     -2.882068    15A     -0.685998
      16A     -0.139341    17A     -0.139340    18A     -0.139336

  @DF-RHF Final Energy: -2572.53369448319927

   => Energetics <=

    Nuclear Repulsion Energy =              0.0000000000000000
    One-Electron Energy =               -3593.6719160584025303
    Two-Electron Energy =                1021.1382215752037155
    Total Energy =                      -2572.5336944831988149
 Dipole X            :          0.0001135            0.0000000            0.0001135
 Dipole Y            :       -147.6758412          143.5732463           -4.1025950
 Dipole Z            :          0.0000000            0.0000000            0.0000000
 Magnitude           :                                                    4.1025950
  Basis Set: (AUG-CC-PVTZ AUX)
    Blend: AUG-CC-PVTZ-RI + DEF2-QZVPP-RI
	 Reference Energy          =   -2572.5336944831992696 [Eh]
	 Singles Energy            =      -0.0000000000000000 [Eh]
	 Same-Spin Energy          =      -0.0887766357453218 [Eh]
	 Opposite-Spin Energy      =      -0.2059350246132662 [Eh]
	 Correlation Energy        =      -0.2947116603585880 [Eh]
	 Total Energy              =   -2572.8284061435579133 [Eh]

	 ================> DF-SCS-MP2 Energies <==================
	-----------------------------------------------------------
	 SCS Same-Spin Scale       =       0.3333333333333333 [-]
	 SCS Opposite-Spin Scale   =       1.2000000000000000 [-]
	 SCS Same-Spin Energy      =      -0.0295922119151073 [Eh]
	 SCS Opposite-Spin Energy  =      -0.2471220295359194 [Eh]
	 SCS Correlation Energy    =      -0.2767142414510267 [Eh]
	 SCS Total Energy          =   -2572.8104087246501877 [Eh]
	-----------------------------------------------------------

*** Psi4 exiting successfully. Buy a developer a beer!
