                               Psi4 1.8.2 release

  ==> Input File <==

--------------------------------------------------------------------------
MEMORY 60 GB

molecule dimer {
-1 1
Gh(Li)     0.000000     0.000000     0.000000
Gh(Br)     0.000000     2.170734     0.000000
Br         2.604881     0.000000     0.000000

units ang
no_reorient
no_com
symmetry c1
}

set {
basis        aug-cc-pVTZ
scf_type     df
}

energy("mp2")
--------------------------------------------------------------------------

    Molecular point group: c1

    Geometry (in Angstrom), charge = -1, multiplicity = 1:

       Center              X                  Y                   Z               Mass
    ------------   -----------------  -----------------  -----------------  -----------------
      Gh(LI)          0.000000000000     0.000000000000     0.000000000000     7.016003436600
      Gh(BR)          0.000000000000     2.170734000000     0.000000000000    78.918337600000
         BR           2.604881000000     0.000000000000     0.000000000000    78.918337600000

  Charge       = -1
  Multiplicity = 1
  Basis Set: AUG-CC-PVTZ
    Blend: AUG-CC-PVTZ
  Basis Set: (AUG-CC-PVTZ AUX)
    Blend: AUG-CC-PVTZ-JKFIT + DEF2-UNIVERSAL-JKFIT

    Orbital Energies [Eh]
    ---------------------

    Doubly Occupied:

       1A   -489.721006     2A    -64.860898     3A    -58.215396
       4A    -58.215395     5A    -58.215393     6A     -9.532986
       7A     -7.140336     8A     -7.140331     9A     -7.140318
      10A     -2.882016    11A     -2.882015    12A     -2.882009
      13A     -2.882006    14A     -2.882005    15A     -0.685998
      16A     -0.139340    17A     -0.139340    18A     -0.139338

  @DF-RHF Final Energy: -2572.53368835577839

   => Energetics <=

    Nuclear Repulsion Energy =              0.0000000000000000
    One-Electron Energy =               -3593.6751209516514791
    Two-Electron Energy =                1021.1414325958735390
    Total Energy =                      -2572.5336883557779402
 Dipole X            :       -177.2108009          172.2879088           -4.9228921
 Dipole Y            :          0.0001087            0.0000000            0.0001087
 Dipole Z            :         -0.0000000            0.0000000           -0.0000000
 Magnitude           :                                                    4.9228921
  Basis Set: (AUG-CC-PVTZ AUX)
    Blend: AUG-CC-PVTZ-RI + DEF2-QZVPP-RI
	 Reference Energy          =   -2572.5336883557783949 [Eh]
	 Singles Energy            =      -0.0000000000000000 [Eh]
	 Same-Spin Energy          =      -0.0882221679381100 [Eh]
	 Opposite-Spin Energy      =      -0.2046138943501743 [Eh]
	 Correlation Energy        =      -0.2928360622882843 [Eh]
	 Total Energy              =   -2572.8265244180665832 [Eh]

	 ================> DF-SCS-MP2 Energies <==================
	-----------------------------------------------------------
	 SCS Same-Spin Scale       =       0.3333333333333333 [-]
	 SCS Opposite-Spin Scale   =       1.2000000000000000 [-]
	 SCS Same-Spin Energy      =      -0.0294073893127033 [Eh]
	 SCS Opposite-Spin Energy  =      -0.2455366732202091 [Eh]
	 SCS Correlation Energy    =      -0.2749440625329125 [Eh]
	 SCS Total Energy          =   -2572.8086324183113902 [Eh]
	-----------------------------------------------------------

*** Psi4 exiting successfully. Buy a developer a beer!
