                               Psi4 1.8.2 release

  ==> Input File <==

--------------------------------------------------------------------------
MEMORY 60 GB

molecule dimer {
-1 1
Gh(Li)     0.000000     0.000000     0.000000
Br         0.000000     2.170734     0.000000
Gh(Br)     3.039028     0.000000     0.000000

units ang
no_reorient
no_com
symmetry c1
}

set {
basis        aug-cc-pVTZ
scf_type     df
}

energy("mp2")
--------------------------------------------------------------------------

    Molecular point group: c1

    Geometry (in Angstrom), charge = -1, multiplicity = 1:

       Center              X                  Y                   Z               Mass
    ------------   -----------------  -----------------  -----------------  -----------------
      Gh(LI)          0.000000000000     0.000000000000     0.000000000000     7.016003436600
         BR           0.000000000000     2.170734000000     0.000000000000    78.918337600000
      Gh(BR)          3.039028000000     0.000000000000     0.000000000000    78.918337600000

  Charge       = -1
  Multiplicity = 1
  Basis Set: AUG-CC-PVTZ
    Blend: AUG-CC-PVTZ
  Basis Set: (AUG-CC-PVTZ AUX)
    Blend: AUG-CC-PVTZ-JKFIT + DEF2-UNIVERSAL-JKFIT

    Orbital Energies [Eh]
    ---------------------

    Doubly Occupied:

       1A   -489.721250     2A    -64.861071     3A    -58.215576
       4A    -58.215576     5A    -58.215574     6A     -9.533042
       7A     -7.140386     8A     -7.140382     9A     -7.140369
      10A     -2.882076    11A     -2.882074    12A     -2.882065
      13A     -2.882063    14A     -2.882061    15A     -0.685998
      16A     -0.139341    17A     -0.139341    18A     -0.139336

  @DF-RHF Final Energy: -2572.53369379435162

   => Energetics <=

    Nuclear Repulsion Energy =              0.0000000000000000
    One-Electron Energy =               -3593.6722262951343509
    Two-Electron Energy =                1021.1385325007829579
    Total Energy =                      -2572.5336937943511657
 Dipole X            :          0.0000445            0.0000000            0.0000445
 Dipole Y            :       -147.6758804          143.5732463           -4.1026341
 Dipole Z            :          0.0000000            0.0000000            0.0000000
 Magnitude           :                                                    4.1026341
  Basis Set: (AUG-CC-PVTZ AUX)
    Blend: AUG-CC-PVTZ-RI + DEF2-QZVPP-RI
	 Reference Energy          =   -2572.5336937943516205 [Eh]
	 Singles Energy            =      -0.0000000000000000 [Eh]
	 Same-Spin Energy          =      -0.0886884695135521 [Eh]
	 Opposite-Spin Energy      =      -0.2057061436518696 [Eh]
	 Correlation Energy        =      -0.2943946131654217 [Eh]
	 Total Energy              =   -2572.8280884075170434 [Eh]

	 ================> DF-SCS-MP2 Energies <==================
	-----------------------------------------------------------
	 SCS Same-Spin Scale       =       0.3333333333333333 [-]
	 SCS Opposite-Spin Scale   =       1.2000000000000000 [-]
	 SCS Same-Spin Energy      =      -0.0295628231711840 [Eh]
	 SCS Opposite-Spin Energy  =      -0.2468473723822435 [Eh]
	 SCS Correlation Energy    =      -0.2764101955534275 [Eh]
	 SCS Total Energy          =   -2572.8101039899052012 [Eh]
	-----------------------------------------------------------

*** Psi4 exiting successfully. Buy a developer a beer!
