                               Psi4 1.8.2 release

  ==> Input File <==

--------------------------------------------------------------------------
MEMORY 60 GB

molecule dimer {
-1 1
Gh(Li)     0.000000     0.000000     0.000000
Gh(Br)     0.000000     2.170734     0.000000
Br         2.821954     0.000000     0.000000

units ang
no_reorient
no_com
symmetry c1
}

set {
basis        aug-cc-pVTZ
scf_type     df
}

energy("mp2")
--------------------------------------------------------------------------

    Molecular point group: c1

    Geometry (in Angstrom), charge = -1, multiplicity = 1:

       Center              X                  Y                   Z               Mass
    ------------   -----------------  -----------------  -----------------  -----------------
      Gh(LI)          0.000000000000     0.000000000000     0.000000000000     7.016003436600
      Gh(BR)          0.000000000000     2.170734000000     0.000000000000    78.918337600000
         BR           2.821954000000     0.000000000000     0.000000000000    78.918337600000

  Charge       = -1
  Multiplicity = 1
  Basis Set: AUG-CC-PVTZ
    Blend: AUG-CC-PVTZ
  Basis Set: (AUG-CC-PVTZ AUX)
    Blend: AUG-CC-PVTZ-JKFIT + DEF2-UNIVERSAL-JKFIT

    Orbital Energies [Eh]
    ---------------------

    Doubly Occupied:

       1A   -489.720902     2A    -64.860825     3A    -58.215319
       4A    -58.215318     5A    -58.215316     6A     -9.532963
       7A     -7.140313     8A     -7.140309     9A     -7.140296
      10A     -2.881990    11A     -2.881989    12A     -2.881985
      13A     -2.881982    14A     -2.881981    15A     -0.685998
      16A     -0.139341    17A     -0.139339    18A     -0.139338

  @DF-RHF Final Energy: -2572.53368530075159

   => Energetics <=

    Nuclear Repulsion Energy =              0.0000000000000000
    One-Electron Energy =               -3593.6763625505977870
    Two-Electron Energy =                1021.1426772498462014
    Total Energy =                      -2572.5336853007515856
 Dipole X            :       -191.9782294          186.6452070           -5.3330225
 Dipole Y            :          0.0000811            0.0000000            0.0000811
 Dipole Z            :          0.0000000            0.0000000            0.0000000
 Magnitude           :                                                    5.3330225
  Basis Set: (AUG-CC-PVTZ AUX)
    Blend: AUG-CC-PVTZ-RI + DEF2-QZVPP-RI
	 Reference Energy          =   -2572.5336853007515856 [Eh]
	 Singles Energy            =      -0.0000000000000000 [Eh]
	 Same-Spin Energy          =      -0.0879795805928268 [Eh]
	 Opposite-Spin Energy      =      -0.2040170984956197 [Eh]
	 Correlation Energy        =      -0.2919966790884464 [Eh]
	 Total Energy              =   -2572.8256819798398283 [Eh]

	 ================> DF-SCS-MP2 Energies <==================
	-----------------------------------------------------------
	 SCS Same-Spin Scale       =       0.3333333333333333 [-]
	 SCS Opposite-Spin Scale   =       1.2000000000000000 [-]
	 SCS Same-Spin Energy      =      -0.0293265268642756 [Eh]
	 SCS Opposite-Spin Energy  =      -0.2448205181947436 [Eh]
	 SCS Correlation Energy    =      -0.2741470450590192 [Eh]
	 SCS Total Energy          =   -2572.8078323458107661 [Eh]
	-----------------------------------------------------------

*** Psi4 exiting successfully. Buy a developer a beer!
