                               Psi4 1.8.2 release

  ==> Input File <==

--------------------------------------------------------------------------
MEMORY 60 GB

molecule dimer {
-1 1
Li         0.000000     0.000000     0.000000
Br         0.000000     2.170734     0.000000
Br         2.821954     0.000000     0.000000

units ang
no_reorient
no_com
symmetry c1
}

set {
basis        aug-cc-pVTZ
scf_type     df
}

energy("mp2")
--------------------------------------------------------------------------

    Molecular point group: c1

    Geometry (in Angstrom), charge = -1, multiplicity = 1:

       Center              X                  Y                   Z               Mass
    ------------   -----------------  -----------------  -----------------  -----------------
         LI           0.000000000000     0.000000000000     0.000000000000     7.016003436600
         BR           0.000000000000     2.170734000000     0.000000000000    78.918337600000
         BR           2.821954000000     0.000000000000     0.000000000000    78.918337600000

  Charge       = -1
  Multiplicity = 1
  Basis Set: AUG-CC-PVTZ
    Blend: AUG-CC-PVTZ
  Basis Set: (AUG-CC-PVTZ AUX)
    Blend: AUG-CC-PVTZ-JKFIT + DEF2-UNIVERSAL-JKFIT

    Orbital Energies [Eh]
    ---------------------

    Doubly Occupied:

       1A   -489.781761     2A   -489.755005     3A    -64.922577
       4A    -64.895102     5A    -58.277060     6A    -58.277045
       7A    -58.276899     8A    -58.249688     9A    -58.249555
      10A    -58.249477    11A     -9.595552    12A     -9.567423
      13A     -7.203534    14A     -7.202987    15A     -7.202526
      16A     -7.175377    17A     -7.174644    18A     -7.174296
      19A     -2.945306    20A     -2.945175    21A     -2.944545
      22A     -2.943988    23A     -2.943866    24A     -2.917279
      25A     -2.917065    26A     -2.916592    27A     -2.915633
      28A     -2.915589    29A     -2.308813    30A     -0.761924
      31A     -0.722893    32A     -0.238905    33A     -0.216122
      34A     -0.208302    35A     -0.180393    36A     -0.172373
      37A     -0.156968

  @DF-RHF Final Energy: -5152.56041965532768

   => Energetics <=

    Nuclear Repulsion Energy =            227.3632041873025571
    One-Electron Energy =               -7648.8427652391519587
    Two-Electron Energy =                2268.9191413965208994
    Total Energy =                      -5152.5604196553285874
 Dipole X            :       -191.0037395          186.6452070           -4.3585325
 Dipole Y            :       -146.5521525          143.5732463           -2.9789063
 Dipole Z            :         -0.0000000            0.0000000           -0.0000000
 Magnitude           :                                                    5.2792697
  Basis Set: (AUG-CC-PVTZ AUX)
    Blend: AUG-CC-PVTZ-RI + DEF2-QZVPP-RI
	 Reference Energy          =   -5152.5604196553276779 [Eh]
	 Singles Energy            =      -0.0000000000000000 [Eh]
	 Same-Spin Energy          =      -0.1798746102352069 [Eh]
	 Opposite-Spin Energy      =      -0.4256250081677342 [Eh]
	 Correlation Energy        =      -0.6054996184029411 [Eh]
	 Total Energy              =   -5153.1659192737306512 [Eh]

	 ================> DF-SCS-MP2 Energies <==================
	-----------------------------------------------------------
	 SCS Same-Spin Scale       =       0.3333333333333333 [-]
	 SCS Opposite-Spin Scale   =       1.2000000000000000 [-]
	 SCS Same-Spin Energy      =      -0.0599582034117356 [Eh]
	 SCS Opposite-Spin Energy  =      -0.5107500098012810 [Eh]
	 SCS Correlation Energy    =      -0.5707082132130167 [Eh]
	 SCS Total Energy          =   -5153.1311278685407160 [Eh]
	-----------------------------------------------------------

*** Psi4 exiting successfully. Buy a developer a beer!
