                               Psi4 1.8.2 release

  ==> Input File <==

--------------------------------------------------------------------------
MEMORY 60 GB

molecule dimer {
-1 1
Li         0.000000     0.000000     0.000000
Br         0.000000     2.170734     0.000000
Br         3.256101     0.000000     0.000000

units ang
no_reorient
no_com
symmetry c1
}

set {
basis        aug-cc-pVTZ
scf_type     df
}

energy("mp2")
--------------------------------------------------------------------------

    Molecular point group: c1

    Geometry (in Angstrom), charge = -1, multiplicity = 1:

       Center              X                  Y                   Z               Mass
    ------------   -----------------  -----------------  -----------------  -----------------
         LI           0.000000000000     0.000000000000     0.000000000000     7.016003436600
         BR           0.000000000000     2.170734000000     0.000000000000    78.918337600000
         BR           3.256101000000     0.000000000000     0.000000000000    78.918337600000

  Charge       = -1
  Multiplicity = 1
  Basis Set: AUG-CC-PVTZ
    Blend: AUG-CC-PVTZ
  Basis Set: (AUG-CC-PVTZ AUX)
    Blend: AUG-CC-PVTZ-JKFIT + DEF2-UNIVERSAL-JKFIT

    Orbital Energies [Eh]
    ---------------------

    Doubly Occupied:

       1A   -489.794962     2A   -489.747775     3A    -64.935679
       4A    -64.887759     5A    -58.290168     6A    -58.290152
       7A    -58.290028     8A    -58.242339     9A    -58.242213
      10A    -58.242161    11A     -9.608552    12A     -9.559993
      13A     -7.216534    14A     -7.215952    15A     -7.215558
      16A     -7.167827    17A     -7.167195    18A     -7.166947
      19A     -2.958264    20A     -2.958104    21A     -2.957598
      22A     -2.957025    23A     -2.956935    24A     -2.909687
      25A     -2.909490    26A     -2.909169    27A     -2.908339
      28A     -2.908312    29A     -2.333368    30A     -0.773499
      31A     -0.713624    32A     -0.247084    33A     -0.220495
      34A     -0.218813    35A     -0.169263    36A     -0.165247
      37A     -0.159665

  @DF-RHF Final Energy: -5152.55498217494369

   => Energetics <=

    Nuclear Repulsion Energy =            208.3101948686694413
    One-Electron Energy =               -7610.4988000647090303
    Two-Electron Energy =                2249.6336230210954454
    Total Energy =                      -5152.5549821749436887
 Dipole X            :       -220.6774753          215.3598694           -5.3176059
 Dipole Y            :       -146.5257191          143.5732463           -2.9524728
 Dipole Z            :         -0.0000000            0.0000000           -0.0000000
 Magnitude           :                                                    6.0822716
  Basis Set: (AUG-CC-PVTZ AUX)
    Blend: AUG-CC-PVTZ-RI + DEF2-QZVPP-RI
	 Reference Energy          =   -5152.5549821749436887 [Eh]
	 Singles Energy            =      -0.0000000000000000 [Eh]
	 Same-Spin Energy          =      -0.1783804926811992 [Eh]
	 Opposite-Spin Energy      =      -0.4233771862673751 [Eh]
	 Correlation Energy        =      -0.6017576789485742 [Eh]
	 Total Energy              =   -5153.1567398538918496 [Eh]

	 ================> DF-SCS-MP2 Energies <==================
	-----------------------------------------------------------
	 SCS Same-Spin Scale       =       0.3333333333333333 [-]
	 SCS Opposite-Spin Scale   =       1.2000000000000000 [-]
	 SCS Same-Spin Energy      =      -0.0594601642270664 [Eh]
	 SCS Opposite-Spin Energy  =      -0.5080526235208501 [Eh]
	 SCS Correlation Energy    =      -0.5675127877479165 [Eh]
	 SCS Total Energy          =   -5153.1224949626912348 [Eh]
	-----------------------------------------------------------

*** Psi4 exiting successfully. Buy a developer a beer!
