                               Psi4 1.9 release

  ==> Input File <==

--------------------------------------------------------------------------
MEMORY 60 GB

molecule dimer {
0 1
Li     0.000000     0.000000     0.000000
Br     0.000000     2.170734     0.000000
--
-1 1
Br     2.387807     0.000000     0.000000

units ang
no_reorient
no_com
symmetry c1
}

set {
basis        aug-cc-pVTZ
scf_type     df
}

energy("mp2", bsse_type="cp")
--------------------------------------------------------------------------

                               Psi4 1.9 release
    Molecular point group: c1
  Charge       = -1
  Multiplicity = 1
  Basis Set: AUG-CC-PVTZ
    Blend: AUG-CC-PVTZ
  Basis Set: (AUG-CC-PVTZ AUX)
    Blend: AUG-CC-PVTZ-JKFIT + DEF2-UNIVERSAL-JKFIT
  @DF-RHF Final Energy: -2572.53369207634933
    Total Energy =                      -2572.5336920763493254
 Dipole X            :       -162.4432854          157.9305445           -4.5127409
 Dipole Y            :          0.0001301            0.0000000            0.0001301
 Dipole Z            :         -0.0000000            0.0000000           -0.0000000
 Magnitude           :                                                    4.5127409
  Basis Set: (AUG-CC-PVTZ AUX)
    Blend: AUG-CC-PVTZ-RI + DEF2-QZVPP-RI
	 Reference Energy          =   -2572.5336920763493254 [Eh]
	 Singles Energy            =      -0.0000000000000000 [Eh]
	 Same-Spin Energy          =      -0.0885281241369686 [Eh]
	 Opposite-Spin Energy      =      -0.2053603954853237 [Eh]
	 Correlation Energy        =      -0.2938885196222923 [Eh]
	 Total Energy              =   -2572.8275805959715399 [Eh]
	 SCS Total Energy          =   -2572.8096339256439933 [Eh]
                               Psi4 1.9 release
    Molecular point group: c1
  Multiplicity = 1
  Basis Set: AUG-CC-PVTZ
    Blend: AUG-CC-PVTZ
  Basis Set: (AUG-CC-PVTZ AUX)
    Blend: AUG-CC-PVTZ-JKFIT + DEF2-UNIVERSAL-JKFIT
  @DF-RHF Final Energy: -2579.99948292000545
    Total Energy =                      -2579.9994829200059030
  Basis Set: (AUG-CC-PVTZ AUX)
	 Singles Energy            =      -0.0000000000000000 [Eh]
	 Same-Spin Energy          =      -0.0891351944370875 [Eh]
	 Opposite-Spin Energy      =      -0.2193967554739205 [Eh]
	 Correlation Energy        =      -0.3085319499110081 [Eh]
	 Total Energy              =   -2580.3080148699164056 [Eh]
	 SCS Total Energy          =   -2580.2924707580532413 [Eh]
                               Psi4 1.9 release
    Molecular point group: c1

    Geometry (in Bohr), charge = -1, multiplicity = 1:

       Center              X                  Y                   Z               Mass
    ------------   -----------------  -----------------  -----------------  -----------------
         LI           0.000000000000     0.000000000000     0.000000000000     7.016003436600
         BR           0.000000000000     4.102092751220     0.000000000000    78.918337600000
         BR           4.512301270451     0.000000000000     0.000000000000    78.918337600000

  Charge       = -1
  Multiplicity = 1
  Basis Set: AUG-CC-PVTZ
    Blend: AUG-CC-PVTZ
  Basis Set: (AUG-CC-PVTZ AUX)
    Blend: AUG-CC-PVTZ-JKFIT + DEF2-UNIVERSAL-JKFIT

    Orbital Energies [Eh]
    ---------------------

    Doubly Occupied:

       1A   -489.768295     2A   -489.760698     3A    -64.909287
       4A    -64.901262     5A    -58.263745     6A    -58.263732
       7A    -58.263578     8A    -58.255781     9A    -58.255708
      10A    -58.255596    11A     -9.582458    12A     -9.574023
      13A     -7.190420    14A     -7.189895    15A     -7.189429
      16A     -7.182004    17A     -7.181356    18A     -7.180925
      19A     -2.932224    20A     -2.932111    21A     -2.931397
      22A     -2.930848    23A     -2.930719    24A     -2.923882
      25A     -2.923721    26A     -2.923072    27A     -2.922273
      28A     -2.922195    29A     -2.279881    30A     -0.755271
      31A     -0.731320    32A     -0.243463    33A     -0.210611
      34A     -0.203656    35A     -0.194955    36A     -0.175888
      37A     -0.144241

  @DF-RHF Final Energy: -5152.55835198652949

   => Energetics <=

    Nuclear Repulsion Energy =            249.7454035780860977
    One-Electron Energy =               -7693.8476584918453227
    Two-Electron Energy =                2291.5439029272301923
    Total Energy =                      -5152.5583519865294875
 Dipole X            :       -161.3810773          157.9305445           -3.4505328
 Dipole Y            :       -146.5890211          143.5732463           -3.0157748
 Dipole Z            :         -0.0000000            0.0000000           -0.0000000
 Magnitude           :                                                    4.5826930
  Basis Set: (AUG-CC-PVTZ AUX)
    Blend: AUG-CC-PVTZ-RI + DEF2-QZVPP-RI
	 Reference Energy          =   -5152.5583519865294875 [Eh]
	 Singles Energy            =      -0.0000000000000000 [Eh]
	 Same-Spin Energy          =      -0.1821413967237018 [Eh]
	 Opposite-Spin Energy      =      -0.4289736507058302 [Eh]
	 Correlation Energy        =      -0.6111150474295319 [Eh]
	 Total Energy              =   -5153.1694670339593358 [Eh]

	 ================> DF-SCS-MP2 Energies <==================
	-----------------------------------------------------------
	 SCS Same-Spin Scale       =       0.3333333333333333 [-]
	 SCS Opposite-Spin Scale   =       1.2000000000000000 [-]
	 SCS Same-Spin Energy      =      -0.0607137989079006 [Eh]
	 SCS Opposite-Spin Energy  =      -0.5147683808469962 [Eh]
	 SCS Correlation Energy    =      -0.5754821797548968 [Eh]
	 SCS Total Energy          =   -5153.1338341662840321 [Eh]
	-----------------------------------------------------------

*** Psi4 exiting successfully. Buy a developer a beer!
