                               Psi4 1.8.2 release

  ==> Input File <==

--------------------------------------------------------------------------
MEMORY 60 GB

molecule dimer {
1 1
Li     0.000000     0.000000     0.000000
--
-1 1
Br     0.000000     2.170734     0.000000
--
-1 1
Br     4.341468     0.000000     0.000000

units ang
no_reorient
no_com
symmetry c1
}

set {
basis        aug-cc-pVTZ
scf_type     df
}

energy("mp2", bsse_type="cp")
--------------------------------------------------------------------------

                               Psi4 1.8.2 release
    Molecular point group: c1
  Charge       = 1
  Multiplicity = 1
  Basis Set: AUG-CC-PVTZ
    Blend: AUG-CC-PVTZ
  Basis Set: (AUG-CC-PVTZ AUX)
    Blend: AUG-CC-PVTZ-JKFIT + DEF2-UNIVERSAL-JKFIT
  @DF-RHF Final Energy:    -7.23638312952818
    Total Energy =                         -7.2363831295281802
 Dipole X            :          0.0000103            0.0000000            0.0000103
 Dipole Y            :          0.0000353            0.0000000            0.0000353
 Dipole Z            :         -0.0000000            0.0000000           -0.0000000
 Magnitude           :                                                    0.0000368
  Basis Set: (AUG-CC-PVTZ AUX)
    Blend: AUG-CC-PVTZ-RI + DEF2-QZVPP-RI
	 Reference Energy          =      -7.2363831295281793 [Eh]
	 Singles Energy            =      -0.0000000000000000 [Eh]
	 Same-Spin Energy          =       0.0000000000000000 [Eh]
	 Opposite-Spin Energy      =      -0.0125539384204456 [Eh]
	 Correlation Energy        =      -0.0125539384204456 [Eh]
	 Total Energy              =      -7.2489370679486251 [Eh]
	 SCS Total Energy          =      -7.2514478556327138 [Eh]
                               Psi4 1.8.2 release
    Molecular point group: c1
  Basis Set: AUG-CC-PVTZ
    Blend: AUG-CC-PVTZ
  Basis Set: (AUG-CC-PVTZ AUX)
    Blend: AUG-CC-PVTZ-JKFIT + DEF2-UNIVERSAL-JKFIT
  @DF-RHF Final Energy: -2572.53369222435049
    Total Energy =                      -2572.5336922243500339
  Basis Set: (AUG-CC-PVTZ AUX)
                               Psi4 1.8.2 release
  @DF-RHF Final Energy: -5144.96369985324600
    Total Energy =                      -5144.9636998532459984
                               Psi4 1.8.2 release
  @DF-RHF Final Energy: -2579.89899615206150
    Total Energy =                      -2579.8989961520619545
                               Psi4 1.8.2 release
  @DF-RHF Final Energy: -2579.99945576919754
    Total Energy =                      -2579.9994557691975388
                               Psi4 1.8.2 release
  Multiplicity = 1
  @DF-RHF Final Energy: -2572.53367311085321
    Total Energy =                      -2572.5336731108532149
	 Singles Energy            =      -0.0000000000000000 [Eh]
	 Same-Spin Energy          =      -0.0870834107558784 [Eh]
	 Opposite-Spin Energy      =      -0.2018679230045433 [Eh]
	 Correlation Energy        =      -0.2889513337604217 [Eh]
	 Total Energy              =   -2572.8226244446136661 [Eh]
	 SCS Total Energy          =   -2572.8049424220439505 [Eh]
                               Psi4 1.8.2 release
    Molecular point group: c1

    Geometry (in Bohr), charge = -1, multiplicity = 1:

       Center              X                  Y                   Z               Mass
    ------------   -----------------  -----------------  -----------------  -----------------
         LI           0.000000000000     0.000000000000     0.000000000000     7.016003436600
         BR           0.000000000000     4.102092751220     0.000000000000    78.918337600000
         BR           8.204185502439     0.000000000000     0.000000000000    78.918337600000

  Charge       = -1
  Multiplicity = 1
  Basis Set: AUG-CC-PVTZ
    Blend: AUG-CC-PVTZ
  Basis Set: (AUG-CC-PVTZ AUX)
    Blend: AUG-CC-PVTZ-JKFIT + DEF2-UNIVERSAL-JKFIT

    Orbital Energies [Eh]
    ---------------------

    Doubly Occupied:

       1A   -489.822203     2A   -489.733521     3A    -64.962836
       4A    -64.873554     5A    -58.317314     6A    -58.317301
       7A    -58.317225     8A    -58.228072     9A    -58.228015
      10A    -58.227996    11A     -9.635639    12A     -9.545872
      13A     -7.243592    14A     -7.242954    15A     -7.242726
      16A     -7.153426    17A     -7.153146    18A     -7.153044
      19A     -2.985266    20A     -2.985034    21A     -2.984757
      22A     -2.984170    23A     -2.984138    24A     -2.895168
      25A     -2.895082    26A     -2.894955    27A     -2.894596
      28A     -2.894586    29A     -2.373788    30A     -0.799860
      31A     -0.698790    32A     -0.272613    33A     -0.244136
      34A     -0.242130    35A     -0.153007    36A     -0.151771
      37A     -0.150975

  @DF-RHF Final Energy: -5152.54334129052404

   => Energetics <=

    Nuclear Repulsion Energy =            171.9455646822584640
    One-Electron Energy =               -7537.2113005280298239
    Two-Electron Energy =                2212.7223945552459554
    Total Energy =                      -5152.5433412905249497
 Dipole X            :       -294.8441203          287.1464926           -7.6976277
 Dipole Y            :       -146.5051849          143.5732463           -2.9319386
 Dipole Z            :         -0.0000000            0.0000000           -0.0000000
 Magnitude           :                                                    8.2370951
  Basis Set: (AUG-CC-PVTZ AUX)
    Blend: AUG-CC-PVTZ-RI + DEF2-QZVPP-RI
	 Reference Energy          =   -5152.5433412905240402 [Eh]
	 Singles Energy            =      -0.0000000000000000 [Eh]
	 Same-Spin Energy          =      -0.1764699353224831 [Eh]
	 Opposite-Spin Energy      =      -0.4204193749027915 [Eh]
	 Correlation Energy        =      -0.5968893102252746 [Eh]
	 Total Energy              =   -5153.1402306007494190 [Eh]

	 ================> DF-SCS-MP2 Energies <==================
	-----------------------------------------------------------
	 SCS Same-Spin Scale       =       0.3333333333333333 [-]
	 SCS Opposite-Spin Scale   =       1.2000000000000000 [-]
	 SCS Same-Spin Energy      =      -0.0588233117741610 [Eh]
	 SCS Opposite-Spin Energy  =      -0.5045032498833497 [Eh]
	 SCS Correlation Energy    =      -0.5633265616575107 [Eh]
	 SCS Total Energy          =   -5153.1066678521819995 [Eh]
	-----------------------------------------------------------

*** Psi4 exiting successfully. Buy a developer a beer!
