                               Psi4 1.8.2 release

  ==> Input File <==

--------------------------------------------------------------------------
MEMORY 60 GB

molecule dimer {
1 1
Li     0.000000     0.000000     0.000000
--
-1 1
Br     0.000000     2.170734     0.000000
--
-1 1
Br     2.170734     0.000000     0.000000

units ang
no_reorient
no_com
symmetry c1
}

set {
basis        aug-cc-pVTZ
scf_type     df
}

energy("mp2", bsse_type="cp")
--------------------------------------------------------------------------

                               Psi4 1.8.2 release
    Molecular point group: c1
  Charge       = 1
  Multiplicity = 1
  Basis Set: AUG-CC-PVTZ
    Blend: AUG-CC-PVTZ
  Basis Set: (AUG-CC-PVTZ AUX)
    Blend: AUG-CC-PVTZ-JKFIT + DEF2-UNIVERSAL-JKFIT
  @DF-RHF Final Energy:    -7.23638336327785
    Total Energy =                         -7.2363833632778451
 Dipole X            :          0.0000274            0.0000000            0.0000274
 Dipole Y            :          0.0000274            0.0000000            0.0000274
 Dipole Z            :         -0.0000000            0.0000000           -0.0000000
 Magnitude           :                                                    0.0000388
  Basis Set: (AUG-CC-PVTZ AUX)
    Blend: AUG-CC-PVTZ-RI + DEF2-QZVPP-RI
	 Reference Energy          =      -7.2363833632778460 [Eh]
	 Singles Energy            =      -0.0000000000000000 [Eh]
	 Same-Spin Energy          =       0.0000000000000000 [Eh]
	 Opposite-Spin Energy      =      -0.0136106362024373 [Eh]
	 Correlation Energy        =      -0.0136106362024373 [Eh]
	 Total Energy              =      -7.2499939994802833 [Eh]
	 SCS Total Energy          =      -7.2527161267207712 [Eh]
                               Psi4 1.8.2 release
    Molecular point group: c1
  Basis Set: AUG-CC-PVTZ
    Blend: AUG-CC-PVTZ
  Basis Set: (AUG-CC-PVTZ AUX)
    Blend: AUG-CC-PVTZ-JKFIT + DEF2-UNIVERSAL-JKFIT
  @DF-RHF Final Energy: -2572.53369630200905
    Total Energy =                      -2572.5336963020090479
  Basis Set: (AUG-CC-PVTZ AUX)
                               Psi4 1.8.2 release
  @DF-RHF Final Energy: -5144.90017188204911
    Total Energy =                      -5144.9001718820491078
                               Psi4 1.8.2 release
  @DF-RHF Final Energy: -2579.99949302498271
    Total Energy =                      -2579.9994930249827121
                               Psi4 1.8.2 release
  @DF-RHF Final Energy: -2579.99949302463028
    Total Energy =                      -2579.9994930246302829
                               Psi4 1.8.2 release
  Multiplicity = 1
  @DF-RHF Final Energy: -2572.53369630235193
    Total Energy =                      -2572.5336963023519274
	 Singles Energy            =      -0.0000000000000000 [Eh]
	 Same-Spin Energy          =      -0.0889065879570840 [Eh]
	 Opposite-Spin Energy      =      -0.2062873405446712 [Eh]
	 Correlation Energy        =      -0.2951939285017551 [Eh]
	 Total Energy              =   -2572.8288902308536308 [Eh]
	 SCS Total Energy          =   -2572.8108766403247500 [Eh]
                               Psi4 1.8.2 release
    Molecular point group: c1

    Geometry (in Bohr), charge = -1, multiplicity = 1:

       Center              X                  Y                   Z               Mass
    ------------   -----------------  -----------------  -----------------  -----------------
         LI           0.000000000000     0.000000000000     0.000000000000     7.016003436600
         BR           0.000000000000     4.102092751220     0.000000000000    78.918337600000
         BR           4.102092751220     0.000000000000     0.000000000000    78.918337600000

  Charge       = -1
  Multiplicity = 1
  Basis Set: AUG-CC-PVTZ
    Blend: AUG-CC-PVTZ
  Basis Set: (AUG-CC-PVTZ AUX)
    Blend: AUG-CC-PVTZ-JKFIT + DEF2-UNIVERSAL-JKFIT

    Orbital Energies [Eh]
    ---------------------

    Doubly Occupied:

       1A   -489.762058     2A   -489.762058     3A    -64.903173
       4A    -64.903173     5A    -58.257607     6A    -58.257607
       7A    -58.257592     8A    -58.257592     9A    -58.257450
      10A    -58.257450    11A     -9.576488    12A     -9.576485
      13A     -7.184430    14A     -7.184426    15A     -7.183897
      16A     -7.183893    17A     -7.183480    18A     -7.183475
      19A     -2.926231    20A     -2.926229    21A     -2.926118
      22A     -2.926115    23A     -2.925418    24A     -2.925405
      25A     -2.924851    26A     -2.924850    27A     -2.924760
      28A     -2.924727    29A     -2.265853    30A     -0.758908
      31A     -0.731477    32A     -0.250952    33A     -0.209845
      34A     -0.206769    35A     -0.200369    36A     -0.174059
      37A     -0.134396

  @DF-RHF Final Energy: -5152.54721074662848

   => Energetics <=

    Nuclear Repulsion Energy =            262.3553079421618577
    One-Electron Energy =               -7719.1656996361780330
    Two-Electron Energy =                2304.2631809473878093
    Total Energy =                      -5152.5472107466284797
 Dipole X            :       -146.6055164          143.5732463           -3.0322701
 Dipole Y            :       -146.6055164          143.5732463           -3.0322701
 Dipole Z            :         -0.0000000            0.0000000           -0.0000000
 Magnitude           :                                                    4.2882775
  Basis Set: (AUG-CC-PVTZ AUX)
    Blend: AUG-CC-PVTZ-RI + DEF2-QZVPP-RI
	 Reference Energy          =   -5152.5472107466284797 [Eh]
	 Singles Energy            =      -0.0000000000000000 [Eh]
	 Same-Spin Energy          =      -0.1837294172784794 [Eh]
	 Opposite-Spin Energy      =      -0.4313166526990522 [Eh]
	 Correlation Energy        =      -0.6150460699775315 [Eh]
	 Total Energy              =   -5153.1622568166058045 [Eh]

	 ================> DF-SCS-MP2 Energies <==================
	-----------------------------------------------------------
	 SCS Same-Spin Scale       =       0.3333333333333333 [-]
	 SCS Opposite-Spin Scale   =       1.2000000000000000 [-]
	 SCS Same-Spin Energy      =      -0.0612431390928264 [Eh]
	 SCS Opposite-Spin Energy  =      -0.5175799832388626 [Eh]
	 SCS Correlation Energy    =      -0.5788231223316890 [Eh]
	 SCS Total Energy          =   -5153.1260338689598939 [Eh]
	-----------------------------------------------------------

*** Psi4 exiting successfully. Buy a developer a beer!
