                               Psi4 1.9 release

  ==> Input File <==

--------------------------------------------------------------------------
MEMORY 60 GB

molecule dimer {
0 1
Li     0.000000     0.000000     0.000000
Br     0.000000     2.170734     0.000000
--
-1 1
Br     2.604881     0.000000     0.000000

units ang
no_reorient
no_com
symmetry c1
}

set {
basis        aug-cc-pVTZ
scf_type     df
}

energy("mp2", bsse_type="cp")
--------------------------------------------------------------------------

                               Psi4 1.9 release
    Molecular point group: c1
  Charge       = -1
  Multiplicity = 1
  Basis Set: AUG-CC-PVTZ
    Blend: AUG-CC-PVTZ
  Basis Set: (AUG-CC-PVTZ AUX)
    Blend: AUG-CC-PVTZ-JKFIT + DEF2-UNIVERSAL-JKFIT
  @DF-RHF Final Energy: -2572.53368835610672
    Total Energy =                      -2572.5336883561067225
 Dipole X            :       -177.2108009          172.2879088           -4.9228921
 Dipole Y            :          0.0001087            0.0000000            0.0001087
 Dipole Z            :          0.0000000            0.0000000            0.0000000
 Magnitude           :                                                    4.9228921
  Basis Set: (AUG-CC-PVTZ AUX)
    Blend: AUG-CC-PVTZ-RI + DEF2-QZVPP-RI
	 Reference Energy          =   -2572.5336883561067225 [Eh]
	 Singles Energy            =      -0.0000000000000000 [Eh]
	 Same-Spin Energy          =      -0.0882221679378303 [Eh]
	 Opposite-Spin Energy      =      -0.2046138943498959 [Eh]
	 Correlation Energy        =      -0.2928360622877262 [Eh]
	 Total Energy              =   -2572.8265244183944560 [Eh]
	 SCS Total Energy          =   -2572.8086324186392631 [Eh]
                               Psi4 1.9 release
    Molecular point group: c1
  Multiplicity = 1
  Basis Set: AUG-CC-PVTZ
    Blend: AUG-CC-PVTZ
  Basis Set: (AUG-CC-PVTZ AUX)
    Blend: AUG-CC-PVTZ-JKFIT + DEF2-UNIVERSAL-JKFIT
  @DF-RHF Final Energy: -2579.99947795456364
    Total Energy =                      -2579.9994779545631900
  Basis Set: (AUG-CC-PVTZ AUX)
	 Singles Energy            =      -0.0000000000000000 [Eh]
	 Same-Spin Energy          =      -0.0890613699847287 [Eh]
	 Opposite-Spin Energy      =      -0.2189563423854796 [Eh]
	 Correlation Energy        =      -0.3080177123702084 [Eh]
	 Total Energy              =   -2580.3074956669338462 [Eh]
	 SCS Total Energy          =   -2580.2919126887545644 [Eh]
                               Psi4 1.9 release
    Molecular point group: c1

    Geometry (in Bohr), charge = -1, multiplicity = 1:

       Center              X                  Y                   Z               Mass
    ------------   -----------------  -----------------  -----------------  -----------------
         LI           0.000000000000     0.000000000000     0.000000000000     7.016003436600
         BR           0.000000000000     4.102092751220     0.000000000000    78.918337600000
         BR           4.922511679409     0.000000000000     0.000000000000    78.918337600000

  Charge       = -1
  Multiplicity = 1
  Basis Set: AUG-CC-PVTZ
    Blend: AUG-CC-PVTZ
  Basis Set: (AUG-CC-PVTZ AUX)
    Blend: AUG-CC-PVTZ-JKFIT + DEF2-UNIVERSAL-JKFIT

    Orbital Energies [Eh]
    ---------------------

    Doubly Occupied:

       1A   -489.774964     2A   -489.758223     3A    -64.915857
       4A    -64.898482     5A    -58.270331     6A    -58.270317
       7A    -58.270164     8A    -58.253050     9A    -58.252935
      10A    -58.252841    11A     -9.588916    12A     -9.570951
      13A     -7.196892    14A     -7.196359    15A     -7.195883
      16A     -7.178936    17A     -7.178215    18A     -7.177817
      19A     -2.938683    20A     -2.938563    21A     -2.937881
      22A     -2.937330    23A     -2.937199    24A     -2.920840
      25A     -2.920642    26A     -2.920080    27A     -2.919149
      28A     -2.919091    29A     -2.294658    30A     -0.757201
      31A     -0.727764    32A     -0.239047    33A     -0.213909
      34A     -0.204572    35A     -0.187315    36A     -0.175117
      37A     -0.151883

  @DF-RHF Final Energy: -5152.56129175346905

   => Energetics <=

    Nuclear Repulsion Energy =            238.1042815390933924
    One-Electron Energy =               -7670.4470251511402239
    Two-Electron Energy =                2279.7814518585782935
    Total Energy =                      -5152.5612917534681401
 Dipole X            :       -176.1826454          172.2879088           -3.8947366
 Dipole Y            :       -146.5699793          143.5732463           -2.9967330
 Dipole Z            :         -0.0000000            0.0000000           -0.0000000
 Magnitude           :                                                    4.9142021
  Basis Set: (AUG-CC-PVTZ AUX)
    Blend: AUG-CC-PVTZ-RI + DEF2-QZVPP-RI
	 Reference Energy          =   -5152.5612917534690496 [Eh]
	 Singles Energy            =      -0.0000000000000000 [Eh]
	 Same-Spin Energy          =      -0.1808836401924909 [Eh]
	 Opposite-Spin Energy      =      -0.4271197397855088 [Eh]
	 Correlation Energy        =      -0.6080033799779997 [Eh]
	 Total Energy              =   -5153.1692951334471218 [Eh]

	 ================> DF-SCS-MP2 Energies <==================
	-----------------------------------------------------------
	 SCS Same-Spin Scale       =       0.3333333333333333 [-]
	 SCS Opposite-Spin Scale   =       1.2000000000000000 [-]
	 SCS Same-Spin Energy      =      -0.0602945467308303 [Eh]
	 SCS Opposite-Spin Energy  =      -0.5125436877426106 [Eh]
	 SCS Correlation Energy    =      -0.5728382344734408 [Eh]
	 SCS Total Energy          =   -5153.1341299879422877 [Eh]
	-----------------------------------------------------------

*** Psi4 exiting successfully. Buy a developer a beer!
