                               Psi4 1.8.2 release

  ==> Input File <==

--------------------------------------------------------------------------
MEMORY 60 GB

molecule dimer {
-1 1
Gh(Li)     0.000000     0.000000     0.000000
Gh(Br)     0.000000     2.170734     0.000000
Br         3.039028     0.000000     0.000000

units ang
no_reorient
no_com
symmetry c1
}

set {
basis        aug-cc-pVTZ
scf_type     df
}

energy("mp2")
--------------------------------------------------------------------------

    Molecular point group: c1

    Geometry (in Angstrom), charge = -1, multiplicity = 1:

       Center              X                  Y                   Z               Mass
    ------------   -----------------  -----------------  -----------------  -----------------
      Gh(LI)          0.000000000000     0.000000000000     0.000000000000     7.016003436600
      Gh(BR)          0.000000000000     2.170734000000     0.000000000000    78.918337600000
         BR           3.039028000000     0.000000000000     0.000000000000    78.918337600000

  Charge       = -1
  Multiplicity = 1
  Basis Set: AUG-CC-PVTZ
    Blend: AUG-CC-PVTZ
  Basis Set: (AUG-CC-PVTZ AUX)
    Blend: AUG-CC-PVTZ-JKFIT + DEF2-UNIVERSAL-JKFIT

    Orbital Energies [Eh]
    ---------------------

    Doubly Occupied:

       1A   -489.720821     2A    -64.860767     3A    -58.215258
       4A    -58.215257     5A    -58.215255     6A     -9.532945
       7A     -7.140294     8A     -7.140292     9A     -7.140279
      10A     -2.881969    11A     -2.881968    12A     -2.881966
      13A     -2.881964    14A     -2.881963    15A     -0.685999
      16A     -0.139342    17A     -0.139338    18A     -0.139338

  @DF-RHF Final Energy: -2572.53368272458010

   => Energetics <=

    Nuclear Repulsion Energy =              0.0000000000000000
    One-Electron Energy =               -3593.6773298395160054
    Two-Electron Energy =                1021.1436471149357885
    Total Energy =                      -2572.5336827245801032
 Dipole X            :       -206.7457194          201.0025713           -5.7431481
 Dipole Y            :          0.0000632            0.0000000            0.0000632
 Dipole Z            :          0.0000000            0.0000000            0.0000000
 Magnitude           :                                                    5.7431481
  Basis Set: (AUG-CC-PVTZ AUX)
    Blend: AUG-CC-PVTZ-RI + DEF2-QZVPP-RI
	 Reference Energy          =   -2572.5336827245801032 [Eh]
	 Singles Energy            =      -0.0000000000000000 [Eh]
	 Same-Spin Energy          =      -0.0877838565447521 [Eh]
	 Opposite-Spin Energy      =      -0.2035315280788736 [Eh]
	 Correlation Energy        =      -0.2913153846236257 [Eh]
	 Total Energy              =   -2572.8249981092035341 [Eh]

	 ================> DF-SCS-MP2 Energies <==================
	-----------------------------------------------------------
	 SCS Same-Spin Scale       =       0.3333333333333333 [-]
	 SCS Opposite-Spin Scale   =       1.2000000000000000 [-]
	 SCS Same-Spin Energy      =      -0.0292612855149174 [Eh]
	 SCS Opposite-Spin Energy  =      -0.2442378336946483 [Eh]
	 SCS Correlation Energy    =      -0.2734991192095657 [Eh]
	 SCS Total Energy          =   -2572.8071818437897491 [Eh]
	-----------------------------------------------------------

*** Psi4 exiting successfully. Buy a developer a beer!
