                               Psi4 1.8.2 release

  ==> Input File <==

--------------------------------------------------------------------------
MEMORY 60 GB

molecule dimer {
-1 1
Gh(Li)     0.000000     0.000000     0.000000
Br         0.000000     2.170734     0.000000
Gh(Br)     2.387807     0.000000     0.000000

units ang
no_reorient
no_com
symmetry c1
}

set {
basis        aug-cc-pVTZ
scf_type     df
}

energy("mp2")
--------------------------------------------------------------------------

    Molecular point group: c1

    Geometry (in Angstrom), charge = -1, multiplicity = 1:

       Center              X                  Y                   Z               Mass
    ------------   -----------------  -----------------  -----------------  -----------------
      Gh(LI)          0.000000000000     0.000000000000     0.000000000000     7.016003436600
         BR           0.000000000000     2.170734000000     0.000000000000    78.918337600000
      Gh(BR)          2.387807000000     0.000000000000     0.000000000000    78.918337600000

  Charge       = -1
  Multiplicity = 1
  Basis Set: AUG-CC-PVTZ
    Blend: AUG-CC-PVTZ
  Basis Set: (AUG-CC-PVTZ AUX)
    Blend: AUG-CC-PVTZ-JKFIT + DEF2-UNIVERSAL-JKFIT

    Orbital Energies [Eh]
    ---------------------

    Doubly Occupied:

       1A   -489.721291     2A    -64.861099     3A    -58.215607
       4A    -58.215606     5A    -58.215604     6A     -9.533050
       7A     -7.140396     8A     -7.140391     9A     -7.140378
      10A     -2.882087    11A     -2.882085    12A     -2.882076
      13A     -2.882072    14A     -2.882071    15A     -0.685998
      16A     -0.139342    17A     -0.139341    18A     -0.139337

  @DF-RHF Final Energy: -2572.53369525272865

   => Energetics <=

    Nuclear Repulsion Energy =              0.0000000000000000
    One-Electron Energy =               -3593.6717302815627590
    Two-Electron Energy =                1021.1380350288341106
    Total Energy =                      -2572.5336952527286485
 Dipole X            :          0.0001302            0.0000000            0.0001302
 Dipole Y            :       -147.6758297          143.5732463           -4.1025834
 Dipole Z            :          0.0000000            0.0000000            0.0000000
 Magnitude           :                                                    4.1025834
  Basis Set: (AUG-CC-PVTZ AUX)
    Blend: AUG-CC-PVTZ-RI + DEF2-QZVPP-RI
	 Reference Energy          =   -2572.5336952527286485 [Eh]
	 Singles Energy            =      -0.0000000000000000 [Eh]
	 Same-Spin Energy          =      -0.0888330288035705 [Eh]
	 Opposite-Spin Energy      =      -0.2060875489765156 [Eh]
	 Correlation Energy        =      -0.2949205777800861 [Eh]
	 Total Energy              =   -2572.8286158305086246 [Eh]

	 ================> DF-SCS-MP2 Energies <==================
	-----------------------------------------------------------
	 SCS Same-Spin Scale       =       0.3333333333333333 [-]
	 SCS Opposite-Spin Scale   =       1.2000000000000000 [-]
	 SCS Same-Spin Energy      =      -0.0296110096011902 [Eh]
	 SCS Opposite-Spin Energy  =      -0.2473050587718187 [Eh]
	 SCS Correlation Energy    =      -0.2769160683730089 [Eh]
	 SCS Total Energy          =   -2572.8106113211015327 [Eh]
	-----------------------------------------------------------

*** Psi4 exiting successfully. Buy a developer a beer!
