                               Psi4 1.8.2 release

  ==> Input File <==

--------------------------------------------------------------------------
MEMORY 60 GB

molecule dimer {
-1 1
Gh(Li)     0.000000     0.000000     0.000000
Br         0.000000     2.170734     0.000000
Gh(Br)     2.170734     0.000000     0.000000

units ang
no_reorient
no_com
symmetry c1
}

set {
basis        aug-cc-pVTZ
scf_type     df
}

energy("mp2")
--------------------------------------------------------------------------

    Molecular point group: c1

    Geometry (in Angstrom), charge = -1, multiplicity = 1:

       Center              X                  Y                   Z               Mass
    ------------   -----------------  -----------------  -----------------  -----------------
      Gh(LI)          0.000000000000     0.000000000000     0.000000000000     7.016003436600
         BR           0.000000000000     2.170734000000     0.000000000000    78.918337600000
      Gh(BR)          2.170734000000     0.000000000000     0.000000000000    78.918337600000

  Charge       = -1
  Multiplicity = 1
  Basis Set: AUG-CC-PVTZ
    Blend: AUG-CC-PVTZ
  Basis Set: (AUG-CC-PVTZ AUX)
    Blend: AUG-CC-PVTZ-JKFIT + DEF2-UNIVERSAL-JKFIT

    Orbital Energies [Eh]
    ---------------------

    Doubly Occupied:

       1A   -489.721310     2A    -64.861113     3A    -58.215622
       4A    -58.215621     5A    -58.215619     6A     -9.533055
       7A     -7.140402     8A     -7.140396     9A     -7.140383
      10A     -2.882093    11A     -2.882090    12A     -2.882082
      13A     -2.882078    14A     -2.882075    15A     -0.685999
      16A     -0.139342    17A     -0.139341    18A     -0.139337

  @DF-RHF Final Energy: -2572.53369630213911

   => Energetics <=

    Nuclear Repulsion Energy =              0.0000000000000000
    One-Electron Energy =               -3593.6714779763256047
    Two-Electron Energy =                1021.1377816741866127
    Total Energy =                      -2572.5336963021391057
 Dipole X            :          0.0001321            0.0000000            0.0001321
 Dipole Y            :       -147.6758190          143.5732463           -4.1025727
 Dipole Z            :          0.0000000            0.0000000            0.0000000
 Magnitude           :                                                    4.1025727
  Basis Set: (AUG-CC-PVTZ AUX)
    Blend: AUG-CC-PVTZ-RI + DEF2-QZVPP-RI
	 Reference Energy          =   -2572.5336963021391057 [Eh]
	 Singles Energy            =      -0.0000000000000000 [Eh]
	 Same-Spin Energy          =      -0.0889065879572719 [Eh]
	 Opposite-Spin Energy      =      -0.2062873405452338 [Eh]
	 Correlation Energy        =      -0.2951939285025057 [Eh]
	 Total Energy              =   -2572.8288902306417185 [Eh]

	 ================> DF-SCS-MP2 Energies <==================
	-----------------------------------------------------------
	 SCS Same-Spin Scale       =       0.3333333333333333 [-]
	 SCS Opposite-Spin Scale   =       1.2000000000000000 [-]
	 SCS Same-Spin Energy      =      -0.0296355293190906 [Eh]
	 SCS Opposite-Spin Energy  =      -0.2475448086542805 [Eh]
	 SCS Correlation Energy    =      -0.2771803379733712 [Eh]
	 SCS Total Energy          =   -2572.8108766401123830 [Eh]
	-----------------------------------------------------------

*** Psi4 exiting successfully. Buy a developer a beer!
