                               Psi4 1.8.2 release

  ==> Input File <==

--------------------------------------------------------------------------
MEMORY 60 GB

molecule dimer {
-1 1
Gh(Li)     0.000000     0.000000     0.000000
Br         0.000000     2.170734     0.000000
Gh(Br)     4.341468     0.000000     0.000000

units ang
no_reorient
no_com
symmetry c1
}

set {
basis        aug-cc-pVTZ
scf_type     df
}

energy("mp2")
--------------------------------------------------------------------------

    Molecular point group: c1

    Geometry (in Angstrom), charge = -1, multiplicity = 1:

       Center              X                  Y                   Z               Mass
    ------------   -----------------  -----------------  -----------------  -----------------
      Gh(LI)          0.000000000000     0.000000000000     0.000000000000     7.016003436600
         BR           0.000000000000     2.170734000000     0.000000000000    78.918337600000
      Gh(BR)          4.341468000000     0.000000000000     0.000000000000    78.918337600000

  Charge       = -1
  Multiplicity = 1
  Basis Set: AUG-CC-PVTZ
    Blend: AUG-CC-PVTZ
  Basis Set: (AUG-CC-PVTZ AUX)
    Blend: AUG-CC-PVTZ-JKFIT + DEF2-UNIVERSAL-JKFIT

    Orbital Energies [Eh]
    ---------------------

    Doubly Occupied:

       1A   -489.721207     2A    -64.861042     3A    -58.215546
       4A    -58.215545     5A    -58.215543     6A     -9.533033
       7A     -7.140376     8A     -7.140374     9A     -7.140360
      10A     -2.882066    11A     -2.882065    12A     -2.882055
      13A     -2.882054    14A     -2.882051    15A     -0.685998
      16A     -0.139341    17A     -0.139341    18A     -0.139335

  @DF-RHF Final Energy: -2572.53369222452829

   => Energetics <=

    Nuclear Repulsion Energy =              0.0000000000000000
    One-Electron Energy =               -3593.6727189105909019
    Two-Electron Energy =                1021.1390266860629481
    Total Energy =                      -2572.5336922245278402
 Dipole X            :         -0.0000102            0.0000000           -0.0000102
 Dipole Y            :       -147.6759120          143.5732463           -4.1026657
 Dipole Z            :          0.0000000            0.0000000            0.0000000
 Magnitude           :                                                    4.1026657
  Basis Set: (AUG-CC-PVTZ AUX)
    Blend: AUG-CC-PVTZ-RI + DEF2-QZVPP-RI
	 Reference Energy          =   -2572.5336922245282949 [Eh]
	 Singles Energy            =      -0.0000000000000000 [Eh]
	 Same-Spin Energy          =      -0.0885782528719782 [Eh]
	 Opposite-Spin Energy      =      -0.2054354541688634 [Eh]
	 Correlation Energy        =      -0.2940137070408415 [Eh]
	 Total Energy              =   -2572.8277059315691986 [Eh]

	 ================> DF-SCS-MP2 Energies <==================
	-----------------------------------------------------------
	 SCS Same-Spin Scale       =       0.3333333333333333 [-]
	 SCS Opposite-Spin Scale   =       1.2000000000000000 [-]
	 SCS Same-Spin Energy      =      -0.0295260842906594 [Eh]
	 SCS Opposite-Spin Energy  =      -0.2465225450026360 [Eh]
	 SCS Correlation Energy    =      -0.2760486292932954 [Eh]
	 SCS Total Energy          =   -2572.8097408538214950 [Eh]
	-----------------------------------------------------------

*** Psi4 exiting successfully. Buy a developer a beer!
