                               Psi4 1.9 release

  ==> Input File <==

--------------------------------------------------------------------------
MEMORY 60 GB

molecule dimer {
0 1
Li     0.000000     0.000000     0.000000
Br     0.000000     2.170734     0.000000
--
-1 1
Br     2.821954     0.000000     0.000000

units ang
no_reorient
no_com
symmetry c1
}

set {
basis        aug-cc-pVTZ
scf_type     df
}

energy("mp2", bsse_type="cp")
--------------------------------------------------------------------------

                               Psi4 1.9 release
    Molecular point group: c1
  Charge       = -1
  Multiplicity = 1
  Basis Set: AUG-CC-PVTZ
    Blend: AUG-CC-PVTZ
  Basis Set: (AUG-CC-PVTZ AUX)
    Blend: AUG-CC-PVTZ-JKFIT + DEF2-UNIVERSAL-JKFIT
  @DF-RHF Final Energy: -2572.53368530023135
    Total Energy =                      -2572.5336853002308999
 Dipole X            :       -191.9782294          186.6452070           -5.3330225
 Dipole Y            :          0.0000811            0.0000000            0.0000811
 Dipole Z            :          0.0000000            0.0000000            0.0000000
 Magnitude           :                                                    5.3330225
  Basis Set: (AUG-CC-PVTZ AUX)
    Blend: AUG-CC-PVTZ-RI + DEF2-QZVPP-RI
	 Reference Energy          =   -2572.5336853002313546 [Eh]
	 Singles Energy            =      -0.0000000000000000 [Eh]
	 Same-Spin Energy          =      -0.0879795805931663 [Eh]
	 Opposite-Spin Energy      =      -0.2040170984961188 [Eh]
	 Correlation Energy        =      -0.2919966790892851 [Eh]
	 Total Energy              =   -2572.8256819793205068 [Eh]
	 SCS Total Energy          =   -2572.8078323452909899 [Eh]
                               Psi4 1.9 release
    Molecular point group: c1
  Multiplicity = 1
  Basis Set: AUG-CC-PVTZ
    Blend: AUG-CC-PVTZ
  Basis Set: (AUG-CC-PVTZ AUX)
    Blend: AUG-CC-PVTZ-JKFIT + DEF2-UNIVERSAL-JKFIT
  @DF-RHF Final Energy: -2579.99947399127632
    Total Energy =                      -2579.9994739912763180
  Basis Set: (AUG-CC-PVTZ AUX)
	 Singles Energy            =      -0.0000000000000000 [Eh]
	 Same-Spin Energy          =      -0.0890007284019898 [Eh]
	 Opposite-Spin Energy      =      -0.2186448853205775 [Eh]
	 Correlation Energy        =      -0.3076456137225674 [Eh]
	 Total Energy              =   -2580.3071196049986611 [Eh]
	 SCS Total Energy          =   -2580.2915147631283617 [Eh]
                               Psi4 1.9 release
    Molecular point group: c1

    Geometry (in Bohr), charge = -1, multiplicity = 1:

       Center              X                  Y                   Z               Mass
    ------------   -----------------  -----------------  -----------------  -----------------
         LI           0.000000000000     0.000000000000     0.000000000000     7.016003436600
         BR           0.000000000000     4.102092751220     0.000000000000    78.918337600000
         BR           5.332720198640     0.000000000000     0.000000000000    78.918337600000

  Charge       = -1
  Multiplicity = 1
  Basis Set: AUG-CC-PVTZ
    Blend: AUG-CC-PVTZ
  Basis Set: (AUG-CC-PVTZ AUX)
    Blend: AUG-CC-PVTZ-JKFIT + DEF2-UNIVERSAL-JKFIT

    Orbital Energies [Eh]
    ---------------------

    Doubly Occupied:

       1A   -489.781761     2A   -489.755005     3A    -64.922577
       4A    -64.895102     5A    -58.277060     6A    -58.277045
       7A    -58.276899     8A    -58.249688     9A    -58.249555
      10A    -58.249477    11A     -9.595552    12A     -9.567423
      13A     -7.203534    14A     -7.202987    15A     -7.202526
      16A     -7.175377    17A     -7.174644    18A     -7.174296
      19A     -2.945306    20A     -2.945175    21A     -2.944545
      22A     -2.943988    23A     -2.943866    24A     -2.917279
      25A     -2.917065    26A     -2.916592    27A     -2.915633
      28A     -2.915589    29A     -2.308813    30A     -0.761924
      31A     -0.722893    32A     -0.238905    33A     -0.216122
      34A     -0.208302    35A     -0.180393    36A     -0.172373
      37A     -0.156968

  @DF-RHF Final Energy: -5152.56041965448094

   => Energetics <=

    Nuclear Repulsion Energy =            227.3632041873025855
    One-Electron Energy =               -7648.8427652383670647
    Two-Electron Energy =                2268.9191413965836546
    Total Energy =                      -5152.5604196544809383
 Dipole X            :       -191.0037395          186.6452070           -4.3585325
 Dipole Y            :       -146.5521525          143.5732463           -2.9789063
 Dipole Z            :         -0.0000000            0.0000000           -0.0000000
 Magnitude           :                                                    5.2792697
  Basis Set: (AUG-CC-PVTZ AUX)
    Blend: AUG-CC-PVTZ-RI + DEF2-QZVPP-RI
	 Reference Energy          =   -5152.5604196544809383 [Eh]
	 Singles Energy            =      -0.0000000000000000 [Eh]
	 Same-Spin Energy          =      -0.1798746102356366 [Eh]
	 Opposite-Spin Energy      =      -0.4256250081680938 [Eh]
	 Correlation Energy        =      -0.6054996184037305 [Eh]
	 Total Energy              =   -5153.1659192728848211 [Eh]

	 ================> DF-SCS-MP2 Energies <==================
	-----------------------------------------------------------
	 SCS Same-Spin Scale       =       0.3333333333333333 [-]
	 SCS Opposite-Spin Scale   =       1.2000000000000000 [-]
	 SCS Same-Spin Energy      =      -0.0599582034118789 [Eh]
	 SCS Opposite-Spin Energy  =      -0.5107500098017125 [Eh]
	 SCS Correlation Energy    =      -0.5707082132135913 [Eh]
	 SCS Total Energy          =   -5153.1311278676948859 [Eh]
	-----------------------------------------------------------

*** Psi4 exiting successfully. Buy a developer a beer!
