                               Psi4 1.8.2 release

  ==> Input File <==

--------------------------------------------------------------------------
MEMORY 60 GB

molecule dimer {
-1 1
Gh(Li)     0.000000     0.000000     0.000000
Br         0.000000     2.170734     0.000000
Gh(Br)     2.821954     0.000000     0.000000

units ang
no_reorient
no_com
symmetry c1
}

set {
basis        aug-cc-pVTZ
scf_type     df
}

energy("mp2")
--------------------------------------------------------------------------

    Molecular point group: c1

    Geometry (in Angstrom), charge = -1, multiplicity = 1:

       Center              X                  Y                   Z               Mass
    ------------   -----------------  -----------------  -----------------  -----------------
      Gh(LI)          0.000000000000     0.000000000000     0.000000000000     7.016003436600
         BR           0.000000000000     2.170734000000     0.000000000000    78.918337600000
      Gh(BR)          2.821954000000     0.000000000000     0.000000000000    78.918337600000

  Charge       = -1
  Multiplicity = 1
  Basis Set: AUG-CC-PVTZ
    Blend: AUG-CC-PVTZ
  Basis Set: (AUG-CC-PVTZ AUX)
    Blend: AUG-CC-PVTZ-JKFIT + DEF2-UNIVERSAL-JKFIT

    Orbital Energies [Eh]
    ---------------------

    Doubly Occupied:

       1A   -489.721263     2A    -64.861079     3A    -58.215586
       4A    -58.215585     5A    -58.215583     6A     -9.533044
       7A     -7.140389     8A     -7.140384     9A     -7.140372
      10A     -2.882079    11A     -2.882077    12A     -2.882068
      13A     -2.882066    14A     -2.882064    15A     -0.685998
      16A     -0.139341    17A     -0.139340    18A     -0.139336

  @DF-RHF Final Energy: -2572.53369404381556

   => Energetics <=

    Nuclear Repulsion Energy =              0.0000000000000000
    One-Electron Energy =               -3593.6720758953088080
    Two-Electron Energy =                1021.1383818514930226
    Total Energy =                      -2572.5336940438155580
 Dipole X            :          0.0000810            0.0000000            0.0000810
 Dipole Y            :       -147.6758592          143.5732463           -4.1026129
 Dipole Z            :          0.0000000            0.0000000            0.0000000
 Magnitude           :                                                    4.1026129
  Basis Set: (AUG-CC-PVTZ AUX)
    Blend: AUG-CC-PVTZ-RI + DEF2-QZVPP-RI
	 Reference Energy          =   -2572.5336940438155580 [Eh]
	 Singles Energy            =      -0.0000000000000000 [Eh]
	 Same-Spin Energy          =      -0.0887294838021827 [Eh]
	 Opposite-Spin Energy      =      -0.2058107400871216 [Eh]
	 Correlation Energy        =      -0.2945402238893043 [Eh]
	 Total Energy              =   -2572.8282342677048291 [Eh]

	 ================> DF-SCS-MP2 Energies <==================
	-----------------------------------------------------------
	 SCS Same-Spin Scale       =       0.3333333333333333 [-]
	 SCS Opposite-Spin Scale   =       1.2000000000000000 [-]
	 SCS Same-Spin Energy      =      -0.0295764946007276 [Eh]
	 SCS Opposite-Spin Energy  =      -0.2469728881045459 [Eh]
	 SCS Correlation Energy    =      -0.2765493827052735 [Eh]
	 SCS Total Energy          =   -2572.8102434265206284 [Eh]
	-----------------------------------------------------------

*** Psi4 exiting successfully. Buy a developer a beer!
