                               Psi4 1.8.2 release

  ==> Input File <==

--------------------------------------------------------------------------
MEMORY 60 GB

molecule dimer {
-1 1
Gh(Li)     0.000000     0.000000     0.000000
Gh(Br)     0.000000     2.170734     0.000000
Br         3.256101     0.000000     0.000000

units ang
no_reorient
no_com
symmetry c1
}

set {
basis        aug-cc-pVTZ
scf_type     df
}

energy("mp2")
--------------------------------------------------------------------------

    Molecular point group: c1

    Geometry (in Angstrom), charge = -1, multiplicity = 1:

       Center              X                  Y                   Z               Mass
    ------------   -----------------  -----------------  -----------------  -----------------
      Gh(LI)          0.000000000000     0.000000000000     0.000000000000     7.016003436600
      Gh(BR)          0.000000000000     2.170734000000     0.000000000000    78.918337600000
         BR           3.256101000000     0.000000000000     0.000000000000    78.918337600000

  Charge       = -1
  Multiplicity = 1
  Basis Set: AUG-CC-PVTZ
    Blend: AUG-CC-PVTZ
  Basis Set: (AUG-CC-PVTZ AUX)
    Blend: AUG-CC-PVTZ-JKFIT + DEF2-UNIVERSAL-JKFIT

    Orbital Energies [Eh]
    ---------------------

    Doubly Occupied:

       1A   -489.720753     2A    -64.860720     3A    -58.215208
       4A    -58.215207     5A    -58.215205     6A     -9.532931
       7A     -7.140280     8A     -7.140277     9A     -7.140266
      10A     -2.881953    11A     -2.881952    12A     -2.881951
      13A     -2.881949    14A     -2.881947    15A     -0.685999
      16A     -0.139343    17A     -0.139337    18A     -0.139337

  @DF-RHF Final Energy: -2572.53368046308742

   => Energetics <=

    Nuclear Repulsion Energy =              0.0000000000000000
    One-Electron Energy =               -3593.6781271730387743
    Two-Electron Energy =                1021.1444467099515805
    Total Energy =                      -2572.5336804630869665
 Dipole X            :       -221.5131605          215.3598694           -6.1532911
 Dipole Y            :          0.0000593            0.0000000            0.0000593
 Dipole Z            :         -0.0000000            0.0000000           -0.0000000
 Magnitude           :                                                    6.1532911
  Basis Set: (AUG-CC-PVTZ AUX)
    Blend: AUG-CC-PVTZ-RI + DEF2-QZVPP-RI
	 Reference Energy          =   -2572.5336804630874212 [Eh]
	 Singles Energy            =      -0.0000000000000000 [Eh]
	 Same-Spin Energy          =      -0.0876184133568374 [Eh]
	 Opposite-Spin Energy      =      -0.2031223015450022 [Eh]
	 Correlation Energy        =      -0.2907407149018395 [Eh]
	 Total Energy              =   -2572.8244211779892794 [Eh]

	 ================> DF-SCS-MP2 Energies <==================
	-----------------------------------------------------------
	 SCS Same-Spin Scale       =       0.3333333333333333 [-]
	 SCS Opposite-Spin Scale   =       1.2000000000000000 [-]
	 SCS Same-Spin Energy      =      -0.0292061377856125 [Eh]
	 SCS Opposite-Spin Energy  =      -0.2437467618540026 [Eh]
	 SCS Correlation Energy    =      -0.2729528996396150 [Eh]
	 SCS Total Energy          =   -2572.8066333627270978 [Eh]
	-----------------------------------------------------------

*** Psi4 exiting successfully. Buy a developer a beer!
