                               Psi4 1.8.2 release

  ==> Input File <==

--------------------------------------------------------------------------
MEMORY 60 GB

molecule dimer {
-1 1
Gh(Li)     0.000000     0.000000     0.000000
Gh(Br)     0.000000     2.170734     0.000000
Br         4.341468     0.000000     0.000000

units ang
no_reorient
no_com
symmetry c1
}

set {
basis        aug-cc-pVTZ
scf_type     df
}

energy("mp2")
--------------------------------------------------------------------------

    Molecular point group: c1

    Geometry (in Angstrom), charge = -1, multiplicity = 1:

       Center              X                  Y                   Z               Mass
    ------------   -----------------  -----------------  -----------------  -----------------
      Gh(LI)          0.000000000000     0.000000000000     0.000000000000     7.016003436600
      Gh(BR)          0.000000000000     2.170734000000     0.000000000000    78.918337600000
         BR           4.341468000000     0.000000000000     0.000000000000    78.918337600000

  Charge       = -1
  Multiplicity = 1
  Basis Set: AUG-CC-PVTZ
    Blend: AUG-CC-PVTZ
  Basis Set: (AUG-CC-PVTZ AUX)
    Blend: AUG-CC-PVTZ-JKFIT + DEF2-UNIVERSAL-JKFIT

    Orbital Energies [Eh]
    ---------------------

    Doubly Occupied:

       1A   -489.720515     2A    -64.860561     3A    -58.215036
       4A    -58.215036     5A    -58.215035     6A     -9.532886
       7A     -7.140230     8A     -7.140230     9A     -7.140225
      10A     -2.881899    11A     -2.881898    12A     -2.881898
      13A     -2.881897    14A     -2.881893    15A     -0.686001
      16A     -0.139341    17A     -0.139338    18A     -0.139337

  @DF-RHF Final Energy: -2572.53367311082957

   => Energetics <=

    Nuclear Repulsion Energy =              0.0000000000000000
    One-Electron Energy =               -3593.6808317589375292
    Two-Electron Energy =                1021.1471586481079612
    Total Energy =                      -2572.5336731108295680
 Dipole X            :       -295.3507613          287.1464926           -8.2042687
 Dipole Y            :         -0.0000054            0.0000000           -0.0000054
 Dipole Z            :         -0.0000000            0.0000000           -0.0000000
 Magnitude           :                                                    8.2042687
  Basis Set: (AUG-CC-PVTZ AUX)
    Blend: AUG-CC-PVTZ-RI + DEF2-QZVPP-RI
	 Reference Energy          =   -2572.5336731108295680 [Eh]
	 Singles Energy            =      -0.0000000000000000 [Eh]
	 Same-Spin Energy          =      -0.0870834107559484 [Eh]
	 Opposite-Spin Energy      =      -0.2018679230046238 [Eh]
	 Correlation Energy        =      -0.2889513337605721 [Eh]
	 Total Energy              =   -2572.8226244445900193 [Eh]

	 ================> DF-SCS-MP2 Energies <==================
	-----------------------------------------------------------
	 SCS Same-Spin Scale       =       0.3333333333333333 [-]
	 SCS Opposite-Spin Scale   =       1.2000000000000000 [-]
	 SCS Same-Spin Energy      =      -0.0290278035853161 [Eh]
	 SCS Opposite-Spin Energy  =      -0.2422415076055486 [Eh]
	 SCS Correlation Energy    =      -0.2712693111908647 [Eh]
	 SCS Total Energy          =   -2572.8049424220203036 [Eh]
	-----------------------------------------------------------

*** Psi4 exiting successfully. Buy a developer a beer!
