                               Psi4 1.8.2 release

  ==> Input File <==

--------------------------------------------------------------------------
MEMORY 60 GB

molecule dimer {
1 1
Li     0.000000     0.000000     0.000000
--
-1 1
Br     0.000000     2.170734     0.000000
--
-1 1
Br     2.604881     0.000000     0.000000

units ang
no_reorient
no_com
symmetry c1
}

set {
basis        aug-cc-pVTZ
scf_type     df
}

energy("mp2", bsse_type="cp")
--------------------------------------------------------------------------

                               Psi4 1.8.2 release
    Molecular point group: c1
  Charge       = 1
  Multiplicity = 1
  Basis Set: AUG-CC-PVTZ
    Blend: AUG-CC-PVTZ
  Basis Set: (AUG-CC-PVTZ AUX)
    Blend: AUG-CC-PVTZ-JKFIT + DEF2-UNIVERSAL-JKFIT
  @DF-RHF Final Energy:    -7.23638331496726
    Total Energy =                         -7.2363833149672603
 Dipole X            :          0.0000619            0.0000000            0.0000619
 Dipole Y            :          0.0000280            0.0000000            0.0000280
 Dipole Z            :          0.0000000            0.0000000            0.0000000
 Magnitude           :                                                    0.0000680
  Basis Set: (AUG-CC-PVTZ AUX)
    Blend: AUG-CC-PVTZ-RI + DEF2-QZVPP-RI
	 Reference Energy          =      -7.2363833149672603 [Eh]
	 Singles Energy            =      -0.0000000000000000 [Eh]
	 Same-Spin Energy          =       0.0000000000000000 [Eh]
	 Opposite-Spin Energy      =      -0.0129709326699169 [Eh]
	 Correlation Energy        =      -0.0129709326699169 [Eh]
	 Total Energy              =      -7.2493542476371768 [Eh]
	 SCS Total Energy          =      -7.2519484341711609 [Eh]
                               Psi4 1.8.2 release
    Molecular point group: c1
  Basis Set: AUG-CC-PVTZ
    Blend: AUG-CC-PVTZ
  Basis Set: (AUG-CC-PVTZ AUX)
    Blend: AUG-CC-PVTZ-JKFIT + DEF2-UNIVERSAL-JKFIT
  @DF-RHF Final Energy: -2572.53369448317881
    Total Energy =                      -2572.5336944831788060
  Basis Set: (AUG-CC-PVTZ AUX)
                               Psi4 1.8.2 release
  @DF-RHF Final Energy: -5144.92155592707422
    Total Energy =                      -5144.9215559270742233
                               Psi4 1.8.2 release
  @DF-RHF Final Energy: -2579.98546407487765
    Total Energy =                      -2579.9854640748776546
                               Psi4 1.8.2 release
  @DF-RHF Final Energy: -2579.99947795467961
    Total Energy =                      -2579.9994779546796053
                               Psi4 1.8.2 release
  Multiplicity = 1
  @DF-RHF Final Energy: -2572.53368835626361
    Total Energy =                      -2572.5336883562631556
	 Singles Energy            =      -0.0000000000000000 [Eh]
	 Same-Spin Energy          =      -0.0882221679378505 [Eh]
	 Opposite-Spin Energy      =      -0.2046138943497547 [Eh]
	 Correlation Energy        =      -0.2928360622876053 [Eh]
	 Total Energy              =   -2572.8265244185513438 [Eh]
	 SCS Total Energy          =   -2572.8086324187961509 [Eh]
                               Psi4 1.8.2 release
    Molecular point group: c1

    Geometry (in Bohr), charge = -1, multiplicity = 1:

       Center              X                  Y                   Z               Mass
    ------------   -----------------  -----------------  -----------------  -----------------
         LI           0.000000000000     0.000000000000     0.000000000000     7.016003436600
         BR           0.000000000000     4.102092751220     0.000000000000    78.918337600000
         BR           4.922511679409     0.000000000000     0.000000000000    78.918337600000

  Charge       = -1
  Multiplicity = 1
  Basis Set: AUG-CC-PVTZ
    Blend: AUG-CC-PVTZ
  Basis Set: (AUG-CC-PVTZ AUX)
    Blend: AUG-CC-PVTZ-JKFIT + DEF2-UNIVERSAL-JKFIT

    Orbital Energies [Eh]
    ---------------------

    Doubly Occupied:

       1A   -489.774964     2A   -489.758223     3A    -64.915857
       4A    -64.898482     5A    -58.270331     6A    -58.270317
       7A    -58.270164     8A    -58.253050     9A    -58.252935
      10A    -58.252841    11A     -9.588916    12A     -9.570951
      13A     -7.196892    14A     -7.196359    15A     -7.195883
      16A     -7.178936    17A     -7.178215    18A     -7.177817
      19A     -2.938683    20A     -2.938563    21A     -2.937881
      22A     -2.937330    23A     -2.937199    24A     -2.920840
      25A     -2.920642    26A     -2.920080    27A     -2.919149
      28A     -2.919091    29A     -2.294658    30A     -0.757201
      31A     -0.727764    32A     -0.239047    33A     -0.213909
      34A     -0.204572    35A     -0.187315    36A     -0.175117
      37A     -0.151883

  @DF-RHF Final Energy: -5152.56129175380920

   => Energetics <=

    Nuclear Repulsion Energy =            238.1042815390933924
    One-Electron Energy =               -7670.4470251514976553
    Two-Electron Energy =                2279.7814518585955739
    Total Energy =                      -5152.5612917538082911
 Dipole X            :       -176.1826454          172.2879088           -3.8947366
 Dipole Y            :       -146.5699793          143.5732463           -2.9967330
 Dipole Z            :         -0.0000000            0.0000000           -0.0000000
 Magnitude           :                                                    4.9142021
  Basis Set: (AUG-CC-PVTZ AUX)
    Blend: AUG-CC-PVTZ-RI + DEF2-QZVPP-RI
	 Reference Energy          =   -5152.5612917538092006 [Eh]
	 Singles Energy            =      -0.0000000000000000 [Eh]
	 Same-Spin Energy          =      -0.1808836401923683 [Eh]
	 Opposite-Spin Energy      =      -0.4271197397852399 [Eh]
	 Correlation Energy        =      -0.6080033799776081 [Eh]
	 Total Energy              =   -5153.1692951337863633 [Eh]

	 ================> DF-SCS-MP2 Energies <==================
	-----------------------------------------------------------
	 SCS Same-Spin Scale       =       0.3333333333333333 [-]
	 SCS Opposite-Spin Scale   =       1.2000000000000000 [-]
	 SCS Same-Spin Energy      =      -0.0602945467307894 [Eh]
	 SCS Opposite-Spin Energy  =      -0.5125436877422879 [Eh]
	 SCS Correlation Energy    =      -0.5728382344730774 [Eh]
	 SCS Total Energy          =   -5153.1341299882824387 [Eh]
	-----------------------------------------------------------

*** Psi4 exiting successfully. Buy a developer a beer!
