                               Psi4 1.8.2 release

  ==> Input File <==

--------------------------------------------------------------------------
MEMORY 60 GB

molecule dimer {
1 1
F          0.000000     0.000000     0.000000
Na         0.000000     1.939580     0.000000
Na         3.879160     0.000000     0.000000

units ang
no_reorient
no_com
symmetry c1
}

set {
basis        aug-cc-pVTZ
scf_type     df
}

energy("mp2")
--------------------------------------------------------------------------

    Molecular point group: c1

    Geometry (in Angstrom), charge = 1, multiplicity = 1:

       Center              X                  Y                   Z               Mass
    ------------   -----------------  -----------------  -----------------  -----------------
         F            0.000000000000     0.000000000000     0.000000000000    18.998403162730
         NA           0.000000000000     1.939580000000     0.000000000000    22.989769282000
         NA           3.879160000000     0.000000000000     0.000000000000    22.989769282000

  Charge       = 1
  Multiplicity = 1
  Basis Set: AUG-CC-PVTZ
    Blend: AUG-CC-PVTZ
  Basis Set: (AUG-CC-PVTZ AUX)
    Blend: AUG-CC-PVTZ-JKFIT + DEF2-UNIVERSAL-JKFIT

    Orbital Energies [Eh]
    ---------------------

    Doubly Occupied:

       1A    -40.745683     2A    -40.586777     3A    -26.207287
       4A     -3.057435     5A     -2.911042     6A     -1.780963
       7A     -1.780693     8A     -1.780093     9A     -1.636750
      10A     -1.635063    11A     -1.634515    12A     -1.460124
      13A     -0.577009    14A     -0.565167    15A     -0.564303

  @DF-RHF Final Energy:  -423.06238699884278

   => Energetics <=

    Nuclear Repulsion Energy =             55.2790295797954698
    One-Electron Energy =                -702.8370235611370163
    Two-Electron Energy =                 224.4956069824987139
    Total Energy =                       -423.0623869988427828
 Dipole X            :        -73.4795392           80.6360500            7.1565108
 Dipole Y            :        -36.9717588           40.3180250            3.3462661
 Dipole Z            :          0.0000000            0.0000000            0.0000000
 Magnitude           :                                                    7.9001990
  Basis Set: (AUG-CC-PVTZ AUX)
    Blend: AUG-CC-PVTZ-RI + DEF2-QZVPP-RI
	 Reference Energy          =    -423.0623869988427828 [Eh]
	 Singles Energy            =      -0.0000000000000000 [Eh]
	 Same-Spin Energy          =      -0.0849071444515192 [Eh]
	 Opposite-Spin Energy      =      -0.2418212612237695 [Eh]
	 Correlation Energy        =      -0.3267284056752887 [Eh]
	 Total Energy              =    -423.3891154045180656 [Eh]

	 ================> DF-SCS-MP2 Energies <==================
	-----------------------------------------------------------
	 SCS Same-Spin Scale       =       0.3333333333333333 [-]
	 SCS Opposite-Spin Scale   =       1.2000000000000000 [-]
	 SCS Same-Spin Energy      =      -0.0283023814838397 [Eh]
	 SCS Opposite-Spin Energy  =      -0.2901855134685234 [Eh]
	 SCS Correlation Energy    =      -0.3184878949523631 [Eh]
	 SCS Total Energy          =    -423.3808748937951236 [Eh]
	-----------------------------------------------------------

*** Psi4 exiting successfully. Buy a developer a beer!
