                               Psi4 1.8.2 release

  ==> Input File <==

--------------------------------------------------------------------------
MEMORY 60 GB

molecule dimer {
1 1
Gh(F)      0.000000     0.000000     0.000000
Gh(Na)     0.000000     1.939580     0.000000
Na         2.133538     0.000000     0.000000

units ang
no_reorient
no_com
symmetry c1
}

set {
basis        aug-cc-pVTZ
scf_type     df
}

energy("mp2")
--------------------------------------------------------------------------

    Molecular point group: c1

    Geometry (in Angstrom), charge = 1, multiplicity = 1:

       Center              X                  Y                   Z               Mass
    ------------   -----------------  -----------------  -----------------  -----------------
      Gh(F)           0.000000000000     0.000000000000     0.000000000000    18.998403162730
      Gh(NA)          0.000000000000     1.939580000000     0.000000000000    22.989769282000
         NA           2.133538000000     0.000000000000     0.000000000000    22.989769282000

  Charge       = 1
  Multiplicity = 1
  Basis Set: AUG-CC-PVTZ
    Blend: AUG-CC-PVTZ
  Basis Set: (AUG-CC-PVTZ AUX)
    Blend: AUG-CC-PVTZ-JKFIT + DEF2-UNIVERSAL-JKFIT

    Orbital Energies [Eh]
    ---------------------

    Doubly Occupied:

       1A    -40.762527     2A     -3.074746     3A     -1.798014
       4A     -1.797966     5A     -1.797915

  @DF-RHF Final Energy:  -161.67604814691532

   => Energetics <=

    Nuclear Repulsion Energy =              0.0000000000000000
    One-Electron Energy =                -224.8897599884282954
    Two-Electron Energy =                  63.2137118415129748
    Total Energy =                       -161.6760481469153206
 Dipole X            :        -40.3185974           44.3498275            4.0312301
 Dipole Y            :          0.0002878            0.0000000            0.0002878
 Dipole Z            :          0.0000000            0.0000000            0.0000000
 Magnitude           :                                                    4.0312301
  Basis Set: (AUG-CC-PVTZ AUX)
    Blend: AUG-CC-PVTZ-RI + DEF2-QZVPP-RI
	 Reference Energy          =    -161.6760481469153206 [Eh]
	 Singles Energy            =      -0.0000000000000000 [Eh]
	 Same-Spin Energy          =      -0.0026648412400359 [Eh]
	 Opposite-Spin Energy      =      -0.0098584316060245 [Eh]
	 Correlation Energy        =      -0.0125232728460604 [Eh]
	 Total Energy              =    -161.6885714197613879 [Eh]

	 ================> DF-SCS-MP2 Energies <==================
	-----------------------------------------------------------
	 SCS Same-Spin Scale       =       0.3333333333333333 [-]
	 SCS Opposite-Spin Scale   =       1.2000000000000000 [-]
	 SCS Same-Spin Energy      =      -0.0008882804133453 [Eh]
	 SCS Opposite-Spin Energy  =      -0.0118301179272294 [Eh]
	 SCS Correlation Energy    =      -0.0127183983405747 [Eh]
	 SCS Total Energy          =    -161.6887665452559020 [Eh]
	-----------------------------------------------------------

*** Psi4 exiting successfully. Buy a developer a beer!
