                               Psi4 1.8.2 release

  ==> Input File <==

--------------------------------------------------------------------------
MEMORY 60 GB

molecule dimer {
-1 1
F      0.000000     0.000000     0.000000
--
1 1
Na     0.000000     1.939580     0.000000
--
1 1
Na     2.521454     0.000000     0.000000

units ang
no_reorient
no_com
symmetry c1
}

set {
basis        aug-cc-pVTZ
scf_type     df
}

energy("mp2", bsse_type="cp")
--------------------------------------------------------------------------

                               Psi4 1.8.2 release
    Molecular point group: c1
  Charge       = -1
  Multiplicity = 1
  Basis Set: AUG-CC-PVTZ
    Blend: AUG-CC-PVTZ
  Basis Set: (AUG-CC-PVTZ AUX)
    Blend: AUG-CC-PVTZ-JKFIT + DEF2-UNIVERSAL-JKFIT
  @DF-RHF Final Energy:   -99.45088317475921
    Total Energy =                        -99.4508831747592126
 Dipole X            :          0.0005978            0.0000000            0.0005978
 Dipole Y            :          0.0004740            0.0000000            0.0004740
 Dipole Z            :          0.0000000            0.0000000            0.0000000
 Magnitude           :                                                    0.0007629
  Basis Set: (AUG-CC-PVTZ AUX)
    Blend: AUG-CC-PVTZ-RI + DEF2-QZVPP-RI
	 Reference Energy          =     -99.4508831747592126 [Eh]
	 Singles Energy            =      -0.0000000000000000 [Eh]
	 Same-Spin Energy          =      -0.0817570340896047 [Eh]
	 Opposite-Spin Energy      =      -0.2275648845857291 [Eh]
	 Correlation Energy        =      -0.3093219186753338 [Eh]
	 Total Energy              =     -99.7602050934345499 [Eh]
	 SCS Total Energy          =     -99.7512133809586174 [Eh]
                               Psi4 1.8.2 release
    Molecular point group: c1
  Basis Set: AUG-CC-PVTZ
    Blend: AUG-CC-PVTZ
  Basis Set: (AUG-CC-PVTZ AUX)
    Blend: AUG-CC-PVTZ-JKFIT + DEF2-UNIVERSAL-JKFIT
  @DF-RHF Final Energy:  -161.67604906097640
    Total Energy =                       -161.6760490609763963
  Basis Set: (AUG-CC-PVTZ AUX)
                               Psi4 1.8.2 release
  @DF-RHF Final Energy:  -323.18608495251692
    Total Energy =                       -323.1860849525169215
                               Psi4 1.8.2 release
  @DF-RHF Final Energy:  -261.33907017129491
    Total Energy =                       -261.3390701712949067
                               Psi4 1.8.2 release
  @DF-RHF Final Energy:  -261.37062498742569
    Total Energy =                       -261.3706249874256855
                               Psi4 1.8.2 release
  Multiplicity = 1
  @DF-RHF Final Energy:  -161.67604140168547
    Total Energy =                       -161.6760414016854384
	 Singles Energy            =      -0.0000000000000000 [Eh]
	 Same-Spin Energy          =      -0.0025048151776045 [Eh]
	 Opposite-Spin Energy      =      -0.0094406646052055 [Eh]
	 Correlation Energy        =      -0.0119454797828100 [Eh]
	 Total Energy              =    -161.6879868814682766 [Eh]
	 SCS Total Energy          =    -161.6882051376042568 [Eh]
                               Psi4 1.8.2 release
    Molecular point group: c1

    Geometry (in Bohr), charge = 1, multiplicity = 1:

       Center              X                  Y                   Z               Mass
    ------------   -----------------  -----------------  -----------------  -----------------
         F            0.000000000000     0.000000000000     0.000000000000    18.998403162730
         NA           0.000000000000     3.665274998415     0.000000000000    22.989769282000
         NA           4.764857497940     0.000000000000     0.000000000000    22.989769282000

  Charge       = 1
  Multiplicity = 1
  Basis Set: AUG-CC-PVTZ
    Blend: AUG-CC-PVTZ
  Basis Set: (AUG-CC-PVTZ AUX)
    Blend: AUG-CC-PVTZ-JKFIT + DEF2-UNIVERSAL-JKFIT

    Orbital Energies [Eh]
    ---------------------

    Doubly Occupied:

       1A    -40.704001     2A    -40.631352     3A    -26.276743
       4A     -3.017995     5A     -2.955513     6A     -1.742562
       7A     -1.741615     8A     -1.739227     9A     -1.682712
      10A     -1.679727    11A     -1.678769    12A     -1.529913
      13A     -0.646596    14A     -0.637989    15A     -0.634818

  @DF-RHF Final Energy:  -423.09191101832153

   => Energetics <=

    Nuclear Repulsion Energy =             67.9154629118610131
    One-Electron Energy =                -727.4156862814511442
    Two-Electron Energy =                 236.4083123512685916
    Total Energy =                       -423.0919110183215253
 Dipole X            :        -47.9637021           52.4134325            4.4497304
 Dipole Y            :        -36.9637509           40.3180250            3.3542741
 Dipole Z            :         -0.0000000            0.0000000           -0.0000000
 Magnitude           :                                                    5.5723653
  Basis Set: (AUG-CC-PVTZ AUX)
    Blend: AUG-CC-PVTZ-RI + DEF2-QZVPP-RI
	 Reference Energy          =    -423.0919110183215253 [Eh]
	 Singles Energy            =      -0.0000000000000000 [Eh]
	 Same-Spin Energy          =      -0.0855303200822567 [Eh]
	 Opposite-Spin Energy      =      -0.2437842006672018 [Eh]
	 Correlation Energy        =      -0.3293145207494586 [Eh]
	 Total Energy              =    -423.4212255390709743 [Eh]

	 ================> DF-SCS-MP2 Energies <==================
	-----------------------------------------------------------
	 SCS Same-Spin Scale       =       0.3333333333333333 [-]
	 SCS Opposite-Spin Scale   =       1.2000000000000000 [-]
	 SCS Same-Spin Energy      =      -0.0285101066940856 [Eh]
	 SCS Opposite-Spin Energy  =      -0.2925410408006421 [Eh]
	 SCS Correlation Energy    =      -0.3210511474947277 [Eh]
	 SCS Total Energy          =    -423.4129621658162250 [Eh]
	-----------------------------------------------------------

*** Psi4 exiting successfully. Buy a developer a beer!
