                               Psi4 1.8.2 release

  ==> Input File <==

--------------------------------------------------------------------------
MEMORY 60 GB

molecule dimer {
-1 1
F      0.000000     0.000000     0.000000
--
1 1
Na     0.000000     1.939580     0.000000
--
1 1
Na     2.133538     0.000000     0.000000

units ang
no_reorient
no_com
symmetry c1
}

set {
basis        aug-cc-pVTZ
scf_type     df
}

energy("mp2", bsse_type="cp")
--------------------------------------------------------------------------

                               Psi4 1.8.2 release
    Molecular point group: c1
  Charge       = -1
  Multiplicity = 1
  Basis Set: AUG-CC-PVTZ
    Blend: AUG-CC-PVTZ
  Basis Set: (AUG-CC-PVTZ AUX)
    Blend: AUG-CC-PVTZ-JKFIT + DEF2-UNIVERSAL-JKFIT
  @DF-RHF Final Energy:   -99.45090208131701
    Total Energy =                        -99.4509020813170110
 Dipole X            :          0.0005368            0.0000000            0.0005368
 Dipole Y            :          0.0003808            0.0000000            0.0003808
 Dipole Z            :          0.0000000            0.0000000            0.0000000
 Magnitude           :                                                    0.0006581
  Basis Set: (AUG-CC-PVTZ AUX)
    Blend: AUG-CC-PVTZ-RI + DEF2-QZVPP-RI
	 Reference Energy          =     -99.4509020813170110 [Eh]
	 Singles Energy            =      -0.0000000000000000 [Eh]
	 Same-Spin Energy          =      -0.0817788107604742 [Eh]
	 Opposite-Spin Energy      =      -0.2277391524930085 [Eh]
	 Correlation Energy        =      -0.3095179632534827 [Eh]
	 Total Energy              =     -99.7604200445704947 [Eh]
	 SCS Total Energy          =     -99.7514486678954455 [Eh]
                               Psi4 1.8.2 release
    Molecular point group: c1
  Basis Set: AUG-CC-PVTZ
    Blend: AUG-CC-PVTZ
  Basis Set: (AUG-CC-PVTZ AUX)
    Blend: AUG-CC-PVTZ-JKFIT + DEF2-UNIVERSAL-JKFIT
  @DF-RHF Final Energy:  -161.67605116068000
    Total Energy =                       -161.6760511606800037
  Basis Set: (AUG-CC-PVTZ AUX)
                               Psi4 1.8.2 release
  @DF-RHF Final Energy:  -323.16909534946382
    Total Energy =                       -323.1690953494637597
                               Psi4 1.8.2 release
  @DF-RHF Final Energy:  -261.36466671585373
    Total Energy =                       -261.3646667158537298
                               Psi4 1.8.2 release
  @DF-RHF Final Energy:  -261.37068306709551
    Total Energy =                       -261.3706830670954560
                               Psi4 1.8.2 release
  Multiplicity = 1
  @DF-RHF Final Energy:  -161.67604814691569
    Total Energy =                       -161.6760481469156616
	 Singles Energy            =      -0.0000000000000000 [Eh]
	 Same-Spin Energy          =      -0.0026648412400360 [Eh]
	 Opposite-Spin Energy      =      -0.0098584316060245 [Eh]
	 Correlation Energy        =      -0.0125232728460605 [Eh]
	 Total Energy              =    -161.6885714197617574 [Eh]
	 SCS Total Energy          =    -161.6887665452562715 [Eh]
                               Psi4 1.8.2 release
    Molecular point group: c1

    Geometry (in Bohr), charge = 1, multiplicity = 1:

       Center              X                  Y                   Z               Mass
    ------------   -----------------  -----------------  -----------------  -----------------
         F            0.000000000000     0.000000000000     0.000000000000    18.998403162730
         NA           0.000000000000     3.665274998415     0.000000000000    22.989769282000
         NA           4.031802498257     0.000000000000     0.000000000000    22.989769282000

  Charge       = 1
  Multiplicity = 1
  Basis Set: AUG-CC-PVTZ
    Blend: AUG-CC-PVTZ
  Basis Set: (AUG-CC-PVTZ AUX)
    Blend: AUG-CC-PVTZ-JKFIT + DEF2-UNIVERSAL-JKFIT

    Orbital Energies [Eh]
    ---------------------

    Doubly Occupied:

       1A    -40.676925     2A    -40.647659     3A    -26.298531
       4A     -2.995092     5A     -2.971760     6A     -1.720554
       7A     -1.718601     8A     -1.717748     9A     -1.699061
      10A     -1.695900    11A     -1.694895    12A     -1.556325
      13A     -0.673353    14A     -0.669521    15A     -0.661131

  @DF-RHF Final Energy:  -423.10141478881457

   => Energetics <=

    Nuclear Repulsion Energy =             73.7716564761021800
    One-Electron Energy =                -738.9520294748048173
    Two-Electron Energy =                 242.0789582098880999
    Total Energy =                       -423.1014147888145089
 Dipole X            :        -40.6341557           44.3498275            3.7156718
 Dipole Y            :        -36.9558516           40.3180250            3.3621734
 Dipole Z            :          0.0000000            0.0000000            0.0000000
 Magnitude           :                                                    5.0110306
  Basis Set: (AUG-CC-PVTZ AUX)
    Blend: AUG-CC-PVTZ-RI + DEF2-QZVPP-RI
	 Reference Energy          =    -423.1014147888145658 [Eh]
	 Singles Energy            =      -0.0000000000000000 [Eh]
	 Same-Spin Energy          =      -0.0851337495428977 [Eh]
	 Opposite-Spin Energy      =      -0.2429345840393484 [Eh]
	 Correlation Energy        =      -0.3280683335822461 [Eh]
	 Total Energy              =    -423.4294831223967890 [Eh]

	 ================> DF-SCS-MP2 Energies <==================
	-----------------------------------------------------------
	 SCS Same-Spin Scale       =       0.3333333333333333 [-]
	 SCS Opposite-Spin Scale   =       1.2000000000000000 [-]
	 SCS Same-Spin Energy      =      -0.0283779165142992 [Eh]
	 SCS Opposite-Spin Energy  =      -0.2915215008472180 [Eh]
	 SCS Correlation Energy    =      -0.3198994173615173 [Eh]
	 SCS Total Energy          =    -423.4213142061760777 [Eh]
	-----------------------------------------------------------

*** Psi4 exiting successfully. Buy a developer a beer!
