                               Psi4 1.8.2 release

  ==> Input File <==

--------------------------------------------------------------------------
MEMORY 60 GB

molecule dimer {
1 1
F          0.000000     0.000000     0.000000
Na         0.000000     1.939580     0.000000
Na         2.521454     0.000000     0.000000

units ang
no_reorient
no_com
symmetry c1
}

set {
basis        aug-cc-pVTZ
scf_type     df
}

energy("mp2")
--------------------------------------------------------------------------

    Molecular point group: c1

    Geometry (in Angstrom), charge = 1, multiplicity = 1:

       Center              X                  Y                   Z               Mass
    ------------   -----------------  -----------------  -----------------  -----------------
         F            0.000000000000     0.000000000000     0.000000000000    18.998403162730
         NA           0.000000000000     1.939580000000     0.000000000000    22.989769282000
         NA           2.521454000000     0.000000000000     0.000000000000    22.989769282000

  Charge       = 1
  Multiplicity = 1
  Basis Set: AUG-CC-PVTZ
    Blend: AUG-CC-PVTZ
  Basis Set: (AUG-CC-PVTZ AUX)
    Blend: AUG-CC-PVTZ-JKFIT + DEF2-UNIVERSAL-JKFIT

    Orbital Energies [Eh]
    ---------------------

    Doubly Occupied:

       1A    -40.704001     2A    -40.631352     3A    -26.276743
       4A     -3.017995     5A     -2.955513     6A     -1.742562
       7A     -1.741615     8A     -1.739227     9A     -1.682712
      10A     -1.679727    11A     -1.678769    12A     -1.529913
      13A     -0.646596    14A     -0.637989    15A     -0.634818

  @DF-RHF Final Energy:  -423.09191101832124

   => Energetics <=

    Nuclear Repulsion Energy =             67.9154629118610131
    One-Electron Energy =                -727.4156862814511442
    Two-Electron Energy =                 236.4083123512688758
    Total Energy =                       -423.0919110183212410
 Dipole X            :        -47.9637021           52.4134325            4.4497304
 Dipole Y            :        -36.9637509           40.3180250            3.3542741
 Dipole Z            :         -0.0000000            0.0000000           -0.0000000
 Magnitude           :                                                    5.5723653
  Basis Set: (AUG-CC-PVTZ AUX)
    Blend: AUG-CC-PVTZ-RI + DEF2-QZVPP-RI
	 Reference Energy          =    -423.0919110183212410 [Eh]
	 Singles Energy            =      -0.0000000000000000 [Eh]
	 Same-Spin Energy          =      -0.0855303200822563 [Eh]
	 Opposite-Spin Energy      =      -0.2437842006671998 [Eh]
	 Correlation Energy        =      -0.3293145207494561 [Eh]
	 Total Energy              =    -423.4212255390706900 [Eh]

	 ================> DF-SCS-MP2 Energies <==================
	-----------------------------------------------------------
	 SCS Same-Spin Scale       =       0.3333333333333333 [-]
	 SCS Opposite-Spin Scale   =       1.2000000000000000 [-]
	 SCS Same-Spin Energy      =      -0.0285101066940854 [Eh]
	 SCS Opposite-Spin Energy  =      -0.2925410408006398 [Eh]
	 SCS Correlation Energy    =      -0.3210511474947252 [Eh]
	 SCS Total Energy          =    -423.4129621658159408 [Eh]
	-----------------------------------------------------------

*** Psi4 exiting successfully. Buy a developer a beer!
