                               Psi4 1.9 release

  ==> Input File <==

--------------------------------------------------------------------------
MEMORY 60 GB

molecule dimer {
0 1
F      0.000000     0.000000     0.000000
Na     0.000000     1.939580     0.000000
--
1 1
Na     2.521454     0.000000     0.000000

units ang
no_reorient
no_com
symmetry c1
}

set {
basis        aug-cc-pVTZ
scf_type     df
}

energy("mp2", bsse_type="cp")
--------------------------------------------------------------------------

                               Psi4 1.9 release
    Molecular point group: c1
  Charge       = 1
  Multiplicity = 1
  Basis Set: AUG-CC-PVTZ
    Blend: AUG-CC-PVTZ
  Basis Set: (AUG-CC-PVTZ AUX)
    Blend: AUG-CC-PVTZ-JKFIT + DEF2-UNIVERSAL-JKFIT
  @DF-RHF Final Energy:  -161.67604140167703
    Total Energy =                       -161.6760414016770540
 Dipole X            :        -47.6491404           52.4134325            4.7642920
 Dipole Y            :          0.0002249            0.0000000            0.0002249
 Dipole Z            :          0.0000000            0.0000000            0.0000000
 Magnitude           :                                                    4.7642920
  Basis Set: (AUG-CC-PVTZ AUX)
    Blend: AUG-CC-PVTZ-RI + DEF2-QZVPP-RI
	 Reference Energy          =    -161.6760414016770255 [Eh]
	 Singles Energy            =      -0.0000000000000000 [Eh]
	 Same-Spin Energy          =      -0.0025048151776036 [Eh]
	 Opposite-Spin Energy      =      -0.0094406646052031 [Eh]
	 Correlation Energy        =      -0.0119454797828067 [Eh]
	 Total Energy              =    -161.6879868814598353 [Eh]
	 SCS Total Energy          =    -161.6882051375958156 [Eh]
                               Psi4 1.9 release
    Molecular point group: c1
  Multiplicity = 1
  Basis Set: AUG-CC-PVTZ
    Blend: AUG-CC-PVTZ
  Basis Set: (AUG-CC-PVTZ AUX)
    Blend: AUG-CC-PVTZ-JKFIT + DEF2-UNIVERSAL-JKFIT
  @DF-RHF Final Energy:  -261.37062498743410
    Total Energy =                       -261.3706249874340983
  Basis Set: (AUG-CC-PVTZ AUX)
	 Singles Energy            =      -0.0000000000000000 [Eh]
	 Same-Spin Energy          =      -0.0830324919696518 [Eh]
	 Opposite-Spin Energy      =      -0.2342916496135581 [Eh]
	 Correlation Energy        =      -0.3173241415832099 [Eh]
	 Total Energy              =    -261.6879491290172837 [Eh]
	 SCS Total Energy          =    -261.6794524642936040 [Eh]
                               Psi4 1.9 release
    Molecular point group: c1

    Geometry (in Bohr), charge = 1, multiplicity = 1:

       Center              X                  Y                   Z               Mass
    ------------   -----------------  -----------------  -----------------  -----------------
         F            0.000000000000     0.000000000000     0.000000000000    18.998403162730
         NA           0.000000000000     3.665274998415     0.000000000000    22.989769282000
         NA           4.764857497940     0.000000000000     0.000000000000    22.989769282000

  Charge       = 1
  Multiplicity = 1
  Basis Set: AUG-CC-PVTZ
    Blend: AUG-CC-PVTZ
  Basis Set: (AUG-CC-PVTZ AUX)
    Blend: AUG-CC-PVTZ-JKFIT + DEF2-UNIVERSAL-JKFIT

    Orbital Energies [Eh]
    ---------------------

    Doubly Occupied:

       1A    -40.704001     2A    -40.631352     3A    -26.276743
       4A     -3.017995     5A     -2.955513     6A     -1.742562
       7A     -1.741615     8A     -1.739227     9A     -1.682712
      10A     -1.679727    11A     -1.678769    12A     -1.529913
      13A     -0.646596    14A     -0.637989    15A     -0.634818

  @DF-RHF Final Energy:  -423.09191101830265

   => Energetics <=

    Nuclear Repulsion Energy =             67.9154629118610131
    One-Electron Energy =                -727.4156862814541000
    Two-Electron Energy =                 236.4083123512904194
    Total Energy =                       -423.0919110183026532
 Dipole X            :        -47.9637021           52.4134325            4.4497304
 Dipole Y            :        -36.9637509           40.3180250            3.3542741
 Dipole Z            :         -0.0000000            0.0000000           -0.0000000
 Magnitude           :                                                    5.5723653
  Basis Set: (AUG-CC-PVTZ AUX)
    Blend: AUG-CC-PVTZ-RI + DEF2-QZVPP-RI
	 Reference Energy          =    -423.0919110183026532 [Eh]
	 Singles Energy            =      -0.0000000000000000 [Eh]
	 Same-Spin Energy          =      -0.0855303200822104 [Eh]
	 Opposite-Spin Energy      =      -0.2437842006670736 [Eh]
	 Correlation Energy        =      -0.3293145207492839 [Eh]
	 Total Energy              =    -423.4212255390519317 [Eh]

	 ================> DF-SCS-MP2 Energies <==================
	-----------------------------------------------------------
	 SCS Same-Spin Scale       =       0.3333333333333333 [-]
	 SCS Opposite-Spin Scale   =       1.2000000000000000 [-]
	 SCS Same-Spin Energy      =      -0.0285101066940701 [Eh]
	 SCS Opposite-Spin Energy  =      -0.2925410408004883 [Eh]
	 SCS Correlation Energy    =      -0.3210511474945584 [Eh]
	 SCS Total Energy          =    -423.4129621657972393 [Eh]
	-----------------------------------------------------------

*** Psi4 exiting successfully. Buy a developer a beer!
