                               Psi4 1.8.2 release

  ==> Input File <==

--------------------------------------------------------------------------
MEMORY 60 GB

molecule dimer {
-1 1
F          0.000000     0.000000     0.000000
Gh(Na)     0.000000     1.939580     0.000000
Gh(Na)     2.133538     0.000000     0.000000

units ang
no_reorient
no_com
symmetry c1
}

set {
basis        aug-cc-pVTZ
scf_type     df
}

energy("mp2")
--------------------------------------------------------------------------

    Molecular point group: c1

    Geometry (in Angstrom), charge = -1, multiplicity = 1:

       Center              X                  Y                   Z               Mass
    ------------   -----------------  -----------------  -----------------  -----------------
         F            0.000000000000     0.000000000000     0.000000000000    18.998403162730
      Gh(NA)          0.000000000000     1.939580000000     0.000000000000    22.989769282000
      Gh(NA)          2.133538000000     0.000000000000     0.000000000000    22.989769282000

  Charge       = -1
  Multiplicity = 1
  Basis Set: AUG-CC-PVTZ
    Blend: AUG-CC-PVTZ
  Basis Set: (AUG-CC-PVTZ AUX)
    Blend: AUG-CC-PVTZ-JKFIT + DEF2-UNIVERSAL-JKFIT

    Orbital Energies [Eh]
    ---------------------

    Doubly Occupied:

       1A    -25.833791     2A     -1.076039     3A     -0.181020
       4A     -0.180986     5A     -0.180969

  @DF-RHF Final Energy:   -99.45090208131705

   => Energetics <=

    Nuclear Repulsion Energy =              0.0000000000000000
    One-Electron Energy =                -143.9961931849097425
    Two-Electron Energy =                  44.5452911035926817
    Total Energy =                        -99.4509020813170537
 Dipole X            :          0.0005368            0.0000000            0.0005368
 Dipole Y            :          0.0003808            0.0000000            0.0003808
 Dipole Z            :          0.0000000            0.0000000            0.0000000
 Magnitude           :                                                    0.0006581
  Basis Set: (AUG-CC-PVTZ AUX)
    Blend: AUG-CC-PVTZ-RI + DEF2-QZVPP-RI
	 Reference Energy          =     -99.4509020813170537 [Eh]
	 Singles Energy            =      -0.0000000000000000 [Eh]
	 Same-Spin Energy          =      -0.0817788107604737 [Eh]
	 Opposite-Spin Energy      =      -0.2277391524930075 [Eh]
	 Correlation Energy        =      -0.3095179632534811 [Eh]
	 Total Energy              =     -99.7604200445705374 [Eh]

	 ================> DF-SCS-MP2 Energies <==================
	-----------------------------------------------------------
	 SCS Same-Spin Scale       =       0.3333333333333333 [-]
	 SCS Opposite-Spin Scale   =       1.2000000000000000 [-]
	 SCS Same-Spin Energy      =      -0.0272596035868246 [Eh]
	 SCS Opposite-Spin Energy  =      -0.2732869829916090 [Eh]
	 SCS Correlation Energy    =      -0.3005465865784335 [Eh]
	 SCS Total Energy          =     -99.7514486678954881 [Eh]
	-----------------------------------------------------------

*** Psi4 exiting successfully. Buy a developer a beer!
