                               Psi4 1.8.2 release

  ==> Input File <==

--------------------------------------------------------------------------
MEMORY 60 GB

molecule dimer {
1 1
Gh(F)      0.000000     0.000000     0.000000
Na         0.000000     1.939580     0.000000
Gh(Na)     2.715412     0.000000     0.000000

units ang
no_reorient
no_com
symmetry c1
}

set {
basis        aug-cc-pVTZ
scf_type     df
}

energy("mp2")
--------------------------------------------------------------------------

    Molecular point group: c1

    Geometry (in Angstrom), charge = 1, multiplicity = 1:

       Center              X                  Y                   Z               Mass
    ------------   -----------------  -----------------  -----------------  -----------------
      Gh(F)           0.000000000000     0.000000000000     0.000000000000    18.998403162730
         NA           0.000000000000     1.939580000000     0.000000000000    22.989769282000
      Gh(NA)          2.715412000000     0.000000000000     0.000000000000    22.989769282000

  Charge       = 1
  Multiplicity = 1
  Basis Set: AUG-CC-PVTZ
    Blend: AUG-CC-PVTZ
  Basis Set: (AUG-CC-PVTZ AUX)
    Blend: AUG-CC-PVTZ-JKFIT + DEF2-UNIVERSAL-JKFIT

    Orbital Energies [Eh]
    ---------------------

    Doubly Occupied:

       1A    -40.762555     2A     -3.074776     3A     -1.798052
       4A     -1.798012     5A     -1.797912

  @DF-RHF Final Energy:  -161.67604773420115

   => Energetics <=

    Nuclear Repulsion Energy =              0.0000000000000000
    One-Electron Energy =                -224.8894805552129696
    Two-Electron Energy =                  63.2134328210118213
    Total Energy =                       -161.6760477342011484
 Dipole X            :          0.0002918            0.0000000            0.0002918
 Dipole Y            :        -36.6532659           40.3180250            3.6647591
 Dipole Z            :         -0.0000000            0.0000000           -0.0000000
 Magnitude           :                                                    3.6647591
  Basis Set: (AUG-CC-PVTZ AUX)
    Blend: AUG-CC-PVTZ-RI + DEF2-QZVPP-RI
	 Reference Energy          =    -161.6760477342011484 [Eh]
	 Singles Energy            =      -0.0000000000000000 [Eh]
	 Same-Spin Energy          =      -0.0029589695649405 [Eh]
	 Opposite-Spin Energy      =      -0.0106870332197774 [Eh]
	 Correlation Energy        =      -0.0136460027847179 [Eh]
	 Total Energy              =    -161.6896937369858733 [Eh]

	 ================> DF-SCS-MP2 Energies <==================
	-----------------------------------------------------------
	 SCS Same-Spin Scale       =       0.3333333333333333 [-]
	 SCS Opposite-Spin Scale   =       1.2000000000000000 [-]
	 SCS Same-Spin Energy      =      -0.0009863231883135 [Eh]
	 SCS Opposite-Spin Energy  =      -0.0128244398637328 [Eh]
	 SCS Correlation Energy    =      -0.0138107630520464 [Eh]
	 SCS Total Energy          =    -161.6898584972531978 [Eh]
	-----------------------------------------------------------

*** Psi4 exiting successfully. Buy a developer a beer!
