                               Psi4 1.8.2 release

  ==> Input File <==

--------------------------------------------------------------------------
MEMORY 60 GB

molecule dimer {
1 1
F          0.000000     0.000000     0.000000
Na         0.000000     1.939580     0.000000
Na         2.133538     0.000000     0.000000

units ang
no_reorient
no_com
symmetry c1
}

set {
basis        aug-cc-pVTZ
scf_type     df
}

energy("mp2")
--------------------------------------------------------------------------

    Molecular point group: c1

    Geometry (in Angstrom), charge = 1, multiplicity = 1:

       Center              X                  Y                   Z               Mass
    ------------   -----------------  -----------------  -----------------  -----------------
         F            0.000000000000     0.000000000000     0.000000000000    18.998403162730
         NA           0.000000000000     1.939580000000     0.000000000000    22.989769282000
         NA           2.133538000000     0.000000000000     0.000000000000    22.989769282000

  Charge       = 1
  Multiplicity = 1
  Basis Set: AUG-CC-PVTZ
    Blend: AUG-CC-PVTZ
  Basis Set: (AUG-CC-PVTZ AUX)
    Blend: AUG-CC-PVTZ-JKFIT + DEF2-UNIVERSAL-JKFIT

    Orbital Energies [Eh]
    ---------------------

    Doubly Occupied:

       1A    -40.676925     2A    -40.647659     3A    -26.298531
       4A     -2.995092     5A     -2.971760     6A     -1.720554
       7A     -1.718601     8A     -1.717748     9A     -1.699061
      10A     -1.695900    11A     -1.694895    12A     -1.556325
      13A     -0.673353    14A     -0.669521    15A     -0.661131

  @DF-RHF Final Energy:  -423.10141478881428

   => Energetics <=

    Nuclear Repulsion Energy =             73.7716564761021800
    One-Electron Energy =                -738.9520294748047036
    Two-Electron Energy =                 242.0789582098882420
    Total Energy =                       -423.1014147888142816
 Dipole X            :        -40.6341557           44.3498275            3.7156718
 Dipole Y            :        -36.9558516           40.3180250            3.3621734
 Dipole Z            :          0.0000000            0.0000000            0.0000000
 Magnitude           :                                                    5.0110306
  Basis Set: (AUG-CC-PVTZ AUX)
    Blend: AUG-CC-PVTZ-RI + DEF2-QZVPP-RI
	 Reference Energy          =    -423.1014147888142816 [Eh]
	 Singles Energy            =      -0.0000000000000000 [Eh]
	 Same-Spin Energy          =      -0.0851337495428992 [Eh]
	 Opposite-Spin Energy      =      -0.2429345840393523 [Eh]
	 Correlation Energy        =      -0.3280683335822515 [Eh]
	 Total Energy              =    -423.4294831223965048 [Eh]

	 ================> DF-SCS-MP2 Energies <==================
	-----------------------------------------------------------
	 SCS Same-Spin Scale       =       0.3333333333333333 [-]
	 SCS Opposite-Spin Scale   =       1.2000000000000000 [-]
	 SCS Same-Spin Energy      =      -0.0283779165142997 [Eh]
	 SCS Opposite-Spin Energy  =      -0.2915215008472227 [Eh]
	 SCS Correlation Energy    =      -0.3198994173615225 [Eh]
	 SCS Total Energy          =    -423.4213142061757935 [Eh]
	-----------------------------------------------------------

*** Psi4 exiting successfully. Buy a developer a beer!
