                               Psi4 1.8.2 release

  ==> Input File <==

--------------------------------------------------------------------------
MEMORY 60 GB

molecule dimer {
-1 1
F      0.000000     0.000000     0.000000
--
1 1
Na     0.000000     1.939580     0.000000
--
1 1
Na     2.327496     0.000000     0.000000

units ang
no_reorient
no_com
symmetry c1
}

set {
basis        aug-cc-pVTZ
scf_type     df
}

energy("mp2", bsse_type="cp")
--------------------------------------------------------------------------

                               Psi4 1.8.2 release
    Molecular point group: c1
  Charge       = -1
  Multiplicity = 1
  Basis Set: AUG-CC-PVTZ
    Blend: AUG-CC-PVTZ
  Basis Set: (AUG-CC-PVTZ AUX)
    Blend: AUG-CC-PVTZ-JKFIT + DEF2-UNIVERSAL-JKFIT
  @DF-RHF Final Energy:   -99.45089546278042
    Total Energy =                        -99.4508954627804229
 Dipole X            :          0.0006761            0.0000000            0.0006761
 Dipole Y            :          0.0004483            0.0000000            0.0004483
 Dipole Z            :         -0.0000000            0.0000000           -0.0000000
 Magnitude           :                                                    0.0008112
  Basis Set: (AUG-CC-PVTZ AUX)
    Blend: AUG-CC-PVTZ-RI + DEF2-QZVPP-RI
	 Reference Energy          =     -99.4508954627804229 [Eh]
	 Singles Energy            =      -0.0000000000000000 [Eh]
	 Same-Spin Energy          =      -0.0817681125620148 [Eh]
	 Opposite-Spin Energy      =      -0.2276463785084013 [Eh]
	 Correlation Energy        =      -0.3094144910704162 [Eh]
	 Total Energy              =     -99.7603099538508360 [Eh]
	 SCS Total Energy          =     -99.7513271545111735 [Eh]
                               Psi4 1.8.2 release
    Molecular point group: c1
  Basis Set: AUG-CC-PVTZ
    Blend: AUG-CC-PVTZ
  Basis Set: (AUG-CC-PVTZ AUX)
    Blend: AUG-CC-PVTZ-JKFIT + DEF2-UNIVERSAL-JKFIT
  @DF-RHF Final Energy:  -161.67605017833398
    Total Energy =                       -161.6760501783339805
  Basis Set: (AUG-CC-PVTZ AUX)
                               Psi4 1.8.2 release
  @DF-RHF Final Energy:  -323.17785683715670
    Total Energy =                       -323.1778568371566962
                               Psi4 1.8.2 release
  @DF-RHF Final Energy:  -261.35269011319815
    Total Energy =                       -261.3526901131981504
                               Psi4 1.8.2 release
  @DF-RHF Final Energy:  -261.37066186166430
    Total Energy =                       -261.3706618616643027
                               Psi4 1.8.2 release
  Multiplicity = 1
  @DF-RHF Final Energy:  -161.67604510344702
    Total Energy =                       -161.6760451034470520
	 Singles Energy            =      -0.0000000000000000 [Eh]
	 Same-Spin Energy          =      -0.0025649619180809 [Eh]
	 Opposite-Spin Energy      =      -0.0096059365637856 [Eh]
	 Correlation Energy        =      -0.0121708984818665 [Eh]
	 Total Energy              =    -161.6882160019288790 [Eh]
	 SCS Total Energy          =    -161.6884272146295984 [Eh]
                               Psi4 1.8.2 release
    Molecular point group: c1

    Geometry (in Bohr), charge = 1, multiplicity = 1:

       Center              X                  Y                   Z               Mass
    ------------   -----------------  -----------------  -----------------  -----------------
         F            0.000000000000     0.000000000000     0.000000000000    18.998403162730
         NA           0.000000000000     3.665274998415     0.000000000000    22.989769282000
         NA           4.398329998099     0.000000000000     0.000000000000    22.989769282000

  Charge       = 1
  Multiplicity = 1
  Basis Set: AUG-CC-PVTZ
    Blend: AUG-CC-PVTZ
  Basis Set: (AUG-CC-PVTZ AUX)
    Blend: AUG-CC-PVTZ-JKFIT + DEF2-UNIVERSAL-JKFIT

    Orbital Energies [Eh]
    ---------------------

    Doubly Occupied:

       1A    -40.692080     2A    -40.639300     3A    -26.288125
       4A     -3.007463     5A     -2.963439     6A     -1.732308
       7A     -1.731096     8A     -1.728739     9A     -1.690949
      10A     -1.687639    11A     -1.686639    12A     -1.543097
      13A     -0.659596    14A     -0.653428    15A     -0.647717

  @DF-RHF Final Energy:  -423.09768434114267

   => Energetics <=

    Nuclear Repulsion Energy =             70.6529012069631790
    One-Electron Energy =                -732.7979395243494309
    Two-Electron Energy =                 239.0473539762436133
    Total Energy =                       -423.0976843411426671
 Dipole X            :        -44.3043256           48.3816300            4.0773044
 Dipole Y            :        -36.9602747           40.3180250            3.3577503
 Dipole Z            :          0.0000000            0.0000000            0.0000000
 Magnitude           :                                                    5.2819407
  Basis Set: (AUG-CC-PVTZ AUX)
    Blend: AUG-CC-PVTZ-RI + DEF2-QZVPP-RI
	 Reference Energy          =    -423.0976843411426671 [Eh]
	 Singles Energy            =      -0.0000000000000000 [Eh]
	 Same-Spin Energy          =      -0.0853815229670568 [Eh]
	 Opposite-Spin Energy      =      -0.2434981619774912 [Eh]
	 Correlation Energy        =      -0.3288796849445481 [Eh]
	 Total Energy              =    -423.4265640260871919 [Eh]

	 ================> DF-SCS-MP2 Energies <==================
	-----------------------------------------------------------
	 SCS Same-Spin Scale       =       0.3333333333333333 [-]
	 SCS Opposite-Spin Scale   =       1.2000000000000000 [-]
	 SCS Same-Spin Energy      =      -0.0284605076556856 [Eh]
	 SCS Opposite-Spin Energy  =      -0.2921977943729895 [Eh]
	 SCS Correlation Energy    =      -0.3206583020286751 [Eh]
	 SCS Total Energy          =    -423.4183426431713428 [Eh]
	-----------------------------------------------------------

*** Psi4 exiting successfully. Buy a developer a beer!
