                               Psi4 1.8.2 release

  ==> Input File <==

--------------------------------------------------------------------------
MEMORY 60 GB

molecule dimer {
-1 1
F          0.000000     0.000000     0.000000
Gh(Na)     0.000000     1.939580     0.000000
Gh(Na)     2.327496     0.000000     0.000000

units ang
no_reorient
no_com
symmetry c1
}

set {
basis        aug-cc-pVTZ
scf_type     df
}

energy("mp2")
--------------------------------------------------------------------------

    Molecular point group: c1

    Geometry (in Angstrom), charge = -1, multiplicity = 1:

       Center              X                  Y                   Z               Mass
    ------------   -----------------  -----------------  -----------------  -----------------
         F            0.000000000000     0.000000000000     0.000000000000    18.998403162730
      Gh(NA)          0.000000000000     1.939580000000     0.000000000000    22.989769282000
      Gh(NA)          2.327496000000     0.000000000000     0.000000000000    22.989769282000

  Charge       = -1
  Multiplicity = 1
  Basis Set: AUG-CC-PVTZ
    Blend: AUG-CC-PVTZ
  Basis Set: (AUG-CC-PVTZ AUX)
    Blend: AUG-CC-PVTZ-JKFIT + DEF2-UNIVERSAL-JKFIT

    Orbital Energies [Eh]
    ---------------------

    Doubly Occupied:

       1A    -25.833801     2A     -1.076045     3A     -0.181025
       4A     -0.180990     5A     -0.180970

  @DF-RHF Final Energy:   -99.45089546278032

   => Energetics <=

    Nuclear Repulsion Energy =              0.0000000000000000
    One-Electron Energy =                -143.9961276967222545
    Two-Electron Energy =                  44.5452322339419169
    Total Energy =                        -99.4508954627803377
 Dipole X            :          0.0006761            0.0000000            0.0006761
 Dipole Y            :          0.0004483            0.0000000            0.0004483
 Dipole Z            :         -0.0000000            0.0000000           -0.0000000
 Magnitude           :                                                    0.0008112
  Basis Set: (AUG-CC-PVTZ AUX)
    Blend: AUG-CC-PVTZ-RI + DEF2-QZVPP-RI
	 Reference Energy          =     -99.4508954627803234 [Eh]
	 Singles Energy            =      -0.0000000000000000 [Eh]
	 Same-Spin Energy          =      -0.0817681125620145 [Eh]
	 Opposite-Spin Energy      =      -0.2276463785084011 [Eh]
	 Correlation Energy        =      -0.3094144910704155 [Eh]
	 Total Energy              =     -99.7603099538507365 [Eh]

	 ================> DF-SCS-MP2 Energies <==================
	-----------------------------------------------------------
	 SCS Same-Spin Scale       =       0.3333333333333333 [-]
	 SCS Opposite-Spin Scale   =       1.2000000000000000 [-]
	 SCS Same-Spin Energy      =      -0.0272560375206715 [Eh]
	 SCS Opposite-Spin Energy  =      -0.2731756542100813 [Eh]
	 SCS Correlation Energy    =      -0.3004316917307528 [Eh]
	 SCS Total Energy          =     -99.7513271545110740 [Eh]
	-----------------------------------------------------------

*** Psi4 exiting successfully. Buy a developer a beer!
