                               Psi4 1.8.2 release

  ==> Input File <==

--------------------------------------------------------------------------
MEMORY 60 GB

molecule dimer {
1 1
F          0.000000     0.000000     0.000000
Na         0.000000     1.939580     0.000000
Na         2.327496     0.000000     0.000000

units ang
no_reorient
no_com
symmetry c1
}

set {
basis        aug-cc-pVTZ
scf_type     df
}

energy("mp2")
--------------------------------------------------------------------------

    Molecular point group: c1

    Geometry (in Angstrom), charge = 1, multiplicity = 1:

       Center              X                  Y                   Z               Mass
    ------------   -----------------  -----------------  -----------------  -----------------
         F            0.000000000000     0.000000000000     0.000000000000    18.998403162730
         NA           0.000000000000     1.939580000000     0.000000000000    22.989769282000
         NA           2.327496000000     0.000000000000     0.000000000000    22.989769282000

  Charge       = 1
  Multiplicity = 1
  Basis Set: AUG-CC-PVTZ
    Blend: AUG-CC-PVTZ
  Basis Set: (AUG-CC-PVTZ AUX)
    Blend: AUG-CC-PVTZ-JKFIT + DEF2-UNIVERSAL-JKFIT

    Orbital Energies [Eh]
    ---------------------

    Doubly Occupied:

       1A    -40.692080     2A    -40.639300     3A    -26.288125
       4A     -3.007463     5A     -2.963439     6A     -1.732308
       7A     -1.731096     8A     -1.728739     9A     -1.690949
      10A     -1.687639    11A     -1.686639    12A     -1.543097
      13A     -0.659596    14A     -0.653428    15A     -0.647717

  @DF-RHF Final Energy:  -423.09768434114307

   => Energetics <=

    Nuclear Repulsion Energy =             70.6529012069631790
    One-Electron Energy =                -732.7979395243502267
    Two-Electron Energy =                 239.0473539762439827
    Total Energy =                       -423.0976843411430650
 Dipole X            :        -44.3043256           48.3816300            4.0773044
 Dipole Y            :        -36.9602747           40.3180250            3.3577503
 Dipole Z            :          0.0000000            0.0000000            0.0000000
 Magnitude           :                                                    5.2819407
  Basis Set: (AUG-CC-PVTZ AUX)
    Blend: AUG-CC-PVTZ-RI + DEF2-QZVPP-RI
	 Reference Energy          =    -423.0976843411430650 [Eh]
	 Singles Energy            =      -0.0000000000000000 [Eh]
	 Same-Spin Energy          =      -0.0853815229670579 [Eh]
	 Opposite-Spin Energy      =      -0.2434981619774944 [Eh]
	 Correlation Energy        =      -0.3288796849445524 [Eh]
	 Total Energy              =    -423.4265640260875898 [Eh]

	 ================> DF-SCS-MP2 Energies <==================
	-----------------------------------------------------------
	 SCS Same-Spin Scale       =       0.3333333333333333 [-]
	 SCS Opposite-Spin Scale   =       1.2000000000000000 [-]
	 SCS Same-Spin Energy      =      -0.0284605076556860 [Eh]
	 SCS Opposite-Spin Energy  =      -0.2921977943729933 [Eh]
	 SCS Correlation Energy    =      -0.3206583020286793 [Eh]
	 SCS Total Energy          =    -423.4183426431717407 [Eh]
	-----------------------------------------------------------

*** Psi4 exiting successfully. Buy a developer a beer!
