                               Psi4 1.9 release

  ==> Input File <==

--------------------------------------------------------------------------
MEMORY 60 GB

molecule dimer {
0 1
F      0.000000     0.000000     0.000000
Na     0.000000     1.939580     0.000000
--
1 1
Na     1.939580     0.000000     0.000000

units ang
no_reorient
no_com
symmetry c1
}

set {
basis        aug-cc-pVTZ
scf_type     df
}

energy("mp2", bsse_type="cp")
--------------------------------------------------------------------------

                               Psi4 1.9 release
    Molecular point group: c1
  Charge       = 1
  Multiplicity = 1
  Basis Set: AUG-CC-PVTZ
    Blend: AUG-CC-PVTZ
  Basis Set: (AUG-CC-PVTZ AUX)
    Blend: AUG-CC-PVTZ-JKFIT + DEF2-UNIVERSAL-JKFIT
  @DF-RHF Final Energy:  -161.67605226061622
    Total Energy =                       -161.6760522606162169
 Dipole X            :        -36.6532629           40.3180250            3.6647621
 Dipole Y            :          0.0003073            0.0000000            0.0003073
 Dipole Z            :          0.0000000            0.0000000            0.0000000
 Magnitude           :                                                    3.6647621
  Basis Set: (AUG-CC-PVTZ AUX)
    Blend: AUG-CC-PVTZ-RI + DEF2-QZVPP-RI
	 Reference Energy          =    -161.6760522606162169 [Eh]
	 Singles Energy            =      -0.0000000000000000 [Eh]
	 Same-Spin Energy          =      -0.0031367609820484 [Eh]
	 Opposite-Spin Energy      =      -0.0111678027861078 [Eh]
	 Correlation Energy        =      -0.0143045637681562 [Eh]
	 Total Energy              =    -161.6903568243843665 [Eh]
	 SCS Total Energy          =    -161.6904992109535613 [Eh]
                               Psi4 1.9 release
    Molecular point group: c1
  Multiplicity = 1
  Basis Set: AUG-CC-PVTZ
    Blend: AUG-CC-PVTZ
  Basis Set: (AUG-CC-PVTZ AUX)
    Blend: AUG-CC-PVTZ-JKFIT + DEF2-UNIVERSAL-JKFIT
  @DF-RHF Final Energy:  -261.37068436247381
    Total Energy =                       -261.3706843624738667
  Basis Set: (AUG-CC-PVTZ AUX)
	 Singles Energy            =      -0.0000000000000000 [Eh]
	 Same-Spin Energy          =      -0.0831926477451971 [Eh]
	 Opposite-Spin Energy      =      -0.2348936962225200 [Eh]
	 Correlation Energy        =      -0.3180863439677171 [Eh]
	 Total Energy              =    -261.6887707064415167 [Eh]
	 SCS Total Energy          =    -261.6802876805225537 [Eh]
                               Psi4 1.9 release
    Molecular point group: c1

    Geometry (in Bohr), charge = 1, multiplicity = 1:

       Center              X                  Y                   Z               Mass
    ------------   -----------------  -----------------  -----------------  -----------------
         F            0.000000000000     0.000000000000     0.000000000000    18.998403162730
         NA           0.000000000000     3.665274998415     0.000000000000    22.989769282000
         NA           3.665274998415     0.000000000000     0.000000000000    22.989769282000

  Charge       = 1
  Multiplicity = 1
  Basis Set: AUG-CC-PVTZ
    Blend: AUG-CC-PVTZ
  Basis Set: (AUG-CC-PVTZ AUX)
    Blend: AUG-CC-PVTZ-JKFIT + DEF2-UNIVERSAL-JKFIT

    Orbital Energies [Eh]
    ---------------------

    Doubly Occupied:

       1A    -40.656503     2A    -40.656502     3A    -26.306858
       4A     -2.980812     5A     -2.980248     6A     -1.716034
       7A     -1.705713     8A     -1.703892     9A     -1.703623
      10A     -1.703280    11A     -1.701774    12A     -1.567344
      13A     -0.687981    14A     -0.684913    15A     -0.675055

  @DF-RHF Final Energy:  -423.09874838209498

   => Energetics <=

    Nuclear Repulsion Energy =             77.3638869242159899
    One-Electron Energy =                -746.0642040837632294
    Two-Electron Energy =                 245.6015687774522576
    Total Energy =                       -423.0987483820949819
 Dipole X            :        -36.9503539           40.3180250            3.3676711
 Dipole Y            :        -36.9503539           40.3180250            3.3676711
 Dipole Z            :         -0.0000000            0.0000000           -0.0000000
 Magnitude           :                                                    4.7626062
  Basis Set: (AUG-CC-PVTZ AUX)
    Blend: AUG-CC-PVTZ-RI + DEF2-QZVPP-RI
	 Reference Energy          =    -423.0987483820949819 [Eh]
	 Singles Energy            =      -0.0000000000000000 [Eh]
	 Same-Spin Energy          =      -0.0851539747212462 [Eh]
	 Opposite-Spin Energy      =      -0.2430403969433723 [Eh]
	 Correlation Energy        =      -0.3281943716646185 [Eh]
	 Total Energy              =    -423.4269427537595902 [Eh]

	 ================> DF-SCS-MP2 Energies <==================
	-----------------------------------------------------------
	 SCS Same-Spin Scale       =       0.3333333333333333 [-]
	 SCS Opposite-Spin Scale   =       1.2000000000000000 [-]
	 SCS Same-Spin Energy      =      -0.0283846582404154 [Eh]
	 SCS Opposite-Spin Energy  =      -0.2916484763320467 [Eh]
	 SCS Correlation Energy    =      -0.3200331345724621 [Eh]
	 SCS Total Energy          =    -423.4187815166674227 [Eh]
	-----------------------------------------------------------

*** Psi4 exiting successfully. Buy a developer a beer!
