                               Psi4 1.8.2 release

  ==> Input File <==

--------------------------------------------------------------------------
MEMORY 60 GB

molecule dimer {
1 1
Gh(F)      0.000000     0.000000     0.000000
Gh(Na)     0.000000     1.939580     0.000000
Na         2.521454     0.000000     0.000000

units ang
no_reorient
no_com
symmetry c1
}

set {
basis        aug-cc-pVTZ
scf_type     df
}

energy("mp2")
--------------------------------------------------------------------------

    Molecular point group: c1

    Geometry (in Angstrom), charge = 1, multiplicity = 1:

       Center              X                  Y                   Z               Mass
    ------------   -----------------  -----------------  -----------------  -----------------
      Gh(F)           0.000000000000     0.000000000000     0.000000000000    18.998403162730
      Gh(NA)          0.000000000000     1.939580000000     0.000000000000    22.989769282000
         NA           2.521454000000     0.000000000000     0.000000000000    22.989769282000

  Charge       = 1
  Multiplicity = 1
  Basis Set: AUG-CC-PVTZ
    Blend: AUG-CC-PVTZ
  Basis Set: (AUG-CC-PVTZ AUX)
    Blend: AUG-CC-PVTZ-JKFIT + DEF2-UNIVERSAL-JKFIT

    Orbital Energies [Eh]
    ---------------------

    Doubly Occupied:

       1A    -40.762821     2A     -3.074900     3A     -1.798165
       4A     -1.798087     5A     -1.798052

  @DF-RHF Final Energy:  -161.67604140168521

   => Energetics <=

    Nuclear Repulsion Energy =              0.0000000000000000
    One-Electron Energy =                -224.8880318790818649
    Two-Electron Energy =                  63.2119904773966681
    Total Energy =                       -161.6760414016852110
 Dipole X            :        -47.6491404           52.4134325            4.7642920
 Dipole Y            :          0.0002249            0.0000000            0.0002249
 Dipole Z            :          0.0000000            0.0000000            0.0000000
 Magnitude           :                                                    4.7642920
  Basis Set: (AUG-CC-PVTZ AUX)
    Blend: AUG-CC-PVTZ-RI + DEF2-QZVPP-RI
	 Reference Energy          =    -161.6760414016852110 [Eh]
	 Singles Energy            =      -0.0000000000000000 [Eh]
	 Same-Spin Energy          =      -0.0025048151776044 [Eh]
	 Opposite-Spin Energy      =      -0.0094406646052054 [Eh]
	 Correlation Energy        =      -0.0119454797828098 [Eh]
	 Total Energy              =    -161.6879868814680208 [Eh]

	 ================> DF-SCS-MP2 Energies <==================
	-----------------------------------------------------------
	 SCS Same-Spin Scale       =       0.3333333333333333 [-]
	 SCS Opposite-Spin Scale   =       1.2000000000000000 [-]
	 SCS Same-Spin Energy      =      -0.0008349383925348 [Eh]
	 SCS Opposite-Spin Energy  =      -0.0113287975262465 [Eh]
	 SCS Correlation Energy    =      -0.0121637359187813 [Eh]
	 SCS Total Energy          =    -161.6882051376040010 [Eh]
	-----------------------------------------------------------

*** Psi4 exiting successfully. Buy a developer a beer!
