                               Psi4 1.8.2 release

  ==> Input File <==

--------------------------------------------------------------------------
MEMORY 60 GB

molecule dimer {
-1 1
F      0.000000     0.000000     0.000000
--
1 1
Na     0.000000     1.939580     0.000000
--
1 1
Na     2.909370     0.000000     0.000000

units ang
no_reorient
no_com
symmetry c1
}

set {
basis        aug-cc-pVTZ
scf_type     df
}

energy("mp2", bsse_type="cp")
--------------------------------------------------------------------------

                               Psi4 1.8.2 release
    Molecular point group: c1
  Charge       = -1
  Multiplicity = 1
  Basis Set: AUG-CC-PVTZ
    Blend: AUG-CC-PVTZ
  Basis Set: (AUG-CC-PVTZ AUX)
    Blend: AUG-CC-PVTZ-JKFIT + DEF2-UNIVERSAL-JKFIT
  @DF-RHF Final Energy:   -99.45086996319212
    Total Energy =                        -99.4508699631921189
 Dipole X            :          0.0002776            0.0000000            0.0002776
 Dipole Y            :          0.0004393            0.0000000            0.0004393
 Dipole Z            :          0.0000000            0.0000000            0.0000000
 Magnitude           :                                                    0.0005196
  Basis Set: (AUG-CC-PVTZ AUX)
    Blend: AUG-CC-PVTZ-RI + DEF2-QZVPP-RI
	 Reference Energy          =     -99.4508699631921189 [Eh]
	 Singles Energy            =      -0.0000000000000000 [Eh]
	 Same-Spin Energy          =      -0.0817406407871290 [Eh]
	 Opposite-Spin Energy      =      -0.2274459266463451 [Eh]
	 Correlation Energy        =      -0.3091865674334742 [Eh]
	 Total Energy              =     -99.7600565306255902 [Eh]
	 SCS Total Energy          =     -99.7510519554301140 [Eh]
                               Psi4 1.8.2 release
    Molecular point group: c1
  Basis Set: AUG-CC-PVTZ
    Blend: AUG-CC-PVTZ
  Basis Set: (AUG-CC-PVTZ AUX)
    Blend: AUG-CC-PVTZ-JKFIT + DEF2-UNIVERSAL-JKFIT
  @DF-RHF Final Energy:  -161.67604627263870
    Total Energy =                       -161.6760462726387004
  Basis Set: (AUG-CC-PVTZ AUX)
                               Psi4 1.8.2 release
  @DF-RHF Final Energy:  -323.20096708251356
    Total Energy =                       -323.2009670825135572
                               Psi4 1.8.2 release
  @DF-RHF Final Energy:  -261.31297206537295
    Total Energy =                       -261.3129720653729464
                               Psi4 1.8.2 release
  @DF-RHF Final Energy:  -261.37057376611114
    Total Energy =                       -261.3705737661111357
                               Psi4 1.8.2 release
  Multiplicity = 1
  @DF-RHF Final Energy:  -161.67603588765391
    Total Energy =                       -161.6760358876539101
	 Singles Energy            =      -0.0000000000000000 [Eh]
	 Same-Spin Energy          =      -0.0022800220782948 [Eh]
	 Opposite-Spin Energy      =      -0.0088110844603220 [Eh]
	 Correlation Energy        =      -0.0110911065386168 [Eh]
	 Total Energy              =    -161.6871269941925391 [Eh]
	 SCS Total Energy          =    -161.6873691963657222 [Eh]
                               Psi4 1.8.2 release
    Molecular point group: c1

    Geometry (in Bohr), charge = 1, multiplicity = 1:

       Center              X                  Y                   Z               Mass
    ------------   -----------------  -----------------  -----------------  -----------------
         F            0.000000000000     0.000000000000     0.000000000000    18.998403162730
         NA           0.000000000000     3.665274998415     0.000000000000    22.989769282000
         NA           5.497912497623     0.000000000000     0.000000000000    22.989769282000

  Charge       = 1
  Multiplicity = 1
  Basis Set: AUG-CC-PVTZ
    Blend: AUG-CC-PVTZ
  Basis Set: (AUG-CC-PVTZ AUX)
    Blend: AUG-CC-PVTZ-JKFIT + DEF2-UNIVERSAL-JKFIT

    Orbital Energies [Eh]
    ---------------------

    Doubly Occupied:

       1A    -40.721946     2A    -40.616626     3A    -26.253736
       4A     -3.034620     5A     -2.940814     6A     -1.758736
       7A     -1.758105     8A     -1.756416     9A     -1.667398
      10A     -1.664995    11A     -1.664158    12A     -1.505656
      13A     -0.622676    14A     -0.610978    15A     -0.610923

  @DF-RHF Final Energy:  -423.08033906687592

   => Energetics <=

    Nuclear Repulsion Energy =             63.3291427910860989
    One-Electron Energy =                -718.4433961518818705
    Two-Electron Energy =                 232.0339142939198780
    Total Energy =                       -423.0803390668759221
 Dipole X            :        -55.2612244           60.4770375            5.2158131
 Dipole Y            :        -36.9683081           40.3180250            3.3497169
 Dipole Z            :         -0.0000000            0.0000000           -0.0000000
 Magnitude           :                                                    6.1988152
  Basis Set: (AUG-CC-PVTZ AUX)
    Blend: AUG-CC-PVTZ-RI + DEF2-QZVPP-RI
	 Reference Energy          =    -423.0803390668759221 [Eh]
	 Singles Energy            =      -0.0000000000000000 [Eh]
	 Same-Spin Energy          =      -0.0854182652852601 [Eh]
	 Opposite-Spin Energy      =      -0.2433093554972385 [Eh]
	 Correlation Energy        =      -0.3287276207824986 [Eh]
	 Total Energy              =    -423.4090666876584237 [Eh]

	 ================> DF-SCS-MP2 Energies <==================
	-----------------------------------------------------------
	 SCS Same-Spin Scale       =       0.3333333333333333 [-]
	 SCS Opposite-Spin Scale   =       1.2000000000000000 [-]
	 SCS Same-Spin Energy      =      -0.0284727550950867 [Eh]
	 SCS Opposite-Spin Energy  =      -0.2919712265966862 [Eh]
	 SCS Correlation Energy    =      -0.3204439816917729 [Eh]
	 SCS Total Energy          =    -423.4007830485676891 [Eh]
	-----------------------------------------------------------

*** Psi4 exiting successfully. Buy a developer a beer!
