                               Psi4 1.8.2 release

  ==> Input File <==

--------------------------------------------------------------------------
MEMORY 60 GB

molecule dimer {
1 1
Gh(F)      0.000000     0.000000     0.000000
Na         0.000000     1.939580     0.000000
Gh(Na)     1.939580     0.000000     0.000000

units ang
no_reorient
no_com
symmetry c1
}

set {
basis        aug-cc-pVTZ
scf_type     df
}

energy("mp2")
--------------------------------------------------------------------------

    Molecular point group: c1

    Geometry (in Angstrom), charge = 1, multiplicity = 1:

       Center              X                  Y                   Z               Mass
    ------------   -----------------  -----------------  -----------------  -----------------
      Gh(F)           0.000000000000     0.000000000000     0.000000000000    18.998403162730
         NA           0.000000000000     1.939580000000     0.000000000000    22.989769282000
      Gh(NA)          1.939580000000     0.000000000000     0.000000000000    22.989769282000

  Charge       = 1
  Multiplicity = 1
  Basis Set: AUG-CC-PVTZ
    Blend: AUG-CC-PVTZ
  Basis Set: (AUG-CC-PVTZ AUX)
    Blend: AUG-CC-PVTZ-JKFIT + DEF2-UNIVERSAL-JKFIT

    Orbital Energies [Eh]
    ---------------------

    Doubly Occupied:

       1A    -40.762326     2A     -3.074655     3A     -1.797929
       4A     -1.797891     5A     -1.797835

  @DF-RHF Final Energy:  -161.67605226064339

   => Energetics <=

    Nuclear Repulsion Energy =              0.0000000000000000
    One-Electron Energy =                -224.8908322226809844
    Two-Electron Energy =                  63.2147799620376176
    Total Energy =                       -161.6760522606433597
 Dipole X            :          0.0003073            0.0000000            0.0003073
 Dipole Y            :        -36.6532629           40.3180250            3.6647621
 Dipole Z            :          0.0000000            0.0000000            0.0000000
 Magnitude           :                                                    3.6647621
  Basis Set: (AUG-CC-PVTZ AUX)
    Blend: AUG-CC-PVTZ-RI + DEF2-QZVPP-RI
	 Reference Energy          =    -161.6760522606433881 [Eh]
	 Singles Energy            =      -0.0000000000000000 [Eh]
	 Same-Spin Energy          =      -0.0031367609820246 [Eh]
	 Opposite-Spin Energy      =      -0.0111678027860449 [Eh]
	 Correlation Energy        =      -0.0143045637680695 [Eh]
	 Total Energy              =    -161.6903568244114524 [Eh]

	 ================> DF-SCS-MP2 Energies <==================
	-----------------------------------------------------------
	 SCS Same-Spin Scale       =       0.3333333333333333 [-]
	 SCS Opposite-Spin Scale   =       1.2000000000000000 [-]
	 SCS Same-Spin Energy      =      -0.0010455869940082 [Eh]
	 SCS Opposite-Spin Energy  =      -0.0134013633432539 [Eh]
	 SCS Correlation Energy    =      -0.0144469503372621 [Eh]
	 SCS Total Energy          =    -161.6904992109806471 [Eh]
	-----------------------------------------------------------

*** Psi4 exiting successfully. Buy a developer a beer!
