                               Psi4 1.8.2 release

  ==> Input File <==

--------------------------------------------------------------------------
MEMORY 60 GB

molecule dimer {
-1 1
F      0.000000     0.000000     0.000000
--
1 1
Na     0.000000     1.939580     0.000000
--
1 1
Na     1.939580     0.000000     0.000000

units ang
no_reorient
no_com
symmetry c1
}

set {
basis        aug-cc-pVTZ
scf_type     df
}

energy("mp2", bsse_type="cp")
--------------------------------------------------------------------------

                               Psi4 1.8.2 release
    Molecular point group: c1
  Charge       = -1
  Multiplicity = 1
  Basis Set: AUG-CC-PVTZ
    Blend: AUG-CC-PVTZ
  Basis Set: (AUG-CC-PVTZ AUX)
    Blend: AUG-CC-PVTZ-JKFIT + DEF2-UNIVERSAL-JKFIT
  @DF-RHF Final Energy:   -99.45090072181112
    Total Energy =                        -99.4509007218111236
 Dipole X            :          0.0003349            0.0000000            0.0003349
 Dipole Y            :          0.0003349            0.0000000            0.0003349
 Dipole Z            :         -0.0000000            0.0000000           -0.0000000
 Magnitude           :                                                    0.0004737
  Basis Set: (AUG-CC-PVTZ AUX)
    Blend: AUG-CC-PVTZ-RI + DEF2-QZVPP-RI
	 Reference Energy          =     -99.4509007218111236 [Eh]
	 Singles Energy            =      -0.0000000000000000 [Eh]
	 Same-Spin Energy          =      -0.0817848516915632 [Eh]
	 Opposite-Spin Energy      =      -0.2278221467879537 [Eh]
	 Correlation Energy        =      -0.3096069984795169 [Eh]
	 Total Energy              =     -99.7605077202906472 [Eh]
	 SCS Total Energy          =     -99.7515489151871861 [Eh]
                               Psi4 1.8.2 release
    Molecular point group: c1
  Basis Set: AUG-CC-PVTZ
    Blend: AUG-CC-PVTZ
  Basis Set: (AUG-CC-PVTZ AUX)
    Blend: AUG-CC-PVTZ-JKFIT + DEF2-UNIVERSAL-JKFIT
  @DF-RHF Final Energy:  -161.67605226064336
    Total Energy =                       -161.6760522606433597
  Basis Set: (AUG-CC-PVTZ AUX)
                               Psi4 1.8.2 release
  @DF-RHF Final Energy:  -323.15982125443554
    Total Energy =                       -323.1598212544355420
                               Psi4 1.8.2 release
  @DF-RHF Final Energy:  -261.37068436249984
    Total Energy =                       -261.3706843624998442
                               Psi4 1.8.2 release
  @DF-RHF Final Energy:  -261.37068436251866
    Total Energy =                       -261.3706843625186593
                               Psi4 1.8.2 release
  Multiplicity = 1
  @DF-RHF Final Energy:  -161.67605226063850
    Total Energy =                       -161.6760522606384995
	 Singles Energy            =      -0.0000000000000000 [Eh]
	 Same-Spin Energy          =      -0.0031367609820482 [Eh]
	 Opposite-Spin Energy      =      -0.0111678027861209 [Eh]
	 Correlation Energy        =      -0.0143045637681691 [Eh]
	 Total Energy              =    -161.6903568244066776 [Eh]
	 SCS Total Energy          =    -161.6904992109758723 [Eh]
                               Psi4 1.8.2 release
    Molecular point group: c1

    Geometry (in Bohr), charge = 1, multiplicity = 1:

       Center              X                  Y                   Z               Mass
    ------------   -----------------  -----------------  -----------------  -----------------
         F            0.000000000000     0.000000000000     0.000000000000    18.998403162730
         NA           0.000000000000     3.665274998415     0.000000000000    22.989769282000
         NA           3.665274998415     0.000000000000     0.000000000000    22.989769282000

  Charge       = 1
  Multiplicity = 1
  Basis Set: AUG-CC-PVTZ
    Blend: AUG-CC-PVTZ
  Basis Set: (AUG-CC-PVTZ AUX)
    Blend: AUG-CC-PVTZ-JKFIT + DEF2-UNIVERSAL-JKFIT

    Orbital Energies [Eh]
    ---------------------

    Doubly Occupied:

       1A    -40.656503     2A    -40.656502     3A    -26.306858
       4A     -2.980812     5A     -2.980248     6A     -1.716034
       7A     -1.705713     8A     -1.703892     9A     -1.703623
      10A     -1.703280    11A     -1.701774    12A     -1.567344
      13A     -0.687981    14A     -0.684913    15A     -0.675055

  @DF-RHF Final Energy:  -423.09874838219685

   => Energetics <=

    Nuclear Repulsion Energy =             77.3638869242159899
    One-Electron Energy =                -746.0642040837847162
    Two-Electron Energy =                 245.6015687773718810
    Total Energy =                       -423.0987483821968453
 Dipole X            :        -36.9503539           40.3180250            3.3676711
 Dipole Y            :        -36.9503539           40.3180250            3.3676711
 Dipole Z            :         -0.0000000            0.0000000           -0.0000000
 Magnitude           :                                                    4.7626062
  Basis Set: (AUG-CC-PVTZ AUX)
    Blend: AUG-CC-PVTZ-RI + DEF2-QZVPP-RI
	 Reference Energy          =    -423.0987483821968453 [Eh]
	 Singles Energy            =      -0.0000000000000000 [Eh]
	 Same-Spin Energy          =      -0.0851539747212340 [Eh]
	 Opposite-Spin Energy      =      -0.2430403969433638 [Eh]
	 Correlation Energy        =      -0.3281943716645978 [Eh]
	 Total Energy              =    -423.4269427538614536 [Eh]

	 ================> DF-SCS-MP2 Energies <==================
	-----------------------------------------------------------
	 SCS Same-Spin Scale       =       0.3333333333333333 [-]
	 SCS Opposite-Spin Scale   =       1.2000000000000000 [-]
	 SCS Same-Spin Energy      =      -0.0283846582404113 [Eh]
	 SCS Opposite-Spin Energy  =      -0.2916484763320365 [Eh]
	 SCS Correlation Energy    =      -0.3200331345724479 [Eh]
	 SCS Total Energy          =    -423.4187815167692861 [Eh]
	-----------------------------------------------------------

*** Psi4 exiting successfully. Buy a developer a beer!
