                               Psi4 1.9 release

  ==> Input File <==

--------------------------------------------------------------------------
MEMORY 60 GB

molecule dimer {
0 1
F      0.000000     0.000000     0.000000
Na     0.000000     1.939580     0.000000
--
1 1
Na     2.909370     0.000000     0.000000

units ang
no_reorient
no_com
symmetry c1
}

set {
basis        aug-cc-pVTZ
scf_type     df
}

energy("mp2", bsse_type="cp")
--------------------------------------------------------------------------

                               Psi4 1.9 release
    Molecular point group: c1
  Charge       = 1
  Multiplicity = 1
  Basis Set: AUG-CC-PVTZ
    Blend: AUG-CC-PVTZ
  Basis Set: (AUG-CC-PVTZ AUX)
    Blend: AUG-CC-PVTZ-JKFIT + DEF2-UNIVERSAL-JKFIT
  @DF-RHF Final Energy:  -161.67603588769674
    Total Energy =                       -161.6760358876967416
 Dipole X            :        -54.9796804           60.4770375            5.4973571
 Dipole Y            :          0.0001600            0.0000000            0.0001600
 Dipole Z            :         -0.0000000            0.0000000           -0.0000000
 Magnitude           :                                                    5.4973571
  Basis Set: (AUG-CC-PVTZ AUX)
    Blend: AUG-CC-PVTZ-RI + DEF2-QZVPP-RI
	 Reference Energy          =    -161.6760358876967416 [Eh]
	 Singles Energy            =      -0.0000000000000000 [Eh]
	 Same-Spin Energy          =      -0.0022800220782731 [Eh]
	 Opposite-Spin Energy      =      -0.0088110844602664 [Eh]
	 Correlation Energy        =      -0.0110911065385395 [Eh]
	 Total Energy              =    -161.6871269942352853 [Eh]
	 SCS Total Energy          =    -161.6873691964084969 [Eh]
                               Psi4 1.9 release
    Molecular point group: c1
  Multiplicity = 1
  Basis Set: AUG-CC-PVTZ
    Blend: AUG-CC-PVTZ
  Basis Set: (AUG-CC-PVTZ AUX)
    Blend: AUG-CC-PVTZ-JKFIT + DEF2-UNIVERSAL-JKFIT
  @DF-RHF Final Energy:  -261.37057376606367
    Total Energy =                       -261.3705737660636714
  Basis Set: (AUG-CC-PVTZ AUX)
	 Singles Energy            =      -0.0000000000000000 [Eh]
	 Same-Spin Energy          =      -0.0828972858998799 [Eh]
	 Opposite-Spin Energy      =      -0.2338742422036886 [Eh]
	 Correlation Energy        =      -0.3167715281035685 [Eh]
	 Total Energy              =    -261.6873452941672440 [Eh]
	 SCS Total Energy          =    -261.6788552853413989 [Eh]
                               Psi4 1.9 release
    Molecular point group: c1

    Geometry (in Bohr), charge = 1, multiplicity = 1:

       Center              X                  Y                   Z               Mass
    ------------   -----------------  -----------------  -----------------  -----------------
         F            0.000000000000     0.000000000000     0.000000000000    18.998403162730
         NA           0.000000000000     3.665274998415     0.000000000000    22.989769282000
         NA           5.497912497623     0.000000000000     0.000000000000    22.989769282000

  Charge       = 1
  Multiplicity = 1
  Basis Set: AUG-CC-PVTZ
    Blend: AUG-CC-PVTZ
  Basis Set: (AUG-CC-PVTZ AUX)
    Blend: AUG-CC-PVTZ-JKFIT + DEF2-UNIVERSAL-JKFIT

    Orbital Energies [Eh]
    ---------------------

    Doubly Occupied:

       1A    -40.721946     2A    -40.616626     3A    -26.253736
       4A     -3.034620     5A     -2.940814     6A     -1.758736
       7A     -1.758105     8A     -1.756416     9A     -1.667398
      10A     -1.664995    11A     -1.664158    12A     -1.505656
      13A     -0.622676    14A     -0.610978    15A     -0.610923

  @DF-RHF Final Energy:  -423.08033906687882

   => Energetics <=

    Nuclear Repulsion Energy =             63.3291427910860989
    One-Electron Energy =                -718.4433961518924434
    Two-Electron Energy =                 232.0339142939274666
    Total Energy =                       -423.0803390668788211
 Dipole X            :        -55.2612244           60.4770375            5.2158131
 Dipole Y            :        -36.9683081           40.3180250            3.3497169
 Dipole Z            :         -0.0000000            0.0000000           -0.0000000
 Magnitude           :                                                    6.1988152
  Basis Set: (AUG-CC-PVTZ AUX)
    Blend: AUG-CC-PVTZ-RI + DEF2-QZVPP-RI
	 Reference Energy          =    -423.0803390668788211 [Eh]
	 Singles Energy            =      -0.0000000000000000 [Eh]
	 Same-Spin Energy          =      -0.0854182652852190 [Eh]
	 Opposite-Spin Energy      =      -0.2433093554971225 [Eh]
	 Correlation Energy        =      -0.3287276207823415 [Eh]
	 Total Energy              =    -423.4090666876611522 [Eh]

	 ================> DF-SCS-MP2 Energies <==================
	-----------------------------------------------------------
	 SCS Same-Spin Scale       =       0.3333333333333333 [-]
	 SCS Opposite-Spin Scale   =       1.2000000000000000 [-]
	 SCS Same-Spin Energy      =      -0.0284727550950730 [Eh]
	 SCS Opposite-Spin Energy  =      -0.2919712265965470 [Eh]
	 SCS Correlation Energy    =      -0.3204439816916200 [Eh]
	 SCS Total Energy          =    -423.4007830485704176 [Eh]
	-----------------------------------------------------------

*** Psi4 exiting successfully. Buy a developer a beer!
