                               Psi4 1.8.2 release

  ==> Input File <==

--------------------------------------------------------------------------
MEMORY 60 GB

molecule dimer {
-1 1
F      0.000000     0.000000     0.000000
--
1 1
Na     0.000000     1.939580     0.000000
--
1 1
Na     2.715412     0.000000     0.000000

units ang
no_reorient
no_com
symmetry c1
}

set {
basis        aug-cc-pVTZ
scf_type     df
}

energy("mp2", bsse_type="cp")
--------------------------------------------------------------------------

                               Psi4 1.8.2 release
    Molecular point group: c1
  Charge       = -1
  Multiplicity = 1
  Basis Set: AUG-CC-PVTZ
    Blend: AUG-CC-PVTZ
  Basis Set: (AUG-CC-PVTZ AUX)
    Blend: AUG-CC-PVTZ-JKFIT + DEF2-UNIVERSAL-JKFIT
  @DF-RHF Final Energy:   -99.45087408096548
    Total Energy =                        -99.4508740809654768
 Dipole X            :          0.0004258            0.0000000            0.0004258
 Dipole Y            :          0.0004652            0.0000000            0.0004652
 Dipole Z            :         -0.0000000            0.0000000           -0.0000000
 Magnitude           :                                                    0.0006306
  Basis Set: (AUG-CC-PVTZ AUX)
    Blend: AUG-CC-PVTZ-RI + DEF2-QZVPP-RI
	 Reference Energy          =     -99.4508740809654768 [Eh]
	 Singles Energy            =      -0.0000000000000000 [Eh]
	 Same-Spin Energy          =      -0.0817479070271630 [Eh]
	 Opposite-Spin Energy      =      -0.2274991339777651 [Eh]
	 Correlation Energy        =      -0.3092470410049281 [Eh]
	 Total Energy              =     -99.7601211219703998 [Eh]
	 SCS Total Energy          =     -99.7511223440811818 [Eh]
                               Psi4 1.8.2 release
    Molecular point group: c1
  Basis Set: AUG-CC-PVTZ
    Blend: AUG-CC-PVTZ
  Basis Set: (AUG-CC-PVTZ AUX)
    Blend: AUG-CC-PVTZ-JKFIT + DEF2-UNIVERSAL-JKFIT
  @DF-RHF Final Energy:  -161.67604773420103
    Total Energy =                       -161.6760477342010631
  Basis Set: (AUG-CC-PVTZ AUX)
                               Psi4 1.8.2 release
  @DF-RHF Final Energy:  -323.19378231827881
    Total Energy =                       -323.1937823182788065
                               Psi4 1.8.2 release
  @DF-RHF Final Energy:  -261.32559524894066
    Total Energy =                       -261.3255952489406582
                               Psi4 1.8.2 release
  @DF-RHF Final Energy:  -261.37059352452610
    Total Energy =                       -261.3705935245260434
                               Psi4 1.8.2 release
  Multiplicity = 1
  @DF-RHF Final Energy:  -161.67603796815544
    Total Energy =                       -161.6760379681554411
	 Singles Energy            =      -0.0000000000000000 [Eh]
	 Same-Spin Energy          =      -0.0023975092269358 [Eh]
	 Opposite-Spin Energy      =      -0.0091392897718037 [Eh]
	 Correlation Energy        =      -0.0115367989987395 [Eh]
	 Total Energy              =    -161.6875747671541887 [Eh]
	 SCS Total Energy          =    -161.6878042856239119 [Eh]
                               Psi4 1.8.2 release
    Molecular point group: c1

    Geometry (in Bohr), charge = 1, multiplicity = 1:

       Center              X                  Y                   Z               Mass
    ------------   -----------------  -----------------  -----------------  -----------------
         F            0.000000000000     0.000000000000     0.000000000000    18.998403162730
         NA           0.000000000000     3.665274998415     0.000000000000    22.989769282000
         NA           5.131384997782     0.000000000000     0.000000000000    22.989769282000

  Charge       = 1
  Multiplicity = 1
  Basis Set: AUG-CC-PVTZ
    Blend: AUG-CC-PVTZ
  Basis Set: (AUG-CC-PVTZ AUX)
    Blend: AUG-CC-PVTZ-JKFIT + DEF2-UNIVERSAL-JKFIT

    Orbital Energies [Eh]
    ---------------------

    Doubly Occupied:

       1A    -40.713795     2A    -40.623793     3A    -26.265117
       4A     -3.026989     5A     -2.947969     6A     -1.751313
       7A     -1.750547     8A     -1.748490     9A     -1.674841
      10A     -1.672173    11A     -1.671272    12A     -1.517371
      13A     -0.634269    14A     -0.623796    15A     -0.622517

  @DF-RHF Final Energy:  -423.08589492375040

   => Energetics <=

    Nuclear Repulsion Energy =             65.4914316819523492
    One-Electron Energy =                -722.6661499033845075
    Two-Electron Energy =                 234.0888232976817562
    Total Energy =                       -423.0858949237504021
 Dipole X            :        -51.6150831           56.4452350            4.8301518
 Dipole Y            :        -36.9663845           40.3180250            3.3516404
 Dipole Z            :         -0.0000000            0.0000000           -0.0000000
 Magnitude           :                                                    5.8791037
  Basis Set: (AUG-CC-PVTZ AUX)
    Blend: AUG-CC-PVTZ-RI + DEF2-QZVPP-RI
	 Reference Energy          =    -423.0858949237504021 [Eh]
	 Singles Energy            =      -0.0000000000000000 [Eh]
	 Same-Spin Energy          =      -0.0855184882754195 [Eh]
	 Opposite-Spin Energy      =      -0.2436547362500000 [Eh]
	 Correlation Energy        =      -0.3291732245254195 [Eh]
	 Total Energy              =    -423.4150681482758500 [Eh]

	 ================> DF-SCS-MP2 Energies <==================
	-----------------------------------------------------------
	 SCS Same-Spin Scale       =       0.3333333333333333 [-]
	 SCS Opposite-Spin Scale   =       1.2000000000000000 [-]
	 SCS Same-Spin Energy      =      -0.0285061627584732 [Eh]
	 SCS Opposite-Spin Energy  =      -0.2923856835000000 [Eh]
	 SCS Correlation Energy    =      -0.3208918462584732 [Eh]
	 SCS Total Energy          =    -423.4067867700088641 [Eh]
	-----------------------------------------------------------

*** Psi4 exiting successfully. Buy a developer a beer!
