                               Psi4 1.8.2 release

  ==> Input File <==

--------------------------------------------------------------------------
MEMORY 60 GB

molecule dimer {
-1 1
F          0.000000     0.000000     0.000000
Gh(Na)     0.000000     1.939580     0.000000
Gh(Na)     2.521454     0.000000     0.000000

units ang
no_reorient
no_com
symmetry c1
}

set {
basis        aug-cc-pVTZ
scf_type     df
}

energy("mp2")
--------------------------------------------------------------------------

    Molecular point group: c1

    Geometry (in Angstrom), charge = -1, multiplicity = 1:

       Center              X                  Y                   Z               Mass
    ------------   -----------------  -----------------  -----------------  -----------------
         F            0.000000000000     0.000000000000     0.000000000000    18.998403162730
      Gh(NA)          0.000000000000     1.939580000000     0.000000000000    22.989769282000
      Gh(NA)          2.521454000000     0.000000000000     0.000000000000    22.989769282000

  Charge       = -1
  Multiplicity = 1
  Basis Set: AUG-CC-PVTZ
    Blend: AUG-CC-PVTZ
  Basis Set: (AUG-CC-PVTZ AUX)
    Blend: AUG-CC-PVTZ-JKFIT + DEF2-UNIVERSAL-JKFIT

    Orbital Energies [Eh]
    ---------------------

    Doubly Occupied:

       1A    -25.833824     2A     -1.076058     3A     -0.181022
       4A     -0.181005     5A     -0.180983

  @DF-RHF Final Energy:   -99.45088317475916

   => Energetics <=

    Nuclear Repulsion Energy =              0.0000000000000000
    One-Electron Energy =                -143.9959813493429976
    Two-Electron Energy =                  44.5450981745838419
    Total Energy =                        -99.4508831747591557
 Dipole X            :          0.0005978            0.0000000            0.0005978
 Dipole Y            :          0.0004740            0.0000000            0.0004740
 Dipole Z            :          0.0000000            0.0000000            0.0000000
 Magnitude           :                                                    0.0007629
  Basis Set: (AUG-CC-PVTZ AUX)
    Blend: AUG-CC-PVTZ-RI + DEF2-QZVPP-RI
	 Reference Energy          =     -99.4508831747591557 [Eh]
	 Singles Energy            =      -0.0000000000000000 [Eh]
	 Same-Spin Energy          =      -0.0817570340896039 [Eh]
	 Opposite-Spin Energy      =      -0.2275648845857270 [Eh]
	 Correlation Energy        =      -0.3093219186753309 [Eh]
	 Total Energy              =     -99.7602050934344931 [Eh]

	 ================> DF-SCS-MP2 Energies <==================
	-----------------------------------------------------------
	 SCS Same-Spin Scale       =       0.3333333333333333 [-]
	 SCS Opposite-Spin Scale   =       1.2000000000000000 [-]
	 SCS Same-Spin Energy      =      -0.0272523446965346 [Eh]
	 SCS Opposite-Spin Energy  =      -0.2730778615028724 [Eh]
	 SCS Correlation Energy    =      -0.3003302061994071 [Eh]
	 SCS Total Energy          =     -99.7512133809585606 [Eh]
	-----------------------------------------------------------

*** Psi4 exiting successfully. Buy a developer a beer!
