                               Psi4 1.9 release

  ==> Input File <==

--------------------------------------------------------------------------
MEMORY 60 GB

molecule dimer {
0 1
F      0.000000     0.000000     0.000000
Na     0.000000     1.939580     0.000000
--
1 1
Na     3.879160     0.000000     0.000000

units ang
no_reorient
no_com
symmetry c1
}

set {
basis        aug-cc-pVTZ
scf_type     df
}

energy("mp2", bsse_type="cp")
--------------------------------------------------------------------------

                               Psi4 1.9 release
    Molecular point group: c1
  Charge       = 1
  Multiplicity = 1
  Basis Set: AUG-CC-PVTZ
    Blend: AUG-CC-PVTZ
  Basis Set: (AUG-CC-PVTZ AUX)
    Blend: AUG-CC-PVTZ-JKFIT + DEF2-UNIVERSAL-JKFIT
  @DF-RHF Final Energy:  -161.67602844310707
    Total Energy =                       -161.6760284431071000
 Dipole X            :        -73.3057229           80.6360500            7.3303271
 Dipole Y            :          0.0000788            0.0000000            0.0000788
 Dipole Z            :          0.0000000            0.0000000            0.0000000
 Magnitude           :                                                    7.3303271
  Basis Set: (AUG-CC-PVTZ AUX)
    Blend: AUG-CC-PVTZ-RI + DEF2-QZVPP-RI
	 Reference Energy          =    -161.6760284431070716 [Eh]
	 Singles Energy            =      -0.0000000000000000 [Eh]
	 Same-Spin Energy          =      -0.0020169527031749 [Eh]
	 Opposite-Spin Energy      =      -0.0080888239967156 [Eh]
	 Correlation Energy        =      -0.0101057766998905 [Eh]
	 Total Energy              =    -161.6861342198069735 [Eh]
	 SCS Total Energy          =    -161.6864073494708691 [Eh]
                               Psi4 1.9 release
    Molecular point group: c1
  Multiplicity = 1
  Basis Set: AUG-CC-PVTZ
    Blend: AUG-CC-PVTZ
  Basis Set: (AUG-CC-PVTZ AUX)
    Blend: AUG-CC-PVTZ-JKFIT + DEF2-UNIVERSAL-JKFIT
  @DF-RHF Final Energy:  -261.37054541054869
    Total Energy =                       -261.3705454105486297
  Basis Set: (AUG-CC-PVTZ AUX)
	 Singles Energy            =      -0.0000000000000000 [Eh]
	 Same-Spin Energy          =      -0.0827006803128268 [Eh]
	 Opposite-Spin Energy      =      -0.2333004666319325 [Eh]
	 Correlation Energy        =      -0.3160011469447593 [Eh]
	 Total Energy              =    -261.6865465574934433 [Eh]
	 SCS Total Energy          =    -261.6780728639446352 [Eh]
                               Psi4 1.9 release
    Molecular point group: c1

    Geometry (in Bohr), charge = 1, multiplicity = 1:

       Center              X                  Y                   Z               Mass
    ------------   -----------------  -----------------  -----------------  -----------------
         F            0.000000000000     0.000000000000     0.000000000000    18.998403162730
         NA           0.000000000000     3.665274998415     0.000000000000    22.989769282000
         NA           7.330549996831     0.000000000000     0.000000000000    22.989769282000

  Charge       = 1
  Multiplicity = 1
  Basis Set: AUG-CC-PVTZ
    Blend: AUG-CC-PVTZ
  Basis Set: (AUG-CC-PVTZ AUX)
    Blend: AUG-CC-PVTZ-JKFIT + DEF2-UNIVERSAL-JKFIT

    Orbital Energies [Eh]
    ---------------------

    Doubly Occupied:

       1A    -40.745683     2A    -40.586777     3A    -26.207287
       4A     -3.057435     5A     -2.911042     6A     -1.780963
       7A     -1.780693     8A     -1.780093     9A     -1.636750
      10A     -1.635063    11A     -1.634515    12A     -1.460124
      13A     -0.577009    14A     -0.565167    15A     -0.564303

  @DF-RHF Final Energy:  -423.06238699884778

   => Energetics <=

    Nuclear Repulsion Energy =             55.2790295797954698
    One-Electron Energy =                -702.8370235611340604
    Two-Electron Energy =                 224.4956069824907559
    Total Energy =                       -423.0623869988477850
 Dipole X            :        -73.4795392           80.6360500            7.1565108
 Dipole Y            :        -36.9717588           40.3180250            3.3462661
 Dipole Z            :         -0.0000000            0.0000000           -0.0000000
 Magnitude           :                                                    7.9001990
  Basis Set: (AUG-CC-PVTZ AUX)
    Blend: AUG-CC-PVTZ-RI + DEF2-QZVPP-RI
	 Reference Energy          =    -423.0623869988477850 [Eh]
	 Singles Energy            =      -0.0000000000000000 [Eh]
	 Same-Spin Energy          =      -0.0849071444515593 [Eh]
	 Opposite-Spin Energy      =      -0.2418212612238430 [Eh]
	 Correlation Energy        =      -0.3267284056754023 [Eh]
	 Total Energy              =    -423.3891154045231815 [Eh]

	 ================> DF-SCS-MP2 Energies <==================
	-----------------------------------------------------------
	 SCS Same-Spin Scale       =       0.3333333333333333 [-]
	 SCS Opposite-Spin Scale   =       1.2000000000000000 [-]
	 SCS Same-Spin Energy      =      -0.0283023814838531 [Eh]
	 SCS Opposite-Spin Energy  =      -0.2901855134686116 [Eh]
	 SCS Correlation Energy    =      -0.3184878949524647 [Eh]
	 SCS Total Energy          =    -423.3808748938002395 [Eh]
	-----------------------------------------------------------

*** Psi4 exiting successfully. Buy a developer a beer!
