                               Psi4 1.9 release

  ==> Input File <==

--------------------------------------------------------------------------
MEMORY 60 GB

molecule dimer {
0 1
F      0.000000     0.000000     0.000000
Na     0.000000     1.939580     0.000000
--
1 1
Na     2.133538     0.000000     0.000000

units ang
no_reorient
no_com
symmetry c1
}

set {
basis        aug-cc-pVTZ
scf_type     df
}

energy("mp2", bsse_type="cp")
--------------------------------------------------------------------------

                               Psi4 1.9 release
    Molecular point group: c1
  Charge       = 1
  Multiplicity = 1
  Basis Set: AUG-CC-PVTZ
    Blend: AUG-CC-PVTZ
  Basis Set: (AUG-CC-PVTZ AUX)
    Blend: AUG-CC-PVTZ-JKFIT + DEF2-UNIVERSAL-JKFIT
  @DF-RHF Final Energy:  -161.67604814693499
    Total Energy =                       -161.6760481469349884
 Dipole X            :        -40.3185974           44.3498275            4.0312301
 Dipole Y            :          0.0002878            0.0000000            0.0002878
 Dipole Z            :         -0.0000000            0.0000000           -0.0000000
 Magnitude           :                                                    4.0312301
  Basis Set: (AUG-CC-PVTZ AUX)
    Blend: AUG-CC-PVTZ-RI + DEF2-QZVPP-RI
	 Reference Energy          =    -161.6760481469349884 [Eh]
	 Singles Energy            =      -0.0000000000000000 [Eh]
	 Same-Spin Energy          =      -0.0026648412400380 [Eh]
	 Opposite-Spin Energy      =      -0.0098584316060313 [Eh]
	 Correlation Energy        =      -0.0125232728460692 [Eh]
	 Total Energy              =    -161.6885714197810557 [Eh]
	 SCS Total Energy          =    -161.6887665452755698 [Eh]
                               Psi4 1.9 release
    Molecular point group: c1
  Multiplicity = 1
  Basis Set: AUG-CC-PVTZ
    Blend: AUG-CC-PVTZ
  Basis Set: (AUG-CC-PVTZ AUX)
    Blend: AUG-CC-PVTZ-JKFIT + DEF2-UNIVERSAL-JKFIT
  @DF-RHF Final Energy:  -261.37068306703355
    Total Energy =                       -261.3706830670335535
  Basis Set: (AUG-CC-PVTZ AUX)
	 Singles Energy            =      -0.0000000000000000 [Eh]
	 Same-Spin Energy          =      -0.0831391121798599 [Eh]
	 Opposite-Spin Energy      =      -0.2346907260715881 [Eh]
	 Correlation Energy        =      -0.3178298382514480 [Eh]
	 Total Energy              =    -261.6885129052849948 [Eh]
	 SCS Total Energy          =    -261.6800249757127403 [Eh]
                               Psi4 1.9 release
    Molecular point group: c1

    Geometry (in Bohr), charge = 1, multiplicity = 1:

       Center              X                  Y                   Z               Mass
    ------------   -----------------  -----------------  -----------------  -----------------
         F            0.000000000000     0.000000000000     0.000000000000    18.998403162730
         NA           0.000000000000     3.665274998415     0.000000000000    22.989769282000
         NA           4.031802498257     0.000000000000     0.000000000000    22.989769282000

  Charge       = 1
  Multiplicity = 1
  Basis Set: AUG-CC-PVTZ
    Blend: AUG-CC-PVTZ
  Basis Set: (AUG-CC-PVTZ AUX)
    Blend: AUG-CC-PVTZ-JKFIT + DEF2-UNIVERSAL-JKFIT

    Orbital Energies [Eh]
    ---------------------

    Doubly Occupied:

       1A    -40.676925     2A    -40.647659     3A    -26.298531
       4A     -2.995092     5A     -2.971760     6A     -1.720554
       7A     -1.718601     8A     -1.717748     9A     -1.699061
      10A     -1.695900    11A     -1.694895    12A     -1.556325
      13A     -0.673353    14A     -0.669521    15A     -0.661131

  @DF-RHF Final Energy:  -423.10141478878774

   => Energetics <=

    Nuclear Repulsion Energy =             73.7716564761021800
    One-Electron Energy =                -738.9520294747887874
    Two-Electron Energy =                 242.0789582098988717
    Total Energy =                       -423.1014147887877357
 Dipole X            :        -40.6341557           44.3498275            3.7156718
 Dipole Y            :        -36.9558516           40.3180250            3.3621734
 Dipole Z            :         -0.0000000            0.0000000           -0.0000000
 Magnitude           :                                                    5.0110306
  Basis Set: (AUG-CC-PVTZ AUX)
    Blend: AUG-CC-PVTZ-RI + DEF2-QZVPP-RI
	 Reference Energy          =    -423.1014147887877357 [Eh]
	 Singles Energy            =      -0.0000000000000000 [Eh]
	 Same-Spin Energy          =      -0.0851337495429240 [Eh]
	 Opposite-Spin Energy      =      -0.2429345840394482 [Eh]
	 Correlation Energy        =      -0.3280683335823722 [Eh]
	 Total Energy              =    -423.4294831223701294 [Eh]

	 ================> DF-SCS-MP2 Energies <==================
	-----------------------------------------------------------
	 SCS Same-Spin Scale       =       0.3333333333333333 [-]
	 SCS Opposite-Spin Scale   =       1.2000000000000000 [-]
	 SCS Same-Spin Energy      =      -0.0283779165143080 [Eh]
	 SCS Opposite-Spin Energy  =      -0.2915215008473378 [Eh]
	 SCS Correlation Energy    =      -0.3198994173616458 [Eh]
	 SCS Total Energy          =    -423.4213142061493613 [Eh]
	-----------------------------------------------------------

*** Psi4 exiting successfully. Buy a developer a beer!
