                               Psi4 1.9 release

  ==> Input File <==

--------------------------------------------------------------------------
MEMORY 60 GB

molecule dimer {
0 1
F      0.000000     0.000000     0.000000
Na     0.000000     1.939580     0.000000
--
1 1
Na     2.715412     0.000000     0.000000

units ang
no_reorient
no_com
symmetry c1
}

set {
basis        aug-cc-pVTZ
scf_type     df
}

energy("mp2", bsse_type="cp")
--------------------------------------------------------------------------

                               Psi4 1.9 release
    Molecular point group: c1
  Charge       = 1
  Multiplicity = 1
  Basis Set: AUG-CC-PVTZ
    Blend: AUG-CC-PVTZ
  Basis Set: (AUG-CC-PVTZ AUX)
    Blend: AUG-CC-PVTZ-JKFIT + DEF2-UNIVERSAL-JKFIT
  @DF-RHF Final Energy:  -161.67603796814376
    Total Energy =                       -161.6760379681437598
 Dipole X            :        -51.3144285           56.4452350            5.1308065
 Dipole Y            :          0.0001921            0.0000000            0.0001921
 Dipole Z            :          0.0000000            0.0000000            0.0000000
 Magnitude           :                                                    5.1308065
  Basis Set: (AUG-CC-PVTZ AUX)
    Blend: AUG-CC-PVTZ-RI + DEF2-QZVPP-RI
	 Reference Energy          =    -161.6760379681437598 [Eh]
	 Singles Energy            =      -0.0000000000000000 [Eh]
	 Same-Spin Energy          =      -0.0023975092269252 [Eh]
	 Opposite-Spin Energy      =      -0.0091392897717743 [Eh]
	 Correlation Energy        =      -0.0115367989986995 [Eh]
	 Total Energy              =    -161.6875747671424506 [Eh]
	 SCS Total Energy          =    -161.6878042856122022 [Eh]
                               Psi4 1.9 release
    Molecular point group: c1
  Multiplicity = 1
  Basis Set: AUG-CC-PVTZ
    Blend: AUG-CC-PVTZ
  Basis Set: (AUG-CC-PVTZ AUX)
    Blend: AUG-CC-PVTZ-JKFIT + DEF2-UNIVERSAL-JKFIT
  @DF-RHF Final Energy:  -261.37059352447693
    Total Energy =                       -261.3705935244769307
  Basis Set: (AUG-CC-PVTZ AUX)
	 Singles Energy            =      -0.0000000000000000 [Eh]
	 Same-Spin Energy          =      -0.0829652186670449 [Eh]
	 Opposite-Spin Energy      =      -0.2340784296566933 [Eh]
	 Correlation Energy        =      -0.3170436483237382 [Eh]
	 Total Energy              =    -261.6876371728006916 [Eh]
	 SCS Total Energy          =    -261.6791427129539898 [Eh]
                               Psi4 1.9 release
    Molecular point group: c1

    Geometry (in Bohr), charge = 1, multiplicity = 1:

       Center              X                  Y                   Z               Mass
    ------------   -----------------  -----------------  -----------------  -----------------
         F            0.000000000000     0.000000000000     0.000000000000    18.998403162730
         NA           0.000000000000     3.665274998415     0.000000000000    22.989769282000
         NA           5.131384997782     0.000000000000     0.000000000000    22.989769282000

  Charge       = 1
  Multiplicity = 1
  Basis Set: AUG-CC-PVTZ
    Blend: AUG-CC-PVTZ
  Basis Set: (AUG-CC-PVTZ AUX)
    Blend: AUG-CC-PVTZ-JKFIT + DEF2-UNIVERSAL-JKFIT

    Orbital Energies [Eh]
    ---------------------

    Doubly Occupied:

       1A    -40.713795     2A    -40.623793     3A    -26.265117
       4A     -3.026989     5A     -2.947969     6A     -1.751313
       7A     -1.750547     8A     -1.748490     9A     -1.674841
      10A     -1.672173    11A     -1.671272    12A     -1.517371
      13A     -0.634269    14A     -0.623796    15A     -0.622517

  @DF-RHF Final Energy:  -423.08589492366343

   => Energetics <=

    Nuclear Repulsion Energy =             65.4914316819523492
    One-Electron Energy =                -722.6661499033782547
    Two-Electron Energy =                 234.0888232977625023
    Total Energy =                       -423.0858949236634317
 Dipole X            :        -51.6150831           56.4452350            4.8301518
 Dipole Y            :        -36.9663845           40.3180250            3.3516404
 Dipole Z            :         -0.0000000            0.0000000           -0.0000000
 Magnitude           :                                                    5.8791037
  Basis Set: (AUG-CC-PVTZ AUX)
    Blend: AUG-CC-PVTZ-RI + DEF2-QZVPP-RI
	 Reference Energy          =    -423.0858949236634317 [Eh]
	 Singles Energy            =      -0.0000000000000000 [Eh]
	 Same-Spin Energy          =      -0.0855184882753662 [Eh]
	 Opposite-Spin Energy      =      -0.2436547362498568 [Eh]
	 Correlation Energy        =      -0.3291732245252231 [Eh]
	 Total Energy              =    -423.4150681481886522 [Eh]

	 ================> DF-SCS-MP2 Energies <==================
	-----------------------------------------------------------
	 SCS Same-Spin Scale       =       0.3333333333333333 [-]
	 SCS Opposite-Spin Scale   =       1.2000000000000000 [-]
	 SCS Same-Spin Energy      =      -0.0285061627584554 [Eh]
	 SCS Opposite-Spin Energy  =      -0.2923856834998282 [Eh]
	 SCS Correlation Energy    =      -0.3208918462582836 [Eh]
	 SCS Total Energy          =    -423.4067867699217231 [Eh]
	-----------------------------------------------------------

*** Psi4 exiting successfully. Buy a developer a beer!
