                               Psi4 1.8.2 release

  ==> Input File <==

--------------------------------------------------------------------------
MEMORY 60 GB

molecule dimer {
1 1
Gh(F)      0.000000     0.000000     0.000000
Na         0.000000     1.939580     0.000000
Gh(Na)     2.909370     0.000000     0.000000

units ang
no_reorient
no_com
symmetry c1
}

set {
basis        aug-cc-pVTZ
scf_type     df
}

energy("mp2")
--------------------------------------------------------------------------

    Molecular point group: c1

    Geometry (in Angstrom), charge = 1, multiplicity = 1:

       Center              X                  Y                   Z               Mass
    ------------   -----------------  -----------------  -----------------  -----------------
      Gh(F)           0.000000000000     0.000000000000     0.000000000000    18.998403162730
         NA           0.000000000000     1.939580000000     0.000000000000    22.989769282000
      Gh(NA)          2.909370000000     0.000000000000     0.000000000000    22.989769282000

  Charge       = 1
  Multiplicity = 1
  Basis Set: AUG-CC-PVTZ
    Blend: AUG-CC-PVTZ
  Basis Set: (AUG-CC-PVTZ AUX)
    Blend: AUG-CC-PVTZ-JKFIT + DEF2-UNIVERSAL-JKFIT

    Orbital Energies [Eh]
    ---------------------

    Doubly Occupied:

       1A    -40.762648     2A     -3.074823     3A     -1.798100
       4A     -1.798046     5A     -1.797954

  @DF-RHF Final Energy:  -161.67604627263862

   => Energetics <=

    Nuclear Repulsion Energy =              0.0000000000000000
    One-Electron Energy =                -224.8889510682657544
    Two-Electron Energy =                  63.2129047956271251
    Total Energy =                       -161.6760462726386436
 Dipole X            :          0.0002474            0.0000000            0.0002474
 Dipole Y            :        -36.6532454           40.3180250            3.6647796
 Dipole Z            :          0.0000000            0.0000000            0.0000000
 Magnitude           :                                                    3.6647796
  Basis Set: (AUG-CC-PVTZ AUX)
    Blend: AUG-CC-PVTZ-RI + DEF2-QZVPP-RI
	 Reference Energy          =    -161.6760462726386152 [Eh]
	 Singles Energy            =      -0.0000000000000000 [Eh]
	 Same-Spin Energy          =      -0.0028998417903661 [Eh]
	 Opposite-Spin Energy      =      -0.0105365112253744 [Eh]
	 Correlation Energy        =      -0.0134363530157405 [Eh]
	 Total Energy              =    -161.6894826256543638 [Eh]

	 ================> DF-SCS-MP2 Energies <==================
	-----------------------------------------------------------
	 SCS Same-Spin Scale       =       0.3333333333333333 [-]
	 SCS Opposite-Spin Scale   =       1.2000000000000000 [-]
	 SCS Same-Spin Energy      =      -0.0009666139301220 [Eh]
	 SCS Opposite-Spin Energy  =      -0.0126438134704493 [Eh]
	 SCS Correlation Energy    =      -0.0136104274005713 [Eh]
	 SCS Total Energy          =    -161.6896567000391940 [Eh]
	-----------------------------------------------------------

*** Psi4 exiting successfully. Buy a developer a beer!
