                               Psi4 1.8.2 release

  ==> Input File <==

--------------------------------------------------------------------------
MEMORY 60 GB

molecule dimer {
1 1
Gh(F)      0.000000     0.000000     0.000000
Na         0.000000     1.939580     0.000000
Gh(Na)     2.327496     0.000000     0.000000

units ang
no_reorient
no_com
symmetry c1
}

set {
basis        aug-cc-pVTZ
scf_type     df
}

energy("mp2")
--------------------------------------------------------------------------

    Molecular point group: c1

    Geometry (in Angstrom), charge = 1, multiplicity = 1:

       Center              X                  Y                   Z               Mass
    ------------   -----------------  -----------------  -----------------  -----------------
      Gh(F)           0.000000000000     0.000000000000     0.000000000000    18.998403162730
         NA           0.000000000000     1.939580000000     0.000000000000    22.989769282000
      Gh(NA)          2.327496000000     0.000000000000     0.000000000000    22.989769282000

  Charge       = 1
  Multiplicity = 1
  Basis Set: AUG-CC-PVTZ
    Blend: AUG-CC-PVTZ
  Basis Set: (AUG-CC-PVTZ AUX)
    Blend: AUG-CC-PVTZ-JKFIT + DEF2-UNIVERSAL-JKFIT

    Orbital Energies [Eh]
    ---------------------

    Doubly Occupied:

       1A    -40.762425     2A     -3.074705     3A     -1.797977
       4A     -1.797949     5A     -1.797860

  @DF-RHF Final Energy:  -161.67605017833409

   => Energetics <=

    Nuclear Repulsion Energy =              0.0000000000000000
    One-Electron Energy =                -224.8902699512565277
    Two-Electron Energy =                  63.2142197729224478
    Total Energy =                       -161.6760501783340942
 Dipole X            :          0.0003486            0.0000000            0.0003486
 Dipole Y            :        -36.6533007           40.3180250            3.6647243
 Dipole Z            :         -0.0000000            0.0000000           -0.0000000
 Magnitude           :                                                    3.6647243
  Basis Set: (AUG-CC-PVTZ AUX)
    Blend: AUG-CC-PVTZ-RI + DEF2-QZVPP-RI
	 Reference Energy          =    -161.6760501783340942 [Eh]
	 Singles Energy            =      -0.0000000000000000 [Eh]
	 Same-Spin Energy          =      -0.0030617987031065 [Eh]
	 Opposite-Spin Energy      =      -0.0109596984607939 [Eh]
	 Correlation Energy        =      -0.0140214971639004 [Eh]
	 Total Energy              =    -161.6900716754979896 [Eh]

	 ================> DF-SCS-MP2 Energies <==================
	-----------------------------------------------------------
	 SCS Same-Spin Scale       =       0.3333333333333333 [-]
	 SCS Opposite-Spin Scale   =       1.2000000000000000 [-]
	 SCS Same-Spin Energy      =      -0.0010205995677022 [Eh]
	 SCS Opposite-Spin Energy  =      -0.0131516381529526 [Eh]
	 SCS Correlation Energy    =      -0.0141722377206548 [Eh]
	 SCS Total Energy          =    -161.6902224160547519 [Eh]
	-----------------------------------------------------------

*** Psi4 exiting successfully. Buy a developer a beer!
