                               Psi4 1.9 release

  ==> Input File <==

--------------------------------------------------------------------------
MEMORY 60 GB

molecule dimer {
0 1
F      0.000000     0.000000     0.000000
Na     0.000000     1.939580     0.000000
--
1 1
Na     2.327496     0.000000     0.000000

units ang
no_reorient
no_com
symmetry c1
}

set {
basis        aug-cc-pVTZ
scf_type     df
}

energy("mp2", bsse_type="cp")
--------------------------------------------------------------------------

                               Psi4 1.9 release
    Molecular point group: c1
  Charge       = 1
  Multiplicity = 1
  Basis Set: AUG-CC-PVTZ
    Blend: AUG-CC-PVTZ
  Basis Set: (AUG-CC-PVTZ AUX)
    Blend: AUG-CC-PVTZ-JKFIT + DEF2-UNIVERSAL-JKFIT
  @DF-RHF Final Energy:  -161.67604510341630
    Total Energy =                       -161.6760451034162998
 Dipole X            :        -43.9838695           48.3816300            4.3977605
 Dipole Y            :          0.0002550            0.0000000            0.0002550
 Dipole Z            :         -0.0000000            0.0000000           -0.0000000
 Magnitude           :                                                    4.3977605
  Basis Set: (AUG-CC-PVTZ AUX)
    Blend: AUG-CC-PVTZ-RI + DEF2-QZVPP-RI
	 Reference Energy          =    -161.6760451034162998 [Eh]
	 Singles Energy            =      -0.0000000000000000 [Eh]
	 Same-Spin Energy          =      -0.0025649619181113 [Eh]
	 Opposite-Spin Energy      =      -0.0096059365638640 [Eh]
	 Correlation Energy        =      -0.0121708984819753 [Eh]
	 Total Energy              =    -161.6882160018982688 [Eh]
	 SCS Total Energy          =    -161.6884272145989598 [Eh]
                               Psi4 1.9 release
    Molecular point group: c1
  Multiplicity = 1
  Basis Set: AUG-CC-PVTZ
    Blend: AUG-CC-PVTZ
  Basis Set: (AUG-CC-PVTZ AUX)
    Blend: AUG-CC-PVTZ-JKFIT + DEF2-UNIVERSAL-JKFIT
  @DF-RHF Final Energy:  -261.37066186163281
    Total Energy =                       -261.3706618616328115
  Basis Set: (AUG-CC-PVTZ AUX)
	 Singles Energy            =      -0.0000000000000000 [Eh]
	 Same-Spin Energy          =      -0.0830919709860974 [Eh]
	 Opposite-Spin Energy      =      -0.2344996634264542 [Eh]
	 Correlation Energy        =      -0.3175916344125516 [Eh]
	 Total Energy              =    -261.6882534960453768 [Eh]
	 SCS Total Energy          =    -261.6797587814065764 [Eh]
                               Psi4 1.9 release
    Molecular point group: c1

    Geometry (in Bohr), charge = 1, multiplicity = 1:

       Center              X                  Y                   Z               Mass
    ------------   -----------------  -----------------  -----------------  -----------------
         F            0.000000000000     0.000000000000     0.000000000000    18.998403162730
         NA           0.000000000000     3.665274998415     0.000000000000    22.989769282000
         NA           4.398329998099     0.000000000000     0.000000000000    22.989769282000

  Charge       = 1
  Multiplicity = 1
  Basis Set: AUG-CC-PVTZ
    Blend: AUG-CC-PVTZ
  Basis Set: (AUG-CC-PVTZ AUX)
    Blend: AUG-CC-PVTZ-JKFIT + DEF2-UNIVERSAL-JKFIT

    Orbital Energies [Eh]
    ---------------------

    Doubly Occupied:

       1A    -40.692080     2A    -40.639300     3A    -26.288125
       4A     -3.007463     5A     -2.963439     6A     -1.732308
       7A     -1.731096     8A     -1.728739     9A     -1.690949
      10A     -1.687639    11A     -1.686639    12A     -1.543097
      13A     -0.659596    14A     -0.653428    15A     -0.647717

  @DF-RHF Final Energy:  -423.09768434105985

   => Energetics <=

    Nuclear Repulsion Energy =             70.6529012069631790
    One-Electron Energy =                -732.7979395243195313
    Two-Electron Energy =                 239.0473539762965345
    Total Energy =                       -423.0976843410597894
 Dipole X            :        -44.3043256           48.3816300            4.0773044
 Dipole Y            :        -36.9602747           40.3180250            3.3577503
 Dipole Z            :          0.0000000            0.0000000            0.0000000
 Magnitude           :                                                    5.2819407
  Basis Set: (AUG-CC-PVTZ AUX)
    Blend: AUG-CC-PVTZ-RI + DEF2-QZVPP-RI
	 Reference Energy          =    -423.0976843410598462 [Eh]
	 Singles Energy            =      -0.0000000000000000 [Eh]
	 Same-Spin Energy          =      -0.0853815229670970 [Eh]
	 Opposite-Spin Energy      =      -0.2434981619775981 [Eh]
	 Correlation Energy        =      -0.3288796849446952 [Eh]
	 Total Energy              =    -423.4265640260045416 [Eh]

	 ================> DF-SCS-MP2 Energies <==================
	-----------------------------------------------------------
	 SCS Same-Spin Scale       =       0.3333333333333333 [-]
	 SCS Opposite-Spin Scale   =       1.2000000000000000 [-]
	 SCS Same-Spin Energy      =      -0.0284605076556990 [Eh]
	 SCS Opposite-Spin Energy  =      -0.2921977943731177 [Eh]
	 SCS Correlation Energy    =      -0.3206583020288167 [Eh]
	 SCS Total Energy          =    -423.4183426430886357 [Eh]
	-----------------------------------------------------------

*** Psi4 exiting successfully. Buy a developer a beer!
