                               Psi4 1.8.2 release

  ==> Input File <==

--------------------------------------------------------------------------
MEMORY 60 GB

molecule dimer {
1 1
Na         0.000000     0.000000     0.000000
Gh(F)      0.000000     1.939580     0.000000
Gh(F)      2.909370     0.000000     0.000000

units ang
no_reorient
no_com
symmetry c1
}

set {
basis        aug-cc-pVTZ
scf_type     df
}

energy("mp2")
--------------------------------------------------------------------------

    Molecular point group: c1

    Geometry (in Angstrom), charge = 1, multiplicity = 1:

       Center              X                  Y                   Z               Mass
    ------------   -----------------  -----------------  -----------------  -----------------
         NA           0.000000000000     0.000000000000     0.000000000000    22.989769282000
      Gh(F)           0.000000000000     1.939580000000     0.000000000000    18.998403162730
      Gh(F)           2.909370000000     0.000000000000     0.000000000000    18.998403162730

  Charge       = 1
  Multiplicity = 1
  Basis Set: AUG-CC-PVTZ
    Blend: AUG-CC-PVTZ
  Basis Set: (AUG-CC-PVTZ AUX)
    Blend: AUG-CC-PVTZ-JKFIT + DEF2-UNIVERSAL-JKFIT

    Orbital Energies [Eh]
    ---------------------

    Doubly Occupied:

       1A    -40.762750     2A     -3.074878     3A     -1.798158
       4A     -1.798089     5A     -1.798003

  @DF-RHF Final Energy:  -161.67604404028614

   => Energetics <=

    Nuclear Repulsion Energy =              0.0000000000000000
    One-Electron Energy =                -224.8883306232102939
    Two-Electron Energy =                  63.2122865829241505
    Total Energy =                       -161.6760440402861434
 Dipole X            :          0.0003754            0.0000000            0.0003754
 Dipole Y            :          0.0004038            0.0000000            0.0004038
 Dipole Z            :         -0.0000000            0.0000000           -0.0000000
 Magnitude           :                                                    0.0005513
  Basis Set: (AUG-CC-PVTZ AUX)
    Blend: AUG-CC-PVTZ-RI + DEF2-QZVPP-RI
	 Reference Energy          =    -161.6760440402861434 [Eh]
	 Singles Energy            =      -0.0000000000000000 [Eh]
	 Same-Spin Energy          =      -0.0028827045988979 [Eh]
	 Opposite-Spin Energy      =      -0.0105024350575514 [Eh]
	 Correlation Energy        =      -0.0133851396564493 [Eh]
	 Total Energy              =    -161.6894291799425787 [Eh]

	 ================> DF-SCS-MP2 Energies <==================
	-----------------------------------------------------------
	 SCS Same-Spin Scale       =       0.3333333333333333 [-]
	 SCS Opposite-Spin Scale   =       1.2000000000000000 [-]
	 SCS Same-Spin Energy      =      -0.0009609015329660 [Eh]
	 SCS Opposite-Spin Energy  =      -0.0126029220690617 [Eh]
	 SCS Correlation Energy    =      -0.0135638236020277 [Eh]
	 SCS Total Energy          =    -161.6896078638881704 [Eh]
	-----------------------------------------------------------

*** Psi4 exiting successfully. Buy a developer a beer!
