                               Psi4 1.8.2 release

  ==> Input File <==

--------------------------------------------------------------------------
MEMORY 60 GB

molecule dimer {
-1 1
Na         0.000000     0.000000     0.000000
F          0.000000     1.939580     0.000000
F          2.133538     0.000000     0.000000

units ang
no_reorient
no_com
symmetry c1
}

set {
basis        aug-cc-pVTZ
scf_type     df
}

energy("mp2")
--------------------------------------------------------------------------

    Molecular point group: c1

    Geometry (in Angstrom), charge = -1, multiplicity = 1:

       Center              X                  Y                   Z               Mass
    ------------   -----------------  -----------------  -----------------  -----------------
         NA           0.000000000000     0.000000000000     0.000000000000    22.989769282000
         F            0.000000000000     1.939580000000     0.000000000000    18.998403162730
         F            2.133538000000     0.000000000000     0.000000000000    18.998403162730

  Charge       = -1
  Multiplicity = 1
  Basis Set: AUG-CC-PVTZ
    Blend: AUG-CC-PVTZ
  Basis Set: (AUG-CC-PVTZ AUX)
    Blend: AUG-CC-PVTZ-JKFIT + DEF2-UNIVERSAL-JKFIT

    Orbital Energies [Eh]
    ---------------------

    Doubly Occupied:

       1A    -40.217407     2A    -25.887292     3A    -25.879228
       4A     -2.546048     5A     -1.274472     6A     -1.270643
       7A     -1.268899     8A     -1.139772     9A     -1.128407
      10A     -0.263101    11A     -0.250871    12A     -0.247455
      13A     -0.238386    14A     -0.232055    15A     -0.225289

  @DF-RHF Final Energy:  -360.86980669668299

   => Energetics <=

    Nuclear Repulsion Energy =             66.4306215547158132
    One-Electron Energy =                -650.4622050845547392
    Two-Electron Energy =                 223.1617768331559830
    Total Energy =                       -360.8698066966829856
 Dipole X            :        -39.9754458           36.2862225           -3.6892234
 Dipole Y            :        -36.3155056           32.9874750           -3.3280306
 Dipole Z            :          0.0000000            0.0000000            0.0000000
 Magnitude           :                                                    4.9685166
  Basis Set: (AUG-CC-PVTZ AUX)
    Blend: AUG-CC-PVTZ-RI + DEF2-QZVPP-RI
	 Reference Energy          =    -360.8698066966829856 [Eh]
	 Singles Energy            =      -0.0000000000000000 [Eh]
	 Same-Spin Energy          =      -0.1643641412164122 [Eh]
	 Opposite-Spin Energy      =      -0.4597932228649064 [Eh]
	 Correlation Energy        =      -0.6241573640813187 [Eh]
	 Total Energy              =    -361.4939640607643128 [Eh]

	 ================> DF-SCS-MP2 Energies <==================
	-----------------------------------------------------------
	 SCS Same-Spin Scale       =       0.3333333333333333 [-]
	 SCS Opposite-Spin Scale   =       1.2000000000000000 [-]
	 SCS Same-Spin Energy      =      -0.0547880470721374 [Eh]
	 SCS Opposite-Spin Energy  =      -0.5517518674378877 [Eh]
	 SCS Correlation Energy    =      -0.6065399145100252 [Eh]
	 SCS Total Energy          =    -361.4763466111930370 [Eh]
	-----------------------------------------------------------

*** Psi4 exiting successfully. Buy a developer a beer!
