                               Psi4 1.9 release

  ==> Input File <==

--------------------------------------------------------------------------
MEMORY 60 GB

molecule dimer {
0 1
Na     0.000000     0.000000     0.000000
F      0.000000     1.939580     0.000000
--
-1 1
F      1.939580     0.000000     0.000000

units ang
no_reorient
no_com
symmetry c1
}

set {
basis        aug-cc-pVTZ
scf_type     df
}

energy("mp2", bsse_type="cp")
--------------------------------------------------------------------------

                               Psi4 1.9 release
    Molecular point group: c1
  Charge       = -1
  Multiplicity = 1
  Basis Set: AUG-CC-PVTZ
    Blend: AUG-CC-PVTZ
  Basis Set: (AUG-CC-PVTZ AUX)
    Blend: AUG-CC-PVTZ-JKFIT + DEF2-UNIVERSAL-JKFIT
  @DF-RHF Final Energy:   -99.45086869741894
    Total Energy =                        -99.4508686974189402
 Dipole X            :        -36.6534901           32.9874750           -3.6660151
 Dipole Y            :         -0.0000180            0.0000000           -0.0000180
 Dipole Z            :         -0.0000000            0.0000000           -0.0000000
 Magnitude           :                                                    3.6660151
  Basis Set: (AUG-CC-PVTZ AUX)
    Blend: AUG-CC-PVTZ-RI + DEF2-QZVPP-RI
	 Reference Energy          =     -99.4508686974189402 [Eh]
	 Singles Energy            =      -0.0000000000000000 [Eh]
	 Same-Spin Energy          =      -0.0817238785817903 [Eh]
	 Opposite-Spin Energy      =      -0.2273275401399319 [Eh]
	 Correlation Energy        =      -0.3090514187217221 [Eh]
	 Total Energy              =     -99.7599201161406626 [Eh]
	 SCS Total Energy          =     -99.7509030384474613 [Eh]
                               Psi4 1.9 release
    Molecular point group: c1
  Multiplicity = 1
  Basis Set: AUG-CC-PVTZ
    Blend: AUG-CC-PVTZ
  Basis Set: (AUG-CC-PVTZ AUX)
    Blend: AUG-CC-PVTZ-JKFIT + DEF2-UNIVERSAL-JKFIT
  @DF-RHF Final Energy:  -261.37057626795416
    Total Energy =                       -261.3705762679541635
  Basis Set: (AUG-CC-PVTZ AUX)
	 Singles Energy            =      -0.0000000000000000 [Eh]
	 Same-Spin Energy          =      -0.0835066040294382 [Eh]
	 Opposite-Spin Energy      =      -0.2354474235186184 [Eh]
	 Correlation Energy        =      -0.3189540275480566 [Eh]
	 Total Energy              =    -261.6895302955022089 [Eh]
	 SCS Total Energy          =    -261.6809487108529879 [Eh]
                               Psi4 1.9 release
    Molecular point group: c1

    Geometry (in Bohr), charge = -1, multiplicity = 1:

       Center              X                  Y                   Z               Mass
    ------------   -----------------  -----------------  -----------------  -----------------
         NA           0.000000000000     0.000000000000     0.000000000000    22.989769282000
         F            0.000000000000     3.665274998415     0.000000000000    18.998403162730
         F            3.665274998415     0.000000000000     0.000000000000    18.998403162730

  Charge       = -1
  Multiplicity = 1
  Basis Set: AUG-CC-PVTZ
    Blend: AUG-CC-PVTZ
  Basis Set: (AUG-CC-PVTZ AUX)
    Blend: AUG-CC-PVTZ-JKFIT + DEF2-UNIVERSAL-JKFIT

    Orbital Energies [Eh]
    ---------------------

    Doubly Occupied:

       1A    -40.191588     2A    -25.879785     3A    -25.879780
       4A     -2.525261     5A     -1.254383     6A     -1.253898
       7A     -1.249537     8A     -1.133803     9A     -1.128822
      10A     -0.263042    11A     -0.247091    12A     -0.243787
      13A     -0.243628    14A     -0.234608    15A     -0.222965

  @DF-RHF Final Energy:  -360.86691021310912

   => Energetics <=

    Nuclear Repulsion Energy =             69.6470658781309737
    One-Electron Energy =                -657.1240005564627609
    Two-Electron Energy =                 226.6100244652226365
    Total Energy =                       -360.8669102131091222
 Dipole X            :        -36.3186893           32.9874750           -3.3312143
 Dipole Y            :        -36.3186893           32.9874750           -3.3312143
 Dipole Z            :          0.0000000            0.0000000            0.0000000
 Magnitude           :                                                    4.7110485
  Basis Set: (AUG-CC-PVTZ AUX)
    Blend: AUG-CC-PVTZ-RI + DEF2-QZVPP-RI
	 Reference Energy          =    -360.8669102131091222 [Eh]
	 Singles Energy            =      -0.0000000000000000 [Eh]
	 Same-Spin Energy          =      -0.1644396534225484 [Eh]
	 Opposite-Spin Energy      =      -0.4598742954283359 [Eh]
	 Correlation Energy        =      -0.6243139488508842 [Eh]
	 Total Energy              =    -361.4912241619600195 [Eh]

	 ================> DF-SCS-MP2 Energies <==================
	-----------------------------------------------------------
	 SCS Same-Spin Scale       =       0.3333333333333333 [-]
	 SCS Opposite-Spin Scale   =       1.2000000000000000 [-]
	 SCS Same-Spin Energy      =      -0.0548132178075161 [Eh]
	 SCS Opposite-Spin Energy  =      -0.5518491545140030 [Eh]
	 SCS Correlation Energy    =      -0.6066623723215191 [Eh]
	 SCS Total Energy          =    -361.4735725854306452 [Eh]
	-----------------------------------------------------------

*** Psi4 exiting successfully. Buy a developer a beer!
