                               Psi4 1.8.2 release

  ==> Input File <==

--------------------------------------------------------------------------
MEMORY 60 GB

molecule dimer {
-1 1
Na         0.000000     0.000000     0.000000
F          0.000000     1.939580     0.000000
F          2.327496     0.000000     0.000000

units ang
no_reorient
no_com
symmetry c1
}

set {
basis        aug-cc-pVTZ
scf_type     df
}

energy("mp2")
--------------------------------------------------------------------------

    Molecular point group: c1

    Geometry (in Angstrom), charge = -1, multiplicity = 1:

       Center              X                  Y                   Z               Mass
    ------------   -----------------  -----------------  -----------------  -----------------
         NA           0.000000000000     0.000000000000     0.000000000000    22.989769282000
         F            0.000000000000     1.939580000000     0.000000000000    18.998403162730
         F            2.327496000000     0.000000000000     0.000000000000    18.998403162730

  Charge       = -1
  Multiplicity = 1
  Basis Set: AUG-CC-PVTZ
    Blend: AUG-CC-PVTZ
  Basis Set: (AUG-CC-PVTZ AUX)
    Blend: AUG-CC-PVTZ-JKFIT + DEF2-UNIVERSAL-JKFIT

    Orbital Energies [Eh]
    ---------------------

    Doubly Occupied:

       1A    -40.238209     2A    -25.894814     3A    -25.876551
       4A     -2.564501     5A     -1.292412     6A     -1.289132
       7A     -1.285924     8A     -1.147513     9A     -1.123091
      10A     -0.267554    11A     -0.255883    12A     -0.254282
      13A     -0.231284    14A     -0.226812    15A     -0.223819

  @DF-RHF Final Energy:  -360.86655874163529

   => Energetics <=

    Nuclear Repulsion Energy =             63.6664197021240383
    One-Electron Energy =                -644.7223967868309273
    Two-Electron Energy =                 220.1894183430716225
    Total Energy =                       -360.8665587416352878
 Dipole X            :        -43.6450256           39.5849700           -4.0600557
 Dipole Y            :        -36.3134669           32.9874750           -3.3259920
 Dipole Z            :          0.0000000            0.0000000            0.0000000
 Magnitude           :                                                    5.2484545
  Basis Set: (AUG-CC-PVTZ AUX)
    Blend: AUG-CC-PVTZ-RI + DEF2-QZVPP-RI
	 Reference Energy          =    -360.8665587416352878 [Eh]
	 Singles Energy            =      -0.0000000000000000 [Eh]
	 Same-Spin Energy          =      -0.1645427643807701 [Eh]
	 Opposite-Spin Energy      =      -0.4602675801516417 [Eh]
	 Correlation Energy        =      -0.6248103445324118 [Eh]
	 Total Energy              =    -361.4913690861677082 [Eh]

	 ================> DF-SCS-MP2 Energies <==================
	-----------------------------------------------------------
	 SCS Same-Spin Scale       =       0.3333333333333333 [-]
	 SCS Opposite-Spin Scale   =       1.2000000000000000 [-]
	 SCS Same-Spin Energy      =      -0.0548475881269234 [Eh]
	 SCS Opposite-Spin Energy  =      -0.5523210961819700 [Eh]
	 SCS Correlation Energy    =      -0.6071686843088934 [Eh]
	 SCS Total Energy          =    -361.4737274259441620 [Eh]
	-----------------------------------------------------------

*** Psi4 exiting successfully. Buy a developer a beer!
