                               Psi4 1.8.2 release

  ==> Input File <==

--------------------------------------------------------------------------
MEMORY 60 GB

molecule dimer {
1 1
Na     0.000000     0.000000     0.000000
--
-1 1
F      0.000000     1.939580     0.000000
--
-1 1
F      2.715412     0.000000     0.000000

units ang
no_reorient
no_com
symmetry c1
}

set {
basis        aug-cc-pVTZ
scf_type     df
}

energy("mp2", bsse_type="cp")
--------------------------------------------------------------------------

                               Psi4 1.8.2 release
    Molecular point group: c1
  Charge       = 1
  Multiplicity = 1
  Basis Set: AUG-CC-PVTZ
    Blend: AUG-CC-PVTZ
  Basis Set: (AUG-CC-PVTZ AUX)
    Blend: AUG-CC-PVTZ-JKFIT + DEF2-UNIVERSAL-JKFIT
  @DF-RHF Final Energy:  -161.67604462487895
    Total Energy =                       -161.6760446248789833
 Dipole X            :          0.0003784            0.0000000            0.0003784
 Dipole Y            :          0.0004008            0.0000000            0.0004008
 Dipole Z            :          0.0000000            0.0000000            0.0000000
 Magnitude           :                                                    0.0005512
  Basis Set: (AUG-CC-PVTZ AUX)
    Blend: AUG-CC-PVTZ-RI + DEF2-QZVPP-RI
	 Reference Energy          =    -161.6760446248789549 [Eh]
	 Singles Energy            =      -0.0000000000000000 [Eh]
	 Same-Spin Energy          =      -0.0029636084516343 [Eh]
	 Opposite-Spin Energy      =      -0.0107178224107611 [Eh]
	 Correlation Energy        =      -0.0136814308623954 [Eh]
	 Total Energy              =    -161.6897260557413460 [Eh]
	 SCS Total Energy          =    -161.6898938812557560 [Eh]
                               Psi4 1.8.2 release
    Molecular point group: c1
  Basis Set: AUG-CC-PVTZ
    Blend: AUG-CC-PVTZ
  Basis Set: (AUG-CC-PVTZ AUX)
    Blend: AUG-CC-PVTZ-JKFIT + DEF2-UNIVERSAL-JKFIT
  @DF-RHF Final Energy:   -99.45086443929613
    Total Energy =                        -99.4508644392961259
  Basis Set: (AUG-CC-PVTZ AUX)
                               Psi4 1.8.2 release
  @DF-RHF Final Energy:  -198.74899633555671
    Total Energy =                       -198.7489963355567397
                               Psi4 1.8.2 release
  @DF-RHF Final Energy:  -261.32551337218609
    Total Energy =                       -261.3255133721860943
                               Psi4 1.8.2 release
  @DF-RHF Final Energy:  -261.37054473191364
    Total Energy =                       -261.3705447319136397
                               Psi4 1.8.2 release
  Multiplicity = 1
  @DF-RHF Final Energy:   -99.45083986772231
    Total Energy =                        -99.4508398677223084
	 Singles Energy            =      -0.0000000000000000 [Eh]
	 Same-Spin Energy          =      -0.0816471696654397 [Eh]
	 Opposite-Spin Energy      =      -0.2267691091110252 [Eh]
	 Correlation Energy        =      -0.3084162787764649 [Eh]
	 Total Energy              =     -99.7592561464987710 [Eh]
	 SCS Total Energy          =     -99.7501785218773449 [Eh]
                               Psi4 1.8.2 release
    Molecular point group: c1

    Geometry (in Bohr), charge = -1, multiplicity = 1:

       Center              X                  Y                   Z               Mass
    ------------   -----------------  -----------------  -----------------  -----------------
         NA           0.000000000000     0.000000000000     0.000000000000    22.989769282000
         F            0.000000000000     3.665274998415     0.000000000000    18.998403162730
         F            5.131384997782     0.000000000000     0.000000000000    18.998403162730

  Charge       = -1
  Multiplicity = 1
  Basis Set: AUG-CC-PVTZ
    Blend: AUG-CC-PVTZ
  Basis Set: (AUG-CC-PVTZ AUX)
    Blend: AUG-CC-PVTZ-JKFIT + DEF2-UNIVERSAL-JKFIT

    Orbital Energies [Eh]
    ---------------------

    Doubly Occupied:

       1A    -40.270622     2A    -25.909366     3A    -25.868662
       4A     -2.595291     5A     -1.322321     6A     -1.319732
       7A     -1.316853     8A     -1.162609     9A     -1.111960
      10A     -0.280767    11A     -0.268513    12A     -0.268273
      13A     -0.218098    14A     -0.216508    15A     -0.215732

  @DF-RHF Final Energy:  -360.85598319867700

   => Energetics <=

    Nuclear Repulsion Energy =             59.1482438559871326
    One-Electron Energy =                -635.3178388528033338
    Two-Electron Energy =                 215.3136117981391067
    Total Energy =                       -360.8559831986770519
 Dipole X            :        -51.0090020           46.1824650           -4.8265370
 Dipole Y            :        -36.3130919           32.9874750           -3.3256170
 Dipole Z            :          0.0000000            0.0000000            0.0000000
 Magnitude           :                                                    5.8613298
  Basis Set: (AUG-CC-PVTZ AUX)
    Blend: AUG-CC-PVTZ-RI + DEF2-QZVPP-RI
	 Reference Energy          =    -360.8559831986769950 [Eh]
	 Singles Energy            =      -0.0000000000000000 [Eh]
	 Same-Spin Energy          =      -0.1647300978909555 [Eh]
	 Opposite-Spin Energy      =      -0.4606902829734776 [Eh]
	 Correlation Energy        =      -0.6254203808644332 [Eh]
	 Total Energy              =    -361.4814035795414497 [Eh]

	 ================> DF-SCS-MP2 Energies <==================
	-----------------------------------------------------------
	 SCS Same-Spin Scale       =       0.3333333333333333 [-]
	 SCS Opposite-Spin Scale   =       1.2000000000000000 [-]
	 SCS Same-Spin Energy      =      -0.0549100326303185 [Eh]
	 SCS Opposite-Spin Energy  =      -0.5528283395681731 [Eh]
	 SCS Correlation Energy    =      -0.6077383721984916 [Eh]
	 SCS Total Energy          =    -361.4637215708754638 [Eh]
	-----------------------------------------------------------

*** Psi4 exiting successfully. Buy a developer a beer!
