                               Psi4 1.8.2 release

  ==> Input File <==

--------------------------------------------------------------------------
MEMORY 60 GB

molecule dimer {
-1 1
Gh(Na)     0.000000     0.000000     0.000000
Gh(F)      0.000000     1.939580     0.000000
F          2.909370     0.000000     0.000000

units ang
no_reorient
no_com
symmetry c1
}

set {
basis        aug-cc-pVTZ
scf_type     df
}

energy("mp2")
--------------------------------------------------------------------------

    Molecular point group: c1

    Geometry (in Angstrom), charge = -1, multiplicity = 1:

       Center              X                  Y                   Z               Mass
    ------------   -----------------  -----------------  -----------------  -----------------
      Gh(NA)          0.000000000000     0.000000000000     0.000000000000    22.989769282000
      Gh(F)           0.000000000000     1.939580000000     0.000000000000    18.998403162730
         F            2.909370000000     0.000000000000     0.000000000000    18.998403162730

  Charge       = -1
  Multiplicity = 1
  Basis Set: AUG-CC-PVTZ
    Blend: AUG-CC-PVTZ
  Basis Set: (AUG-CC-PVTZ AUX)
    Blend: AUG-CC-PVTZ-JKFIT + DEF2-UNIVERSAL-JKFIT

    Orbital Energies [Eh]
    ---------------------

    Doubly Occupied:

       1A    -25.833874     2A     -1.076107     3A     -0.181046
       4A     -0.181026     5A     -0.181025

  @DF-RHF Final Energy:   -99.45083192736898

   => Energetics <=

    Nuclear Repulsion Energy =              0.0000000000000000
    One-Electron Energy =                -143.9955082470426646
    Two-Electron Energy =                  44.5446763196736768
    Total Energy =                        -99.4508319273689949
 Dipole X            :        -54.9788533           49.4812125           -5.4976408
 Dipole Y            :         -0.0001444            0.0000000           -0.0001444
 Dipole Z            :          0.0000000            0.0000000            0.0000000
 Magnitude           :                                                    5.4976408
  Basis Set: (AUG-CC-PVTZ AUX)
    Blend: AUG-CC-PVTZ-RI + DEF2-QZVPP-RI
	 Reference Energy          =     -99.4508319273689807 [Eh]
	 Singles Energy            =      -0.0000000000000000 [Eh]
	 Same-Spin Energy          =      -0.0816325031211104 [Eh]
	 Opposite-Spin Energy      =      -0.2266802276434968 [Eh]
	 Correlation Energy        =      -0.3083127307646072 [Eh]
	 Total Energy              =     -99.7591446581335930 [Eh]

	 ================> DF-SCS-MP2 Energies <==================
	-----------------------------------------------------------
	 SCS Same-Spin Scale       =       0.3333333333333333 [-]
	 SCS Opposite-Spin Scale   =       1.2000000000000000 [-]
	 SCS Same-Spin Energy      =      -0.0272108343737035 [Eh]
	 SCS Opposite-Spin Energy  =      -0.2720162731721962 [Eh]
	 SCS Correlation Energy    =      -0.2992271075458997 [Eh]
	 SCS Total Energy          =     -99.7500590349148837 [Eh]
	-----------------------------------------------------------

*** Psi4 exiting successfully. Buy a developer a beer!
