                               Psi4 1.8.2 release

  ==> Input File <==

--------------------------------------------------------------------------
MEMORY 60 GB

molecule dimer {
1 1
Na     0.000000     0.000000     0.000000
--
-1 1
F      0.000000     1.939580     0.000000
--
-1 1
F      1.939580     0.000000     0.000000

units ang
no_reorient
no_com
symmetry c1
}

set {
basis        aug-cc-pVTZ
scf_type     df
}

energy("mp2", bsse_type="cp")
--------------------------------------------------------------------------

                               Psi4 1.8.2 release
    Molecular point group: c1
  Charge       = 1
  Multiplicity = 1
  Basis Set: AUG-CC-PVTZ
    Blend: AUG-CC-PVTZ
  Basis Set: (AUG-CC-PVTZ AUX)
    Blend: AUG-CC-PVTZ-JKFIT + DEF2-UNIVERSAL-JKFIT
  @DF-RHF Final Energy:  -161.67605230413679
    Total Energy =                       -161.6760523041367605
 Dipole X            :          0.0004005            0.0000000            0.0004005
 Dipole Y            :          0.0004005            0.0000000            0.0004005
 Dipole Z            :          0.0000000            0.0000000            0.0000000
 Magnitude           :                                                    0.0005664
  Basis Set: (AUG-CC-PVTZ AUX)
    Blend: AUG-CC-PVTZ-RI + DEF2-QZVPP-RI
	 Reference Energy          =    -161.6760523041367890 [Eh]
	 Singles Energy            =      -0.0000000000000000 [Eh]
	 Same-Spin Energy          =      -0.0035138934507297 [Eh]
	 Opposite-Spin Energy      =      -0.0121894274596148 [Eh]
	 Correlation Energy        =      -0.0157033209103445 [Eh]
	 Total Energy              =    -161.6917556250471364 [Eh]
	 SCS Total Energy          =    -161.6918509149052454 [Eh]
                               Psi4 1.8.2 release
    Molecular point group: c1
  Basis Set: AUG-CC-PVTZ
    Blend: AUG-CC-PVTZ
  Basis Set: (AUG-CC-PVTZ AUX)
    Blend: AUG-CC-PVTZ-JKFIT + DEF2-UNIVERSAL-JKFIT
  @DF-RHF Final Energy:   -99.45086869741235
    Total Energy =                        -99.4508686974123464
  Basis Set: (AUG-CC-PVTZ AUX)
                               Psi4 1.8.2 release
  @DF-RHF Final Energy:  -198.71922988855064
    Total Energy =                       -198.7192298885506148
                               Psi4 1.8.2 release
  @DF-RHF Final Energy:  -261.37057626789885
    Total Energy =                       -261.3705762678988549
                               Psi4 1.8.2 release
  @DF-RHF Final Energy:  -261.37057626789732
    Total Energy =                       -261.3705762678973770
                               Psi4 1.8.2 release
  Multiplicity = 1
  @DF-RHF Final Energy:   -99.45086869741182
    Total Energy =                        -99.4508686974118206
	 Singles Energy            =      -0.0000000000000000 [Eh]
	 Same-Spin Energy          =      -0.0817238785817802 [Eh]
	 Opposite-Spin Energy      =      -0.2273275401399239 [Eh]
	 Correlation Energy        =      -0.3090514187217041 [Eh]
	 Total Energy              =     -99.7599201161335287 [Eh]
	 SCS Total Energy          =     -99.7509030384403275 [Eh]
                               Psi4 1.8.2 release
    Molecular point group: c1

    Geometry (in Bohr), charge = -1, multiplicity = 1:

       Center              X                  Y                   Z               Mass
    ------------   -----------------  -----------------  -----------------  -----------------
         NA           0.000000000000     0.000000000000     0.000000000000    22.989769282000
         F            0.000000000000     3.665274998415     0.000000000000    18.998403162730
         F            3.665274998415     0.000000000000     0.000000000000    18.998403162730

  Charge       = -1
  Multiplicity = 1
  Basis Set: AUG-CC-PVTZ
    Blend: AUG-CC-PVTZ
  Basis Set: (AUG-CC-PVTZ AUX)
    Blend: AUG-CC-PVTZ-JKFIT + DEF2-UNIVERSAL-JKFIT

    Orbital Energies [Eh]
    ---------------------

    Doubly Occupied:

       1A    -40.191588     2A    -25.879785     3A    -25.879780
       4A     -2.525261     5A     -1.254383     6A     -1.253898
       7A     -1.249537     8A     -1.133803     9A     -1.128822
      10A     -0.263042    11A     -0.247091    12A     -0.243787
      13A     -0.243628    14A     -0.234608    15A     -0.222965

  @DF-RHF Final Energy:  -360.86691021300913

   => Energetics <=

    Nuclear Repulsion Energy =             69.6470658781309737
    One-Electron Energy =                -657.1240005564338844
    Two-Electron Energy =                 226.6100244652937477
    Total Energy =                       -360.8669102130091346
 Dipole X            :        -36.3186893           32.9874750           -3.3312143
 Dipole Y            :        -36.3186893           32.9874750           -3.3312143
 Dipole Z            :          0.0000000            0.0000000            0.0000000
 Magnitude           :                                                    4.7110485
  Basis Set: (AUG-CC-PVTZ AUX)
    Blend: AUG-CC-PVTZ-RI + DEF2-QZVPP-RI
	 Reference Energy          =    -360.8669102130091346 [Eh]
	 Singles Energy            =      -0.0000000000000000 [Eh]
	 Same-Spin Energy          =      -0.1644396534225652 [Eh]
	 Opposite-Spin Energy      =      -0.4598742954283506 [Eh]
	 Correlation Energy        =      -0.6243139488509158 [Eh]
	 Total Energy              =    -361.4912241618600319 [Eh]

	 ================> DF-SCS-MP2 Energies <==================
	-----------------------------------------------------------
	 SCS Same-Spin Scale       =       0.3333333333333333 [-]
	 SCS Opposite-Spin Scale   =       1.2000000000000000 [-]
	 SCS Same-Spin Energy      =      -0.0548132178075217 [Eh]
	 SCS Opposite-Spin Energy  =      -0.5518491545140207 [Eh]
	 SCS Correlation Energy    =      -0.6066623723215424 [Eh]
	 SCS Total Energy          =    -361.4735725853306576 [Eh]
	-----------------------------------------------------------

*** Psi4 exiting successfully. Buy a developer a beer!
