                               Psi4 1.9 release

  ==> Input File <==

--------------------------------------------------------------------------
MEMORY 60 GB

molecule dimer {
0 1
Na     0.000000     0.000000     0.000000
F      0.000000     1.939580     0.000000
--
-1 1
F      2.327496     0.000000     0.000000

units ang
no_reorient
no_com
symmetry c1
}

set {
basis        aug-cc-pVTZ
scf_type     df
}

energy("mp2", bsse_type="cp")
--------------------------------------------------------------------------

                               Psi4 1.9 release
    Molecular point group: c1
  Charge       = -1
  Multiplicity = 1
  Basis Set: AUG-CC-PVTZ
    Blend: AUG-CC-PVTZ
  Basis Set: (AUG-CC-PVTZ AUX)
    Blend: AUG-CC-PVTZ-JKFIT + DEF2-UNIVERSAL-JKFIT
  @DF-RHF Final Energy:   -99.45086630899507
    Total Energy =                        -99.4508663089950744
 Dipole X            :        -43.9843137           39.5849700           -4.3993437
 Dipole Y            :         -0.0001751            0.0000000           -0.0001751
 Dipole Z            :         -0.0000000            0.0000000           -0.0000000
 Magnitude           :                                                    4.3993437
  Basis Set: (AUG-CC-PVTZ AUX)
    Blend: AUG-CC-PVTZ-RI + DEF2-QZVPP-RI
	 Reference Energy          =     -99.4508663089950744 [Eh]
	 Singles Energy            =      -0.0000000000000000 [Eh]
	 Same-Spin Energy          =      -0.0816875119282219 [Eh]
	 Opposite-Spin Energy      =      -0.2270378870593971 [Eh]
	 Correlation Energy        =      -0.3087253989876190 [Eh]
	 Total Energy              =     -99.7595917079826933 [Eh]
	 SCS Total Energy          =     -99.7505409441090904 [Eh]
                               Psi4 1.9 release
    Molecular point group: c1
  Multiplicity = 1
  Basis Set: AUG-CC-PVTZ
    Blend: AUG-CC-PVTZ
  Basis Set: (AUG-CC-PVTZ AUX)
    Blend: AUG-CC-PVTZ-JKFIT + DEF2-UNIVERSAL-JKFIT
  @DF-RHF Final Energy:  -261.37056147070695
    Total Energy =                       -261.3705614707068889
  Basis Set: (AUG-CC-PVTZ AUX)
	 Singles Energy            =      -0.0000000000000000 [Eh]
	 Same-Spin Energy          =      -0.0829955246926546 [Eh]
	 Opposite-Spin Energy      =      -0.2340580423728995 [Eh]
	 Correlation Energy        =      -0.3170535670655542 [Eh]
	 Total Energy              =    -261.6876150377725025 [Eh]
	 SCS Total Energy          =    -261.6790962964519736 [Eh]
                               Psi4 1.9 release
    Molecular point group: c1

    Geometry (in Bohr), charge = -1, multiplicity = 1:

       Center              X                  Y                   Z               Mass
    ------------   -----------------  -----------------  -----------------  -----------------
         NA           0.000000000000     0.000000000000     0.000000000000    22.989769282000
         F            0.000000000000     3.665274998415     0.000000000000    18.998403162730
         F            4.398329998099     0.000000000000     0.000000000000    18.998403162730

  Charge       = -1
  Multiplicity = 1
  Basis Set: AUG-CC-PVTZ
    Blend: AUG-CC-PVTZ
  Basis Set: (AUG-CC-PVTZ AUX)
    Blend: AUG-CC-PVTZ-JKFIT + DEF2-UNIVERSAL-JKFIT

    Orbital Energies [Eh]
    ---------------------

    Doubly Occupied:

       1A    -40.238209     2A    -25.894814     3A    -25.876551
       4A     -2.564501     5A     -1.292412     6A     -1.289132
       7A     -1.285924     8A     -1.147513     9A     -1.123091
      10A     -0.267554    11A     -0.255883    12A     -0.254282
      13A     -0.231284    14A     -0.226812    15A     -0.223819

  @DF-RHF Final Energy:  -360.86655874161829

   => Energetics <=

    Nuclear Repulsion Energy =             63.6664197021240383
    One-Electron Energy =                -644.7223967868186492
    Two-Electron Energy =                 220.1894183430763121
    Total Energy =                       -360.8665587416182916
 Dipole X            :        -43.6450256           39.5849700           -4.0600557
 Dipole Y            :        -36.3134669           32.9874750           -3.3259920
 Dipole Z            :          0.0000000            0.0000000            0.0000000
 Magnitude           :                                                    5.2484545
  Basis Set: (AUG-CC-PVTZ AUX)
    Blend: AUG-CC-PVTZ-RI + DEF2-QZVPP-RI
	 Reference Energy          =    -360.8665587416182916 [Eh]
	 Singles Energy            =      -0.0000000000000000 [Eh]
	 Same-Spin Energy          =      -0.1645427643808363 [Eh]
	 Opposite-Spin Energy      =      -0.4602675801517795 [Eh]
	 Correlation Energy        =      -0.6248103445326159 [Eh]
	 Total Energy              =    -361.4913690861508826 [Eh]

	 ================> DF-SCS-MP2 Energies <==================
	-----------------------------------------------------------
	 SCS Same-Spin Scale       =       0.3333333333333333 [-]
	 SCS Opposite-Spin Scale   =       1.2000000000000000 [-]
	 SCS Same-Spin Energy      =      -0.0548475881269454 [Eh]
	 SCS Opposite-Spin Energy  =      -0.5523210961821353 [Eh]
	 SCS Correlation Energy    =      -0.6071686843090808 [Eh]
	 SCS Total Energy          =    -361.4737274259273931 [Eh]
	-----------------------------------------------------------

*** Psi4 exiting successfully. Buy a developer a beer!
