                               Psi4 1.8.2 release

  ==> Input File <==

--------------------------------------------------------------------------
MEMORY 60 GB

molecule dimer {
-1 1
Gh(Na)     0.000000     0.000000     0.000000
Gh(F)      0.000000     1.939580     0.000000
F          3.879160     0.000000     0.000000

units ang
no_reorient
no_com
symmetry c1
}

set {
basis        aug-cc-pVTZ
scf_type     df
}

energy("mp2")
--------------------------------------------------------------------------

    Molecular point group: c1

    Geometry (in Angstrom), charge = -1, multiplicity = 1:

       Center              X                  Y                   Z               Mass
    ------------   -----------------  -----------------  -----------------  -----------------
      Gh(NA)          0.000000000000     0.000000000000     0.000000000000    22.989769282000
      Gh(F)           0.000000000000     1.939580000000     0.000000000000    18.998403162730
         F            3.879160000000     0.000000000000     0.000000000000    18.998403162730

  Charge       = -1
  Multiplicity = 1
  Basis Set: AUG-CC-PVTZ
    Blend: AUG-CC-PVTZ
  Basis Set: (AUG-CC-PVTZ AUX)
    Blend: AUG-CC-PVTZ-JKFIT + DEF2-UNIVERSAL-JKFIT

    Orbital Energies [Eh]
    ---------------------

    Doubly Occupied:

       1A    -25.833853     2A     -1.076108     3A     -0.181036
       4A     -0.181029     5A     -0.181028

  @DF-RHF Final Energy:   -99.45082264035194

   => Energetics <=

    Nuclear Repulsion Energy =              0.0000000000000000
    One-Electron Energy =                -143.9955369800877065
    Two-Electron Energy =                  44.5447143397357692
    Total Energy =                        -99.4508226403519302
 Dipole X            :        -73.3053843           65.9749500           -7.3304343
 Dipole Y            :          0.0000109            0.0000000            0.0000109
 Dipole Z            :          0.0000000            0.0000000            0.0000000
 Magnitude           :                                                    7.3304343
  Basis Set: (AUG-CC-PVTZ AUX)
    Blend: AUG-CC-PVTZ-RI + DEF2-QZVPP-RI
	 Reference Energy          =     -99.4508226403519444 [Eh]
	 Singles Energy            =      -0.0000000000000000 [Eh]
	 Same-Spin Energy          =      -0.0815948432548215 [Eh]
	 Opposite-Spin Energy      =      -0.2264452915099054 [Eh]
	 Correlation Energy        =      -0.3080401347647269 [Eh]
	 Total Energy              =     -99.7588627751166683 [Eh]

	 ================> DF-SCS-MP2 Energies <==================
	-----------------------------------------------------------
	 SCS Same-Spin Scale       =       0.3333333333333333 [-]
	 SCS Opposite-Spin Scale   =       1.2000000000000000 [-]
	 SCS Same-Spin Energy      =      -0.0271982810849405 [Eh]
	 SCS Opposite-Spin Energy  =      -0.2717343498118864 [Eh]
	 SCS Correlation Energy    =      -0.2989326308968269 [Eh]
	 SCS Total Energy          =     -99.7497552712487732 [Eh]
	-----------------------------------------------------------

*** Psi4 exiting successfully. Buy a developer a beer!
