                               Psi4 1.8.2 release

  ==> Input File <==

--------------------------------------------------------------------------
MEMORY 60 GB

molecule dimer {
1 1
Na     0.000000     0.000000     0.000000
--
-1 1
F      0.000000     1.939580     0.000000
--
-1 1
F      2.133538     0.000000     0.000000

units ang
no_reorient
no_com
symmetry c1
}

set {
basis        aug-cc-pVTZ
scf_type     df
}

energy("mp2", bsse_type="cp")
--------------------------------------------------------------------------

                               Psi4 1.8.2 release
    Molecular point group: c1
  Charge       = 1
  Multiplicity = 1
  Basis Set: AUG-CC-PVTZ
    Blend: AUG-CC-PVTZ
  Basis Set: (AUG-CC-PVTZ AUX)
    Blend: AUG-CC-PVTZ-JKFIT + DEF2-UNIVERSAL-JKFIT
  @DF-RHF Final Energy:  -161.67604981051593
    Total Energy =                       -161.6760498105159627
 Dipole X            :          0.0004025            0.0000000            0.0004025
 Dipole Y            :          0.0004043            0.0000000            0.0004043
 Dipole Z            :         -0.0000000            0.0000000           -0.0000000
 Magnitude           :                                                    0.0005705
  Basis Set: (AUG-CC-PVTZ AUX)
    Blend: AUG-CC-PVTZ-RI + DEF2-QZVPP-RI
	 Reference Energy          =    -161.6760498105159343 [Eh]
	 Singles Energy            =      -0.0000000000000000 [Eh]
	 Same-Spin Energy          =      -0.0030890722142513 [Eh]
	 Opposite-Spin Energy      =      -0.0110392258586305 [Eh]
	 Correlation Energy        =      -0.0141282980728819 [Eh]
	 Total Energy              =    -161.6901781085888103 [Eh]
	 SCS Total Energy          =    -161.6903265722843628 [Eh]
                               Psi4 1.8.2 release
    Molecular point group: c1
  Basis Set: AUG-CC-PVTZ
    Blend: AUG-CC-PVTZ
  Basis Set: (AUG-CC-PVTZ AUX)
    Blend: AUG-CC-PVTZ-JKFIT + DEF2-UNIVERSAL-JKFIT
  @DF-RHF Final Energy:   -99.45086844477758
    Total Energy =                        -99.4508684447775835
  Basis Set: (AUG-CC-PVTZ AUX)
                               Psi4 1.8.2 release
  @DF-RHF Final Energy:  -198.72742834988966
    Total Energy =                       -198.7274283498896637
                               Psi4 1.8.2 release
  @DF-RHF Final Energy:  -261.36454726129972
    Total Energy =                       -261.3645472612997196
                               Psi4 1.8.2 release
  @DF-RHF Final Energy:  -261.37056492177766
    Total Energy =                       -261.3705649217775999
                               Psi4 1.8.2 release
  Multiplicity = 1
  @DF-RHF Final Energy:   -99.45087107920189
    Total Energy =                        -99.4508710792019031
	 Singles Energy            =      -0.0000000000000000 [Eh]
	 Same-Spin Energy          =      -0.0817085624728615 [Eh]
	 Opposite-Spin Energy      =      -0.2272032506424325 [Eh]
	 Correlation Energy        =      -0.3089118131152939 [Eh]
	 Total Energy              =     -99.7597828923171761 [Eh]
	 SCS Total Energy          =     -99.7507511674637612 [Eh]
                               Psi4 1.8.2 release
    Molecular point group: c1

    Geometry (in Bohr), charge = -1, multiplicity = 1:

       Center              X                  Y                   Z               Mass
    ------------   -----------------  -----------------  -----------------  -----------------
         NA           0.000000000000     0.000000000000     0.000000000000    22.989769282000
         F            0.000000000000     3.665274998415     0.000000000000    18.998403162730
         F            4.031802498257     0.000000000000     0.000000000000    18.998403162730

  Charge       = -1
  Multiplicity = 1
  Basis Set: AUG-CC-PVTZ
    Blend: AUG-CC-PVTZ
  Basis Set: (AUG-CC-PVTZ AUX)
    Blend: AUG-CC-PVTZ-JKFIT + DEF2-UNIVERSAL-JKFIT

    Orbital Energies [Eh]
    ---------------------

    Doubly Occupied:

       1A    -40.217407     2A    -25.887292     3A    -25.879228
       4A     -2.546048     5A     -1.274472     6A     -1.270643
       7A     -1.268899     8A     -1.139772     9A     -1.128407
      10A     -0.263101    11A     -0.250871    12A     -0.247455
      13A     -0.238386    14A     -0.232055    15A     -0.225289

  @DF-RHF Final Energy:  -360.86980669668299

   => Energetics <=

    Nuclear Repulsion Energy =             66.4306215547158132
    One-Electron Energy =                -650.4622050845546255
    Two-Electron Energy =                 223.1617768331558409
    Total Energy =                       -360.8698066966829856
 Dipole X            :        -39.9754458           36.2862225           -3.6892234
 Dipole Y            :        -36.3155056           32.9874750           -3.3280306
 Dipole Z            :          0.0000000            0.0000000            0.0000000
 Magnitude           :                                                    4.9685166
  Basis Set: (AUG-CC-PVTZ AUX)
    Blend: AUG-CC-PVTZ-RI + DEF2-QZVPP-RI
	 Reference Energy          =    -360.8698066966829856 [Eh]
	 Singles Energy            =      -0.0000000000000000 [Eh]
	 Same-Spin Energy          =      -0.1643641412164111 [Eh]
	 Opposite-Spin Energy      =      -0.4597932228649040 [Eh]
	 Correlation Energy        =      -0.6241573640813152 [Eh]
	 Total Energy              =    -361.4939640607643128 [Eh]

	 ================> DF-SCS-MP2 Energies <==================
	-----------------------------------------------------------
	 SCS Same-Spin Scale       =       0.3333333333333333 [-]
	 SCS Opposite-Spin Scale   =       1.2000000000000000 [-]
	 SCS Same-Spin Energy      =      -0.0547880470721370 [Eh]
	 SCS Opposite-Spin Energy  =      -0.5517518674378847 [Eh]
	 SCS Correlation Energy    =      -0.6065399145100218 [Eh]
	 SCS Total Energy          =    -361.4763466111929802 [Eh]
	-----------------------------------------------------------

*** Psi4 exiting successfully. Buy a developer a beer!
