                               Psi4 1.8.2 release

  ==> Input File <==

--------------------------------------------------------------------------
MEMORY 60 GB

molecule dimer {
1 1
Na         0.000000     0.000000     0.000000
Gh(F)      0.000000     1.939580     0.000000
Gh(F)      1.939580     0.000000     0.000000

units ang
no_reorient
no_com
symmetry c1
}

set {
basis        aug-cc-pVTZ
scf_type     df
}

energy("mp2")
--------------------------------------------------------------------------

    Molecular point group: c1

    Geometry (in Angstrom), charge = 1, multiplicity = 1:

       Center              X                  Y                   Z               Mass
    ------------   -----------------  -----------------  -----------------  -----------------
         NA           0.000000000000     0.000000000000     0.000000000000    22.989769282000
      Gh(F)           0.000000000000     1.939580000000     0.000000000000    18.998403162730
      Gh(F)           1.939580000000     0.000000000000     0.000000000000    18.998403162730

  Charge       = 1
  Multiplicity = 1
  Basis Set: AUG-CC-PVTZ
    Blend: AUG-CC-PVTZ
  Basis Set: (AUG-CC-PVTZ AUX)
    Blend: AUG-CC-PVTZ-JKFIT + DEF2-UNIVERSAL-JKFIT

    Orbital Energies [Eh]
    ---------------------

    Doubly Occupied:

       1A    -40.762509     2A     -3.074762     3A     -1.798056
       4A     -1.798009     5A     -1.797886

  @DF-RHF Final Energy:  -161.67605230413687

   => Energetics <=

    Nuclear Repulsion Energy =              0.0000000000000000
    One-Electron Energy =                -224.8896622613641512
    Two-Electron Energy =                  63.2136099572272769
    Total Energy =                       -161.6760523041368742
 Dipole X            :          0.0004005            0.0000000            0.0004005
 Dipole Y            :          0.0004005            0.0000000            0.0004005
 Dipole Z            :          0.0000000            0.0000000            0.0000000
 Magnitude           :                                                    0.0005664
  Basis Set: (AUG-CC-PVTZ AUX)
    Blend: AUG-CC-PVTZ-RI + DEF2-QZVPP-RI
	 Reference Energy          =    -161.6760523041368742 [Eh]
	 Singles Energy            =      -0.0000000000000000 [Eh]
	 Same-Spin Energy          =      -0.0035138934507297 [Eh]
	 Opposite-Spin Energy      =      -0.0121894274596148 [Eh]
	 Correlation Energy        =      -0.0157033209103446 [Eh]
	 Total Energy              =    -161.6917556250472217 [Eh]

	 ================> DF-SCS-MP2 Energies <==================
	-----------------------------------------------------------
	 SCS Same-Spin Scale       =       0.3333333333333333 [-]
	 SCS Opposite-Spin Scale   =       1.2000000000000000 [-]
	 SCS Same-Spin Energy      =      -0.0011712978169099 [Eh]
	 SCS Opposite-Spin Energy  =      -0.0146273129515378 [Eh]
	 SCS Correlation Energy    =      -0.0157986107684477 [Eh]
	 SCS Total Energy          =    -161.6918509149053307 [Eh]
	-----------------------------------------------------------

*** Psi4 exiting successfully. Buy a developer a beer!
