                               Psi4 1.8.2 release

  ==> Input File <==

--------------------------------------------------------------------------
MEMORY 60 GB

molecule dimer {
1 1
Na         0.000000     0.000000     0.000000
Gh(F)      0.000000     1.939580     0.000000
Gh(F)      3.879160     0.000000     0.000000

units ang
no_reorient
no_com
symmetry c1
}

set {
basis        aug-cc-pVTZ
scf_type     df
}

energy("mp2")
--------------------------------------------------------------------------

    Molecular point group: c1

    Geometry (in Angstrom), charge = 1, multiplicity = 1:

       Center              X                  Y                   Z               Mass
    ------------   -----------------  -----------------  -----------------  -----------------
         NA           0.000000000000     0.000000000000     0.000000000000    22.989769282000
      Gh(F)           0.000000000000     1.939580000000     0.000000000000    18.998403162730
      Gh(F)           3.879160000000     0.000000000000     0.000000000000    18.998403162730

  Charge       = 1
  Multiplicity = 1
  Basis Set: AUG-CC-PVTZ
    Blend: AUG-CC-PVTZ
  Basis Set: (AUG-CC-PVTZ AUX)
    Blend: AUG-CC-PVTZ-JKFIT + DEF2-UNIVERSAL-JKFIT

    Orbital Energies [Eh]
    ---------------------

    Doubly Occupied:

       1A    -40.763129     2A     -3.075049     3A     -1.798326
       4A     -1.798194     5A     -1.798181

  @DF-RHF Final Energy:  -161.67603898233668

   => Energetics <=

    Nuclear Repulsion Energy =              0.0000000000000000
    One-Electron Energy =                -224.8863194794131743
    Two-Electron Energy =                  63.2102804970764822
    Total Energy =                       -161.6760389823367063
 Dipole X            :          0.0000760            0.0000000            0.0000760
 Dipole Y            :          0.0004521            0.0000000            0.0004521
 Dipole Z            :         -0.0000000            0.0000000           -0.0000000
 Magnitude           :                                                    0.0004584
  Basis Set: (AUG-CC-PVTZ AUX)
    Blend: AUG-CC-PVTZ-RI + DEF2-QZVPP-RI
	 Reference Energy          =    -161.6760389823366779 [Eh]
	 Singles Energy            =      -0.0000000000000000 [Eh]
	 Same-Spin Energy          =      -0.0026534438404977 [Eh]
	 Opposite-Spin Energy      =      -0.0099177478933463 [Eh]
	 Correlation Energy        =      -0.0125711917338440 [Eh]
	 Total Energy              =    -161.6886101740705328 [Eh]

	 ================> DF-SCS-MP2 Energies <==================
	-----------------------------------------------------------
	 SCS Same-Spin Scale       =       0.3333333333333333 [-]
	 SCS Opposite-Spin Scale   =       1.2000000000000000 [-]
	 SCS Same-Spin Energy      =      -0.0008844812801659 [Eh]
	 SCS Opposite-Spin Energy  =      -0.0119012974720155 [Eh]
	 SCS Correlation Energy    =      -0.0127857787521814 [Eh]
	 SCS Total Energy          =    -161.6888247610888527 [Eh]
	-----------------------------------------------------------

*** Psi4 exiting successfully. Buy a developer a beer!
