                               Psi4 1.8.2 release

  ==> Input File <==

--------------------------------------------------------------------------
MEMORY 60 GB

molecule dimer {
-1 1
Na         0.000000     0.000000     0.000000
F          0.000000     1.939580     0.000000
F          1.939580     0.000000     0.000000

units ang
no_reorient
no_com
symmetry c1
}

set {
basis        aug-cc-pVTZ
scf_type     df
}

energy("mp2")
--------------------------------------------------------------------------

    Molecular point group: c1

    Geometry (in Angstrom), charge = -1, multiplicity = 1:

       Center              X                  Y                   Z               Mass
    ------------   -----------------  -----------------  -----------------  -----------------
         NA           0.000000000000     0.000000000000     0.000000000000    22.989769282000
         F            0.000000000000     1.939580000000     0.000000000000    18.998403162730
         F            1.939580000000     0.000000000000     0.000000000000    18.998403162730

  Charge       = -1
  Multiplicity = 1
  Basis Set: AUG-CC-PVTZ
    Blend: AUG-CC-PVTZ
  Basis Set: (AUG-CC-PVTZ AUX)
    Blend: AUG-CC-PVTZ-JKFIT + DEF2-UNIVERSAL-JKFIT

    Orbital Energies [Eh]
    ---------------------

    Doubly Occupied:

       1A    -40.191588     2A    -25.879785     3A    -25.879780
       4A     -2.525261     5A     -1.254383     6A     -1.253898
       7A     -1.249537     8A     -1.133803     9A     -1.128822
      10A     -0.263042    11A     -0.247091    12A     -0.243787
      13A     -0.243628    14A     -0.234608    15A     -0.222965

  @DF-RHF Final Energy:  -360.86691021300919

   => Energetics <=

    Nuclear Repulsion Energy =             69.6470658781309737
    One-Electron Energy =                -657.1240005564339981
    Two-Electron Energy =                 226.6100244652937761
    Total Energy =                       -360.8669102130091915
 Dipole X            :        -36.3186893           32.9874750           -3.3312143
 Dipole Y            :        -36.3186893           32.9874750           -3.3312143
 Dipole Z            :          0.0000000            0.0000000            0.0000000
 Magnitude           :                                                    4.7110485
  Basis Set: (AUG-CC-PVTZ AUX)
    Blend: AUG-CC-PVTZ-RI + DEF2-QZVPP-RI
	 Reference Energy          =    -360.8669102130091915 [Eh]
	 Singles Energy            =      -0.0000000000000000 [Eh]
	 Same-Spin Energy          =      -0.1644396534225649 [Eh]
	 Opposite-Spin Energy      =      -0.4598742954283495 [Eh]
	 Correlation Energy        =      -0.6243139488509144 [Eh]
	 Total Energy              =    -361.4912241618600888 [Eh]

	 ================> DF-SCS-MP2 Energies <==================
	-----------------------------------------------------------
	 SCS Same-Spin Scale       =       0.3333333333333333 [-]
	 SCS Opposite-Spin Scale   =       1.2000000000000000 [-]
	 SCS Same-Spin Energy      =      -0.0548132178075216 [Eh]
	 SCS Opposite-Spin Energy  =      -0.5518491545140194 [Eh]
	 SCS Correlation Energy    =      -0.6066623723215410 [Eh]
	 SCS Total Energy          =    -361.4735725853307144 [Eh]
	-----------------------------------------------------------

*** Psi4 exiting successfully. Buy a developer a beer!
