                               Psi4 1.8.2 release

  ==> Input File <==

--------------------------------------------------------------------------
MEMORY 60 GB

molecule dimer {
-1 1
Gh(Na)     0.000000     0.000000     0.000000
F          0.000000     1.939580     0.000000
Gh(F)      2.909370     0.000000     0.000000

units ang
no_reorient
no_com
symmetry c1
}

set {
basis        aug-cc-pVTZ
scf_type     df
}

energy("mp2")
--------------------------------------------------------------------------

    Molecular point group: c1

    Geometry (in Angstrom), charge = -1, multiplicity = 1:

       Center              X                  Y                   Z               Mass
    ------------   -----------------  -----------------  -----------------  -----------------
      Gh(NA)          0.000000000000     0.000000000000     0.000000000000    22.989769282000
         F            0.000000000000     1.939580000000     0.000000000000    18.998403162730
      Gh(F)           2.909370000000     0.000000000000     0.000000000000    18.998403162730

  Charge       = -1
  Multiplicity = 1
  Basis Set: AUG-CC-PVTZ
    Blend: AUG-CC-PVTZ
  Basis Set: (AUG-CC-PVTZ AUX)
    Blend: AUG-CC-PVTZ-JKFIT + DEF2-UNIVERSAL-JKFIT

    Orbital Energies [Eh]
    ---------------------

    Doubly Occupied:

       1A    -25.833847     2A     -1.076089     3A     -0.181037
       4A     -0.181019     5A     -0.181015

  @DF-RHF Final Energy:   -99.45086099583396

   => Energetics <=

    Nuclear Repulsion Energy =              0.0000000000000000
    One-Electron Energy =                -143.9957068100043500
    Two-Electron Energy =                  44.5448458141703796
    Total Energy =                        -99.4508609958339775
 Dipole X            :          0.0000082            0.0000000            0.0000082
 Dipole Y            :        -36.6535305           32.9874750           -3.6660555
 Dipole Z            :          0.0000000            0.0000000            0.0000000
 Magnitude           :                                                    3.6660555
  Basis Set: (AUG-CC-PVTZ AUX)
    Blend: AUG-CC-PVTZ-RI + DEF2-QZVPP-RI
	 Reference Energy          =     -99.4508609958339633 [Eh]
	 Singles Energy            =      -0.0000000000000000 [Eh]
	 Same-Spin Energy          =      -0.0817164477705428 [Eh]
	 Opposite-Spin Energy      =      -0.2272495505745986 [Eh]
	 Correlation Energy        =      -0.3089659983451414 [Eh]
	 Total Energy              =     -99.7598269941791074 [Eh]

	 ================> DF-SCS-MP2 Energies <==================
	-----------------------------------------------------------
	 SCS Same-Spin Scale       =       0.3333333333333333 [-]
	 SCS Opposite-Spin Scale   =       1.2000000000000000 [-]
	 SCS Same-Spin Energy      =      -0.0272388159235143 [Eh]
	 SCS Opposite-Spin Energy  =      -0.2726994606895183 [Eh]
	 SCS Correlation Energy    =      -0.2999382766130326 [Eh]
	 SCS Total Energy          =     -99.7507992724469972 [Eh]
	-----------------------------------------------------------

*** Psi4 exiting successfully. Buy a developer a beer!
