                               Psi4 1.8.2 release

  ==> Input File <==

--------------------------------------------------------------------------
MEMORY 60 GB

molecule dimer {
1 1
Na         0.000000     0.000000     0.000000
Gh(F)      0.000000     1.939580     0.000000
Gh(F)      2.133538     0.000000     0.000000

units ang
no_reorient
no_com
symmetry c1
}

set {
basis        aug-cc-pVTZ
scf_type     df
}

energy("mp2")
--------------------------------------------------------------------------

    Molecular point group: c1

    Geometry (in Angstrom), charge = 1, multiplicity = 1:

       Center              X                  Y                   Z               Mass
    ------------   -----------------  -----------------  -----------------  -----------------
         NA           0.000000000000     0.000000000000     0.000000000000    22.989769282000
      Gh(F)           0.000000000000     1.939580000000     0.000000000000    18.998403162730
      Gh(F)           2.133538000000     0.000000000000     0.000000000000    18.998403162730

  Charge       = 1
  Multiplicity = 1
  Basis Set: AUG-CC-PVTZ
    Blend: AUG-CC-PVTZ
  Basis Set: (AUG-CC-PVTZ AUX)
    Blend: AUG-CC-PVTZ-JKFIT + DEF2-UNIVERSAL-JKFIT

    Orbital Energies [Eh]
    ---------------------

    Doubly Occupied:

       1A    -40.762646     2A     -3.074819     3A     -1.798102
       4A     -1.798055     5A     -1.797940

  @DF-RHF Final Energy:  -161.67604981051579

   => Energetics <=

    Nuclear Repulsion Energy =              0.0000000000000000
    One-Electron Energy =                -224.8889768385583636
    Two-Electron Energy =                  63.2129270280425573
    Total Energy =                       -161.6760498105157922
 Dipole X            :          0.0004025            0.0000000            0.0004025
 Dipole Y            :          0.0004043            0.0000000            0.0004043
 Dipole Z            :         -0.0000000            0.0000000           -0.0000000
 Magnitude           :                                                    0.0005705
  Basis Set: (AUG-CC-PVTZ AUX)
    Blend: AUG-CC-PVTZ-RI + DEF2-QZVPP-RI
	 Reference Energy          =    -161.6760498105157922 [Eh]
	 Singles Energy            =      -0.0000000000000000 [Eh]
	 Same-Spin Energy          =      -0.0030890722142514 [Eh]
	 Opposite-Spin Energy      =      -0.0110392258586307 [Eh]
	 Correlation Energy        =      -0.0141282980728821 [Eh]
	 Total Energy              =    -161.6901781085886682 [Eh]

	 ================> DF-SCS-MP2 Energies <==================
	-----------------------------------------------------------
	 SCS Same-Spin Scale       =       0.3333333333333333 [-]
	 SCS Opposite-Spin Scale   =       1.2000000000000000 [-]
	 SCS Same-Spin Energy      =      -0.0010296907380838 [Eh]
	 SCS Opposite-Spin Energy  =      -0.0132470710303568 [Eh]
	 SCS Correlation Energy    =      -0.0142767617684406 [Eh]
	 SCS Total Energy          =    -161.6903265722842207 [Eh]
	-----------------------------------------------------------

*** Psi4 exiting successfully. Buy a developer a beer!
