                               Psi4 1.8.2 release

  ==> Input File <==

--------------------------------------------------------------------------
MEMORY 60 GB

molecule dimer {
1 1
Na         0.000000     0.000000     0.000000
Gh(F)      0.000000     1.939580     0.000000
Gh(F)      2.327496     0.000000     0.000000

units ang
no_reorient
no_com
symmetry c1
}

set {
basis        aug-cc-pVTZ
scf_type     df
}

energy("mp2")
--------------------------------------------------------------------------

    Molecular point group: c1

    Geometry (in Angstrom), charge = 1, multiplicity = 1:

       Center              X                  Y                   Z               Mass
    ------------   -----------------  -----------------  -----------------  -----------------
         NA           0.000000000000     0.000000000000     0.000000000000    22.989769282000
      Gh(F)           0.000000000000     1.939580000000     0.000000000000    18.998403162730
      Gh(F)           2.327496000000     0.000000000000     0.000000000000    18.998403162730

  Charge       = 1
  Multiplicity = 1
  Basis Set: AUG-CC-PVTZ
    Blend: AUG-CC-PVTZ
  Basis Set: (AUG-CC-PVTZ AUX)
    Blend: AUG-CC-PVTZ-JKFIT + DEF2-UNIVERSAL-JKFIT

    Orbital Energies [Eh]
    ---------------------

    Doubly Occupied:

       1A    -40.762741     2A     -3.074863     3A     -1.798146
       4A     -1.798078     5A     -1.797988

  @DF-RHF Final Energy:  -161.67604862883019

   => Energetics <=

    Nuclear Repulsion Energy =              0.0000000000000000
    One-Electron Energy =                -224.8884683682017567
    Two-Electron Energy =                  63.2124197393715761
    Total Energy =                       -161.6760486288301877
 Dipole X            :          0.0003690            0.0000000            0.0003690
 Dipole Y            :          0.0004036            0.0000000            0.0004036
 Dipole Z            :          0.0000000            0.0000000            0.0000000
 Magnitude           :                                                    0.0005469
  Basis Set: (AUG-CC-PVTZ AUX)
    Blend: AUG-CC-PVTZ-RI + DEF2-QZVPP-RI
	 Reference Energy          =    -161.6760486288301877 [Eh]
	 Singles Energy            =      -0.0000000000000000 [Eh]
	 Same-Spin Energy          =      -0.0030115241673421 [Eh]
	 Opposite-Spin Energy      =      -0.0108483660166173 [Eh]
	 Correlation Energy        =      -0.0138598901839594 [Eh]
	 Total Energy              =    -161.6899085190141534 [Eh]

	 ================> DF-SCS-MP2 Energies <==================
	-----------------------------------------------------------
	 SCS Same-Spin Scale       =       0.3333333333333333 [-]
	 SCS Opposite-Spin Scale   =       1.2000000000000000 [-]
	 SCS Same-Spin Energy      =      -0.0010038413891140 [Eh]
	 SCS Opposite-Spin Energy  =      -0.0130180392199408 [Eh]
	 SCS Correlation Energy    =      -0.0140218806090548 [Eh]
	 SCS Total Energy          =    -161.6900705094392379 [Eh]
	-----------------------------------------------------------

*** Psi4 exiting successfully. Buy a developer a beer!
