                               Psi4 1.8.2 release

  ==> Input File <==

--------------------------------------------------------------------------
MEMORY 60 GB

molecule dimer {
-1 1
Na         0.000000     0.000000     0.000000
F          0.000000     1.939580     0.000000
F          2.715412     0.000000     0.000000

units ang
no_reorient
no_com
symmetry c1
}

set {
basis        aug-cc-pVTZ
scf_type     df
}

energy("mp2")
--------------------------------------------------------------------------

    Molecular point group: c1

    Geometry (in Angstrom), charge = -1, multiplicity = 1:

       Center              X                  Y                   Z               Mass
    ------------   -----------------  -----------------  -----------------  -----------------
         NA           0.000000000000     0.000000000000     0.000000000000    22.989769282000
         F            0.000000000000     1.939580000000     0.000000000000    18.998403162730
         F            2.715412000000     0.000000000000     0.000000000000    18.998403162730

  Charge       = -1
  Multiplicity = 1
  Basis Set: AUG-CC-PVTZ
    Blend: AUG-CC-PVTZ
  Basis Set: (AUG-CC-PVTZ AUX)
    Blend: AUG-CC-PVTZ-JKFIT + DEF2-UNIVERSAL-JKFIT

    Orbital Energies [Eh]
    ---------------------

    Doubly Occupied:

       1A    -40.270622     2A    -25.909366     3A    -25.868662
       4A     -2.595291     5A     -1.322321     6A     -1.319732
       7A     -1.316853     8A     -1.162609     9A     -1.111960
      10A     -0.280767    11A     -0.268513    12A     -0.268273
      13A     -0.218098    14A     -0.216508    15A     -0.215732

  @DF-RHF Final Energy:  -360.85598319867711

   => Energetics <=

    Nuclear Repulsion Energy =             59.1482438559871326
    One-Electron Energy =                -635.3178388528034475
    Two-Electron Energy =                 215.3136117981391919
    Total Energy =                       -360.8559831986771087
 Dipole X            :        -51.0090020           46.1824650           -4.8265370
 Dipole Y            :        -36.3130919           32.9874750           -3.3256170
 Dipole Z            :          0.0000000            0.0000000            0.0000000
 Magnitude           :                                                    5.8613298
  Basis Set: (AUG-CC-PVTZ AUX)
    Blend: AUG-CC-PVTZ-RI + DEF2-QZVPP-RI
	 Reference Energy          =    -360.8559831986771087 [Eh]
	 Singles Energy            =      -0.0000000000000000 [Eh]
	 Same-Spin Energy          =      -0.1647300978909556 [Eh]
	 Opposite-Spin Energy      =      -0.4606902829734772 [Eh]
	 Correlation Energy        =      -0.6254203808644327 [Eh]
	 Total Energy              =    -361.4814035795415634 [Eh]

	 ================> DF-SCS-MP2 Energies <==================
	-----------------------------------------------------------
	 SCS Same-Spin Scale       =       0.3333333333333333 [-]
	 SCS Opposite-Spin Scale   =       1.2000000000000000 [-]
	 SCS Same-Spin Energy      =      -0.0549100326303185 [Eh]
	 SCS Opposite-Spin Energy  =      -0.5528283395681726 [Eh]
	 SCS Correlation Energy    =      -0.6077383721984911 [Eh]
	 SCS Total Energy          =    -361.4637215708755775 [Eh]
	-----------------------------------------------------------

*** Psi4 exiting successfully. Buy a developer a beer!
