                               Psi4 1.8.2 release

  ==> Input File <==

--------------------------------------------------------------------------
MEMORY 60 GB

molecule dimer {
-1 1
Gh(Na)     0.000000     0.000000     0.000000
F          0.000000     1.939580     0.000000
Gh(F)      1.939580     0.000000     0.000000

units ang
no_reorient
no_com
symmetry c1
}

set {
basis        aug-cc-pVTZ
scf_type     df
}

energy("mp2")
--------------------------------------------------------------------------

    Molecular point group: c1

    Geometry (in Angstrom), charge = -1, multiplicity = 1:

       Center              X                  Y                   Z               Mass
    ------------   -----------------  -----------------  -----------------  -----------------
      Gh(NA)          0.000000000000     0.000000000000     0.000000000000    22.989769282000
         F            0.000000000000     1.939580000000     0.000000000000    18.998403162730
      Gh(F)           1.939580000000     0.000000000000     0.000000000000    18.998403162730

  Charge       = -1
  Multiplicity = 1
  Basis Set: AUG-CC-PVTZ
    Blend: AUG-CC-PVTZ
  Basis Set: (AUG-CC-PVTZ AUX)
    Blend: AUG-CC-PVTZ-JKFIT + DEF2-UNIVERSAL-JKFIT

    Orbital Energies [Eh]
    ---------------------

    Doubly Occupied:

       1A    -25.833841     2A     -1.076084     3A     -0.181036
       4A     -0.181017     5A     -0.181011

  @DF-RHF Final Energy:   -99.45086869741229

   => Energetics <=

    Nuclear Repulsion Energy =              0.0000000000000000
    One-Electron Energy =                -143.9957597688058399
    Two-Electron Energy =                  44.5448910713935575
    Total Energy =                        -99.4508686974122895
 Dipole X            :         -0.0000180            0.0000000           -0.0000180
 Dipole Y            :        -36.6534901           32.9874750           -3.6660151
 Dipole Z            :          0.0000000            0.0000000            0.0000000
 Magnitude           :                                                    3.6660151
  Basis Set: (AUG-CC-PVTZ AUX)
    Blend: AUG-CC-PVTZ-RI + DEF2-QZVPP-RI
	 Reference Energy          =     -99.4508686974122895 [Eh]
	 Singles Energy            =      -0.0000000000000000 [Eh]
	 Same-Spin Energy          =      -0.0817238785817933 [Eh]
	 Opposite-Spin Energy      =      -0.2273275401399449 [Eh]
	 Correlation Energy        =      -0.3090514187217381 [Eh]
	 Total Energy              =     -99.7599201161340261 [Eh]

	 ================> DF-SCS-MP2 Energies <==================
	-----------------------------------------------------------
	 SCS Same-Spin Scale       =       0.3333333333333333 [-]
	 SCS Opposite-Spin Scale   =       1.2000000000000000 [-]
	 SCS Same-Spin Energy      =      -0.0272412928605978 [Eh]
	 SCS Opposite-Spin Energy  =      -0.2727930481679338 [Eh]
	 SCS Correlation Energy    =      -0.3000343410285316 [Eh]
	 SCS Total Energy          =     -99.7509030384408248 [Eh]
	-----------------------------------------------------------

*** Psi4 exiting successfully. Buy a developer a beer!
