                               Psi4 1.8.2 release

  ==> Input File <==

--------------------------------------------------------------------------
MEMORY 60 GB

molecule dimer {
-1 1
Gh(Na)     0.000000     0.000000     0.000000
F          0.000000     1.939580     0.000000
Gh(F)      2.133538     0.000000     0.000000

units ang
no_reorient
no_com
symmetry c1
}

set {
basis        aug-cc-pVTZ
scf_type     df
}

energy("mp2")
--------------------------------------------------------------------------

    Molecular point group: c1

    Geometry (in Angstrom), charge = -1, multiplicity = 1:

       Center              X                  Y                   Z               Mass
    ------------   -----------------  -----------------  -----------------  -----------------
      Gh(NA)          0.000000000000     0.000000000000     0.000000000000    22.989769282000
         F            0.000000000000     1.939580000000     0.000000000000    18.998403162730
      Gh(F)           2.133538000000     0.000000000000     0.000000000000    18.998403162730

  Charge       = -1
  Multiplicity = 1
  Basis Set: AUG-CC-PVTZ
    Blend: AUG-CC-PVTZ
  Basis Set: (AUG-CC-PVTZ AUX)
    Blend: AUG-CC-PVTZ-JKFIT + DEF2-UNIVERSAL-JKFIT

    Orbital Energies [Eh]
    ---------------------

    Doubly Occupied:

       1A    -25.833841     2A     -1.076085     3A     -0.181036
       4A     -0.181018     5A     -0.181012

  @DF-RHF Final Energy:   -99.45086844477741

   => Energetics <=

    Nuclear Repulsion Energy =              0.0000000000000000
    One-Electron Energy =                -143.9957557050001640
    Two-Electron Energy =                  44.5448872602227510
    Total Energy =                        -99.4508684447774129
 Dipole X            :         -0.0000656            0.0000000           -0.0000656
 Dipole Y            :        -36.6534753           32.9874750           -3.6660003
 Dipole Z            :          0.0000000            0.0000000            0.0000000
 Magnitude           :                                                    3.6660003
  Basis Set: (AUG-CC-PVTZ AUX)
    Blend: AUG-CC-PVTZ-RI + DEF2-QZVPP-RI
	 Reference Energy          =     -99.4508684447774129 [Eh]
	 Singles Energy            =      -0.0000000000000000 [Eh]
	 Same-Spin Energy          =      -0.0817226561058964 [Eh]
	 Opposite-Spin Energy      =      -0.2273144610041600 [Eh]
	 Correlation Energy        =      -0.3090371171100564 [Eh]
	 Total Energy              =     -99.7599055618874644 [Eh]

	 ================> DF-SCS-MP2 Energies <==================
	-----------------------------------------------------------
	 SCS Same-Spin Scale       =       0.3333333333333333 [-]
	 SCS Opposite-Spin Scale   =       1.2000000000000000 [-]
	 SCS Same-Spin Energy      =      -0.0272408853686321 [Eh]
	 SCS Opposite-Spin Energy  =      -0.2727773532049920 [Eh]
	 SCS Correlation Energy    =      -0.3000182385736241 [Eh]
	 SCS Total Energy          =     -99.7508866833510410 [Eh]
	-----------------------------------------------------------

*** Psi4 exiting successfully. Buy a developer a beer!
