                               Psi4 1.8.2 release

  ==> Input File <==

--------------------------------------------------------------------------
MEMORY 60 GB

molecule dimer {
-1 1
Na         0.000000     0.000000     0.000000
F          0.000000     1.939580     0.000000
F          2.521454     0.000000     0.000000

units ang
no_reorient
no_com
symmetry c1
}

set {
basis        aug-cc-pVTZ
scf_type     df
}

energy("mp2")
--------------------------------------------------------------------------

    Molecular point group: c1

    Geometry (in Angstrom), charge = -1, multiplicity = 1:

       Center              X                  Y                   Z               Mass
    ------------   -----------------  -----------------  -----------------  -----------------
         NA           0.000000000000     0.000000000000     0.000000000000    22.989769282000
         F            0.000000000000     1.939580000000     0.000000000000    18.998403162730
         F            2.521454000000     0.000000000000     0.000000000000    18.998403162730

  Charge       = -1
  Multiplicity = 1
  Basis Set: AUG-CC-PVTZ
    Blend: AUG-CC-PVTZ
  Basis Set: (AUG-CC-PVTZ AUX)
    Blend: AUG-CC-PVTZ-JKFIT + DEF2-UNIVERSAL-JKFIT

    Orbital Energies [Eh]
    ---------------------

    Doubly Occupied:

       1A    -40.255619     2A    -25.902204     3A    -25.872805
       4A     -2.580821     5A     -1.308259     6A     -1.305376
       7A     -1.302142     8A     -1.155195     9A     -1.117333
      10A     -0.273955    11A     -0.261799    12A     -0.261447
      13A     -0.224353    14A     -0.221507    15A     -0.220111

  @DF-RHF Final Energy:  -360.86137961835522

   => Energetics <=

    Nuclear Repulsion Energy =             61.2615473272102378
    One-Electron Energy =                -639.7200008851093571
    Two-Electron Energy =                 217.5970739395438898
    Total Energy =                       -360.8613796183552722
 Dipole X            :        -47.3239082           42.8837175           -4.4401907
 Dipole Y            :        -36.3127151           32.9874750           -3.3252401
 Dipole Z            :         -0.0000000            0.0000000           -0.0000000
 Magnitude           :                                                    5.5472980
  Basis Set: (AUG-CC-PVTZ AUX)
    Blend: AUG-CC-PVTZ-RI + DEF2-QZVPP-RI
	 Reference Energy          =    -360.8613796183552154 [Eh]
	 Singles Energy            =      -0.0000000000000000 [Eh]
	 Same-Spin Energy          =      -0.1646991062886854 [Eh]
	 Opposite-Spin Energy      =      -0.4606413008304386 [Eh]
	 Correlation Energy        =      -0.6253404071191241 [Eh]
	 Total Energy              =    -361.4867200254743125 [Eh]

	 ================> DF-SCS-MP2 Energies <==================
	-----------------------------------------------------------
	 SCS Same-Spin Scale       =       0.3333333333333333 [-]
	 SCS Opposite-Spin Scale   =       1.2000000000000000 [-]
	 SCS Same-Spin Energy      =      -0.0548997020962285 [Eh]
	 SCS Opposite-Spin Energy  =      -0.5527695609965263 [Eh]
	 SCS Correlation Energy    =      -0.6076692630927548 [Eh]
	 SCS Total Energy          =    -361.4690488814479750 [Eh]
	-----------------------------------------------------------

*** Psi4 exiting successfully. Buy a developer a beer!
