                               Psi4 1.9 release

  ==> Input File <==

--------------------------------------------------------------------------
MEMORY 60 GB

molecule dimer {
0 1
Na     0.000000     0.000000     0.000000
F      0.000000     1.939580     0.000000
--
-1 1
F      2.521454     0.000000     0.000000

units ang
no_reorient
no_com
symmetry c1
}

set {
basis        aug-cc-pVTZ
scf_type     df
}

energy("mp2", bsse_type="cp")
--------------------------------------------------------------------------

                               Psi4 1.9 release
    Molecular point group: c1
  Charge       = -1
  Multiplicity = 1
  Basis Set: AUG-CC-PVTZ
    Blend: AUG-CC-PVTZ
  Basis Set: (AUG-CC-PVTZ AUX)
    Blend: AUG-CC-PVTZ-JKFIT + DEF2-UNIVERSAL-JKFIT
  @DF-RHF Final Energy:   -99.45085276925450
    Total Energy =                        -99.4508527692545101
 Dipole X            :        -47.6492071           42.8837175           -4.7654897
 Dipole Y            :         -0.0001960            0.0000000           -0.0001960
 Dipole Z            :          0.0000000            0.0000000            0.0000000
 Magnitude           :                                                    4.7654897
  Basis Set: (AUG-CC-PVTZ AUX)
    Blend: AUG-CC-PVTZ-RI + DEF2-QZVPP-RI
	 Reference Energy          =     -99.4508527692544959 [Eh]
	 Singles Energy            =      -0.0000000000000000 [Eh]
	 Same-Spin Energy          =      -0.0816656809926006 [Eh]
	 Opposite-Spin Energy      =      -0.2268864239605385 [Eh]
	 Correlation Energy        =      -0.3085521049531391 [Eh]
	 Total Energy              =     -99.7594048742076325 [Eh]
	 SCS Total Energy          =     -99.7503383716713472 [Eh]
                               Psi4 1.9 release
    Molecular point group: c1
  Multiplicity = 1
  Basis Set: AUG-CC-PVTZ
    Blend: AUG-CC-PVTZ
  Basis Set: (AUG-CC-PVTZ AUX)
    Blend: AUG-CC-PVTZ-JKFIT + DEF2-UNIVERSAL-JKFIT
  @DF-RHF Final Energy:  -261.37055541182832
    Total Energy =                       -261.3705554118283203
  Basis Set: (AUG-CC-PVTZ AUX)
	 Singles Energy            =      -0.0000000000000000 [Eh]
	 Same-Spin Energy          =      -0.0829914594096636 [Eh]
	 Opposite-Spin Energy      =      -0.2340390753914587 [Eh]
	 Correlation Energy        =      -0.3170305348011223 [Eh]
	 Total Energy              =    -261.6875859466294401 [Eh]
	 SCS Total Energy          =    -261.6790661221012897 [Eh]
                               Psi4 1.9 release
    Molecular point group: c1

    Geometry (in Bohr), charge = -1, multiplicity = 1:

       Center              X                  Y                   Z               Mass
    ------------   -----------------  -----------------  -----------------  -----------------
         NA           0.000000000000     0.000000000000     0.000000000000    22.989769282000
         F            0.000000000000     3.665274998415     0.000000000000    18.998403162730
         F            4.764857497940     0.000000000000     0.000000000000    18.998403162730

  Charge       = -1
  Multiplicity = 1
  Basis Set: AUG-CC-PVTZ
    Blend: AUG-CC-PVTZ
  Basis Set: (AUG-CC-PVTZ AUX)
    Blend: AUG-CC-PVTZ-JKFIT + DEF2-UNIVERSAL-JKFIT

    Orbital Energies [Eh]
    ---------------------

    Doubly Occupied:

       1A    -40.255619     2A    -25.902204     3A    -25.872805
       4A     -2.580821     5A     -1.308259     6A     -1.305376
       7A     -1.302142     8A     -1.155195     9A     -1.117333
      10A     -0.273955    11A     -0.261799    12A     -0.261447
      13A     -0.224353    14A     -0.221507    15A     -0.220111

  @DF-RHF Final Energy:  -360.86137961836073

   => Energetics <=

    Nuclear Repulsion Energy =             61.2615473272102378
    One-Electron Energy =                -639.7200008851017401
    Two-Electron Energy =                 217.5970739395308158
    Total Energy =                       -360.8613796183607292
 Dipole X            :        -47.3239082           42.8837175           -4.4401907
 Dipole Y            :        -36.3127151           32.9874750           -3.3252401
 Dipole Z            :         -0.0000000            0.0000000           -0.0000000
 Magnitude           :                                                    5.5472980
  Basis Set: (AUG-CC-PVTZ AUX)
    Blend: AUG-CC-PVTZ-RI + DEF2-QZVPP-RI
	 Reference Energy          =    -360.8613796183607292 [Eh]
	 Singles Energy            =      -0.0000000000000000 [Eh]
	 Same-Spin Energy          =      -0.1646991062886755 [Eh]
	 Opposite-Spin Energy      =      -0.4606413008303890 [Eh]
	 Correlation Energy        =      -0.6253404071190645 [Eh]
	 Total Energy              =    -361.4867200254797694 [Eh]

	 ================> DF-SCS-MP2 Energies <==================
	-----------------------------------------------------------
	 SCS Same-Spin Scale       =       0.3333333333333333 [-]
	 SCS Opposite-Spin Scale   =       1.2000000000000000 [-]
	 SCS Same-Spin Energy      =      -0.0548997020962252 [Eh]
	 SCS Opposite-Spin Energy  =      -0.5527695609964668 [Eh]
	 SCS Correlation Energy    =      -0.6076692630926920 [Eh]
	 SCS Total Energy          =    -361.4690488814534319 [Eh]
	-----------------------------------------------------------

*** Psi4 exiting successfully. Buy a developer a beer!
