                               Psi4 1.9 release

  ==> Input File <==

--------------------------------------------------------------------------
MEMORY 60 GB

molecule dimer {
0 1
Na     0.000000     0.000000     0.000000
F      0.000000     1.939580     0.000000
--
-1 1
F      2.715412     0.000000     0.000000

units ang
no_reorient
no_com
symmetry c1
}

set {
basis        aug-cc-pVTZ
scf_type     df
}

energy("mp2", bsse_type="cp")
--------------------------------------------------------------------------

                               Psi4 1.9 release
    Molecular point group: c1
  Charge       = -1
  Multiplicity = 1
  Basis Set: AUG-CC-PVTZ
    Blend: AUG-CC-PVTZ
  Basis Set: (AUG-CC-PVTZ AUX)
    Blend: AUG-CC-PVTZ-JKFIT + DEF2-UNIVERSAL-JKFIT
  @DF-RHF Final Energy:   -99.45083986772170
    Total Energy =                        -99.4508398677216974
 Dipole X            :        -51.3139883           46.1824650           -5.1315233
 Dipole Y            :         -0.0001755            0.0000000           -0.0001755
 Dipole Z            :         -0.0000000            0.0000000           -0.0000000
 Magnitude           :                                                    5.1315233
  Basis Set: (AUG-CC-PVTZ AUX)
    Blend: AUG-CC-PVTZ-RI + DEF2-QZVPP-RI
	 Reference Energy          =     -99.4508398677216974 [Eh]
	 Singles Energy            =      -0.0000000000000000 [Eh]
	 Same-Spin Energy          =      -0.0816471696654234 [Eh]
	 Opposite-Spin Energy      =      -0.2267691091109943 [Eh]
	 Correlation Energy        =      -0.3084162787764178 [Eh]
	 Total Energy              =     -99.7592561464981173 [Eh]
	 SCS Total Energy          =     -99.7501785218767054 [Eh]
                               Psi4 1.9 release
    Molecular point group: c1
  Multiplicity = 1
  Basis Set: AUG-CC-PVTZ
    Blend: AUG-CC-PVTZ
  Basis Set: (AUG-CC-PVTZ AUX)
    Blend: AUG-CC-PVTZ-JKFIT + DEF2-UNIVERSAL-JKFIT
  @DF-RHF Final Energy:  -261.37054473181740
    Total Energy =                       -261.3705447318174038
  Basis Set: (AUG-CC-PVTZ AUX)
	 Singles Energy            =      -0.0000000000000000 [Eh]
	 Same-Spin Energy          =      -0.0829384419050574 [Eh]
	 Opposite-Spin Energy      =      -0.2338859301293496 [Eh]
	 Correlation Energy        =      -0.3168243720344070 [Eh]
	 Total Energy              =    -261.6873691038518359 [Eh]
	 SCS Total Energy          =    -261.6788539952743236 [Eh]
                               Psi4 1.9 release
    Molecular point group: c1

    Geometry (in Bohr), charge = -1, multiplicity = 1:

       Center              X                  Y                   Z               Mass
    ------------   -----------------  -----------------  -----------------  -----------------
         NA           0.000000000000     0.000000000000     0.000000000000    22.989769282000
         F            0.000000000000     3.665274998415     0.000000000000    18.998403162730
         F            5.131384997782     0.000000000000     0.000000000000    18.998403162730

  Charge       = -1
  Multiplicity = 1
  Basis Set: AUG-CC-PVTZ
    Blend: AUG-CC-PVTZ
  Basis Set: (AUG-CC-PVTZ AUX)
    Blend: AUG-CC-PVTZ-JKFIT + DEF2-UNIVERSAL-JKFIT

    Orbital Energies [Eh]
    ---------------------

    Doubly Occupied:

       1A    -40.270622     2A    -25.909366     3A    -25.868662
       4A     -2.595291     5A     -1.322321     6A     -1.319732
       7A     -1.316853     8A     -1.162609     9A     -1.111960
      10A     -0.280767    11A     -0.268513    12A     -0.268273
      13A     -0.218098    14A     -0.216508    15A     -0.215732

  @DF-RHF Final Energy:  -360.85598319854927

   => Energetics <=

    Nuclear Repulsion Energy =             59.1482438559871326
    One-Electron Energy =                -635.3178388527753668
    Two-Electron Energy =                 215.3136117982389237
    Total Energy =                       -360.8559831985492679
 Dipole X            :        -51.0090020           46.1824650           -4.8265370
 Dipole Y            :        -36.3130919           32.9874750           -3.3256170
 Dipole Z            :         -0.0000000            0.0000000           -0.0000000
 Magnitude           :                                                    5.8613298
  Basis Set: (AUG-CC-PVTZ AUX)
    Blend: AUG-CC-PVTZ-RI + DEF2-QZVPP-RI
	 Reference Energy          =    -360.8559831985492679 [Eh]
	 Singles Energy            =      -0.0000000000000000 [Eh]
	 Same-Spin Energy          =      -0.1647300978909781 [Eh]
	 Opposite-Spin Energy      =      -0.4606902829735341 [Eh]
	 Correlation Energy        =      -0.6254203808645122 [Eh]
	 Total Energy              =    -361.4814035794137794 [Eh]

	 ================> DF-SCS-MP2 Energies <==================
	-----------------------------------------------------------
	 SCS Same-Spin Scale       =       0.3333333333333333 [-]
	 SCS Opposite-Spin Scale   =       1.2000000000000000 [-]
	 SCS Same-Spin Energy      =      -0.0549100326303260 [Eh]
	 SCS Opposite-Spin Energy  =      -0.5528283395682410 [Eh]
	 SCS Correlation Energy    =      -0.6077383721985670 [Eh]
	 SCS Total Energy          =    -361.4637215707478504 [Eh]
	-----------------------------------------------------------

*** Psi4 exiting successfully. Buy a developer a beer!
