                               Psi4 1.8.2 release

  ==> Input File <==

--------------------------------------------------------------------------
MEMORY 60 GB

molecule dimer {
1 1
Na     0.000000     0.000000     0.000000
--
-1 1
F      0.000000     1.939580     0.000000
--
-1 1
F      2.521454     0.000000     0.000000

units ang
no_reorient
no_com
symmetry c1
}

set {
basis        aug-cc-pVTZ
scf_type     df
}

energy("mp2", bsse_type="cp")
--------------------------------------------------------------------------

                               Psi4 1.8.2 release
    Molecular point group: c1
  Charge       = 1
  Multiplicity = 1
  Basis Set: AUG-CC-PVTZ
    Blend: AUG-CC-PVTZ
  Basis Set: (AUG-CC-PVTZ AUX)
    Blend: AUG-CC-PVTZ-JKFIT + DEF2-UNIVERSAL-JKFIT
  @DF-RHF Final Energy:  -161.67604654497268
    Total Energy =                       -161.6760465449726780
 Dipole X            :          0.0003537            0.0000000            0.0003537
 Dipole Y            :          0.0004020            0.0000000            0.0004020
 Dipole Z            :         -0.0000000            0.0000000           -0.0000000
 Magnitude           :                                                    0.0005354
  Basis Set: (AUG-CC-PVTZ AUX)
    Blend: AUG-CC-PVTZ-RI + DEF2-QZVPP-RI
	 Reference Energy          =    -161.6760465449726780 [Eh]
	 Singles Energy            =      -0.0000000000000000 [Eh]
	 Same-Spin Energy          =      -0.0030114521302752 [Eh]
	 Opposite-Spin Energy      =      -0.0108483991879991 [Eh]
	 Correlation Energy        =      -0.0138598513182743 [Eh]
	 Total Energy              =    -161.6899063962909509 [Eh]
	 SCS Total Energy          =    -161.6900684413750469 [Eh]
                               Psi4 1.8.2 release
    Molecular point group: c1
  Basis Set: AUG-CC-PVTZ
    Blend: AUG-CC-PVTZ
  Basis Set: (AUG-CC-PVTZ AUX)
    Blend: AUG-CC-PVTZ-JKFIT + DEF2-UNIVERSAL-JKFIT
  @DF-RHF Final Energy:   -99.45086771318118
    Total Energy =                        -99.4508677131811680
  Basis Set: (AUG-CC-PVTZ AUX)
                               Psi4 1.8.2 release
  @DF-RHF Final Energy:  -198.74226318545792
    Total Energy =                       -198.7422631854579436
                               Psi4 1.8.2 release
  @DF-RHF Final Energy:  -261.33897069232410
    Total Energy =                       -261.3389706923240965
                               Psi4 1.8.2 release
  @DF-RHF Final Energy:  -261.37055541183253
    Total Energy =                       -261.3705554118325267
                               Psi4 1.8.2 release
  Multiplicity = 1
  @DF-RHF Final Energy:   -99.45085276925229
    Total Energy =                        -99.4508527692522790
	 Singles Energy            =      -0.0000000000000000 [Eh]
	 Same-Spin Energy          =      -0.0816656809925974 [Eh]
	 Opposite-Spin Energy      =      -0.2268864239605332 [Eh]
	 Correlation Energy        =      -0.3085521049531306 [Eh]
	 Total Energy              =     -99.7594048742054298 [Eh]
	 SCS Total Energy          =     -99.7503383716691303 [Eh]
                               Psi4 1.8.2 release
    Molecular point group: c1

    Geometry (in Bohr), charge = -1, multiplicity = 1:

       Center              X                  Y                   Z               Mass
    ------------   -----------------  -----------------  -----------------  -----------------
         NA           0.000000000000     0.000000000000     0.000000000000    22.989769282000
         F            0.000000000000     3.665274998415     0.000000000000    18.998403162730
         F            4.764857497940     0.000000000000     0.000000000000    18.998403162730

  Charge       = -1
  Multiplicity = 1
  Basis Set: AUG-CC-PVTZ
    Blend: AUG-CC-PVTZ
  Basis Set: (AUG-CC-PVTZ AUX)
    Blend: AUG-CC-PVTZ-JKFIT + DEF2-UNIVERSAL-JKFIT

    Orbital Energies [Eh]
    ---------------------

    Doubly Occupied:

       1A    -40.255619     2A    -25.902204     3A    -25.872805
       4A     -2.580821     5A     -1.308259     6A     -1.305376
       7A     -1.302142     8A     -1.155195     9A     -1.117333
      10A     -0.273955    11A     -0.261799    12A     -0.261447
      13A     -0.224353    14A     -0.221507    15A     -0.220111

  @DF-RHF Final Energy:  -360.86137961835544

   => Energetics <=

    Nuclear Repulsion Energy =             61.2615473272102378
    One-Electron Energy =                -639.7200008851104940
    Two-Electron Energy =                 217.5970739395448277
    Total Energy =                       -360.8613796183554427
 Dipole X            :        -47.3239082           42.8837175           -4.4401907
 Dipole Y            :        -36.3127151           32.9874750           -3.3252401
 Dipole Z            :         -0.0000000            0.0000000           -0.0000000
 Magnitude           :                                                    5.5472980
  Basis Set: (AUG-CC-PVTZ AUX)
    Blend: AUG-CC-PVTZ-RI + DEF2-QZVPP-RI
	 Reference Energy          =    -360.8613796183554427 [Eh]
	 Singles Energy            =      -0.0000000000000000 [Eh]
	 Same-Spin Energy          =      -0.1646991062886855 [Eh]
	 Opposite-Spin Energy      =      -0.4606413008304381 [Eh]
	 Correlation Energy        =      -0.6253404071191236 [Eh]
	 Total Energy              =    -361.4867200254745399 [Eh]

	 ================> DF-SCS-MP2 Energies <==================
	-----------------------------------------------------------
	 SCS Same-Spin Scale       =       0.3333333333333333 [-]
	 SCS Opposite-Spin Scale   =       1.2000000000000000 [-]
	 SCS Same-Spin Energy      =      -0.0548997020962285 [Eh]
	 SCS Opposite-Spin Energy  =      -0.5527695609965257 [Eh]
	 SCS Correlation Energy    =      -0.6076692630927543 [Eh]
	 SCS Total Energy          =    -361.4690488814482023 [Eh]
	-----------------------------------------------------------

*** Psi4 exiting successfully. Buy a developer a beer!
