                               Psi4 1.8.2 release

  ==> Input File <==

--------------------------------------------------------------------------
MEMORY 60 GB

molecule dimer {
-1 1
Gh(Na)     0.000000     0.000000     0.000000
Gh(F)      0.000000     1.939580     0.000000
F          2.327496     0.000000     0.000000

units ang
no_reorient
no_com
symmetry c1
}

set {
basis        aug-cc-pVTZ
scf_type     df
}

energy("mp2")
--------------------------------------------------------------------------

    Molecular point group: c1

    Geometry (in Angstrom), charge = -1, multiplicity = 1:

       Center              X                  Y                   Z               Mass
    ------------   -----------------  -----------------  -----------------  -----------------
      Gh(NA)          0.000000000000     0.000000000000     0.000000000000    22.989769282000
      Gh(F)           0.000000000000     1.939580000000     0.000000000000    18.998403162730
         F            2.327496000000     0.000000000000     0.000000000000    18.998403162730

  Charge       = -1
  Multiplicity = 1
  Basis Set: AUG-CC-PVTZ
    Blend: AUG-CC-PVTZ
  Basis Set: (AUG-CC-PVTZ AUX)
    Blend: AUG-CC-PVTZ-JKFIT + DEF2-UNIVERSAL-JKFIT

    Orbital Energies [Eh]
    ---------------------

    Doubly Occupied:

       1A    -25.833831     2A     -1.076086     3A     -0.181061
       4A     -0.181004     5A     -0.181001

  @DF-RHF Final Energy:   -99.45086630899857

   => Energetics <=

    Nuclear Repulsion Energy =              0.0000000000000000
    One-Electron Energy =                -143.9957665855731364
    Two-Electron Energy =                  44.5449002765745661
    Total Energy =                        -99.4508663089985703
 Dipole X            :        -43.9843137           39.5849700           -4.3993437
 Dipole Y            :         -0.0001751            0.0000000           -0.0001751
 Dipole Z            :          0.0000000            0.0000000            0.0000000
 Magnitude           :                                                    4.3993437
  Basis Set: (AUG-CC-PVTZ AUX)
    Blend: AUG-CC-PVTZ-RI + DEF2-QZVPP-RI
	 Reference Energy          =     -99.4508663089985703 [Eh]
	 Singles Energy            =      -0.0000000000000000 [Eh]
	 Same-Spin Energy          =      -0.0816875119281834 [Eh]
	 Opposite-Spin Energy      =      -0.2270378870593249 [Eh]
	 Correlation Energy        =      -0.3087253989875084 [Eh]
	 Total Energy              =     -99.7595917079860754 [Eh]

	 ================> DF-SCS-MP2 Energies <==================
	-----------------------------------------------------------
	 SCS Same-Spin Scale       =       0.3333333333333333 [-]
	 SCS Opposite-Spin Scale   =       1.2000000000000000 [-]
	 SCS Same-Spin Energy      =      -0.0272291706427278 [Eh]
	 SCS Opposite-Spin Energy  =      -0.2724454644711899 [Eh]
	 SCS Correlation Energy    =      -0.2996746351139177 [Eh]
	 SCS Total Energy          =     -99.7505409441124868 [Eh]
	-----------------------------------------------------------

*** Psi4 exiting successfully. Buy a developer a beer!
