                               Psi4 1.8.2 release

  ==> Input File <==

--------------------------------------------------------------------------
MEMORY 60 GB

molecule dimer {
1 1
Na     0.000000     0.000000     0.000000
--
-1 1
F      0.000000     1.939580     0.000000
--
-1 1
F      2.909370     0.000000     0.000000

units ang
no_reorient
no_com
symmetry c1
}

set {
basis        aug-cc-pVTZ
scf_type     df
}

energy("mp2", bsse_type="cp")
--------------------------------------------------------------------------

                               Psi4 1.8.2 release
    Molecular point group: c1
  Charge       = 1
  Multiplicity = 1
  Basis Set: AUG-CC-PVTZ
    Blend: AUG-CC-PVTZ
  Basis Set: (AUG-CC-PVTZ AUX)
    Blend: AUG-CC-PVTZ-JKFIT + DEF2-UNIVERSAL-JKFIT
  @DF-RHF Final Energy:  -161.67604404028603
    Total Energy =                       -161.6760440402860013
 Dipole X            :          0.0003754            0.0000000            0.0003754
 Dipole Y            :          0.0004038            0.0000000            0.0004038
 Dipole Z            :         -0.0000000            0.0000000           -0.0000000
 Magnitude           :                                                    0.0005513
  Basis Set: (AUG-CC-PVTZ AUX)
    Blend: AUG-CC-PVTZ-RI + DEF2-QZVPP-RI
	 Reference Energy          =    -161.6760440402860297 [Eh]
	 Singles Energy            =      -0.0000000000000000 [Eh]
	 Same-Spin Energy          =      -0.0028827045988978 [Eh]
	 Opposite-Spin Energy      =      -0.0105024350575510 [Eh]
	 Correlation Energy        =      -0.0133851396564487 [Eh]
	 Total Energy              =    -161.6894291799424650 [Eh]
	 SCS Total Energy          =    -161.6896078638880567 [Eh]
                               Psi4 1.8.2 release
    Molecular point group: c1
  Basis Set: AUG-CC-PVTZ
    Blend: AUG-CC-PVTZ
  Basis Set: (AUG-CC-PVTZ AUX)
    Blend: AUG-CC-PVTZ-JKFIT + DEF2-UNIVERSAL-JKFIT
  @DF-RHF Final Energy:   -99.45086099583395
    Total Energy =                        -99.4508609958339491
  Basis Set: (AUG-CC-PVTZ AUX)
                               Psi4 1.8.2 release
  @DF-RHF Final Energy:  -198.75533338613064
    Total Energy =                       -198.7553333861306442
                               Psi4 1.8.2 release
  @DF-RHF Final Energy:  -261.31290108645464
    Total Energy =                       -261.3129010864546444
                               Psi4 1.8.2 release
  @DF-RHF Final Energy:  -261.37053438347726
    Total Energy =                       -261.3705343834773203
                               Psi4 1.8.2 release
  Multiplicity = 1
  @DF-RHF Final Energy:   -99.45083192736908
    Total Energy =                        -99.4508319273690802
	 Singles Energy            =      -0.0000000000000000 [Eh]
	 Same-Spin Energy          =      -0.0816325031211112 [Eh]
	 Opposite-Spin Energy      =      -0.2266802276434990 [Eh]
	 Correlation Energy        =      -0.3083127307646102 [Eh]
	 Total Energy              =     -99.7591446581336925 [Eh]
	 SCS Total Energy          =     -99.7500590349149832 [Eh]
                               Psi4 1.8.2 release
    Molecular point group: c1

    Geometry (in Bohr), charge = -1, multiplicity = 1:

       Center              X                  Y                   Z               Mass
    ------------   -----------------  -----------------  -----------------  -----------------
         NA           0.000000000000     0.000000000000     0.000000000000    22.989769282000
         F            0.000000000000     3.665274998415     0.000000000000    18.998403162730
         F            5.497912497623     0.000000000000     0.000000000000    18.998403162730

  Charge       = -1
  Multiplicity = 1
  Basis Set: AUG-CC-PVTZ
    Blend: AUG-CC-PVTZ
  Basis Set: (AUG-CC-PVTZ AUX)
    Blend: AUG-CC-PVTZ-JKFIT + DEF2-UNIVERSAL-JKFIT

    Orbital Energies [Eh]
    ---------------------

    Doubly Occupied:

       1A    -40.283744     2A    -25.916235     3A    -25.864538
       4A     -2.608126     5A     -1.334818     6A     -1.332451
       7A     -1.329979     8A     -1.169684     9A     -1.107154
      10A     -0.287499    11A     -0.275333    12A     -0.274837
      13A     -0.212716    14A     -0.211941    15A     -0.211378

  @DF-RHF Final Energy:  -360.85102467853773

   => Energetics <=

    Nuclear Repulsion Energy =             57.2755703146413353
    One-Electron Energy =                -631.4123258574288684
    Two-Electron Energy =                 213.2857308642498708
    Total Energy =                       -360.8510246785376694
 Dipole X            :        -54.6975393           49.4812125           -5.2163268
 Dipole Y            :        -36.3143121           32.9874750           -3.3268371
 Dipole Z            :          0.0000000            0.0000000            0.0000000
 Magnitude           :                                                    6.1869144
  Basis Set: (AUG-CC-PVTZ AUX)
    Blend: AUG-CC-PVTZ-RI + DEF2-QZVPP-RI
	 Reference Energy          =    -360.8510246785377262 [Eh]
	 Singles Energy            =      -0.0000000000000000 [Eh]
	 Same-Spin Energy          =      -0.1646756398557469 [Eh]
	 Opposite-Spin Energy      =      -0.4605279279822884 [Eh]
	 Correlation Energy        =      -0.6252035678380353 [Eh]
	 Total Energy              =    -361.4762282463757401 [Eh]

	 ================> DF-SCS-MP2 Energies <==================
	-----------------------------------------------------------
	 SCS Same-Spin Scale       =       0.3333333333333333 [-]
	 SCS Opposite-Spin Scale   =       1.2000000000000000 [-]
	 SCS Same-Spin Energy      =      -0.0548918799519156 [Eh]
	 SCS Opposite-Spin Energy  =      -0.5526335135787461 [Eh]
	 SCS Correlation Energy    =      -0.6075253935306618 [Eh]
	 SCS Total Energy          =    -361.4585500720683626 [Eh]
	-----------------------------------------------------------

*** Psi4 exiting successfully. Buy a developer a beer!
