                               Psi4 1.8.2 release

  ==> Input File <==

--------------------------------------------------------------------------
MEMORY 60 GB

molecule dimer {
-1 1
Gh(Na)     0.000000     0.000000     0.000000
F          0.000000     1.939580     0.000000
Gh(F)      2.715412     0.000000     0.000000

units ang
no_reorient
no_com
symmetry c1
}

set {
basis        aug-cc-pVTZ
scf_type     df
}

energy("mp2")
--------------------------------------------------------------------------

    Molecular point group: c1

    Geometry (in Angstrom), charge = -1, multiplicity = 1:

       Center              X                  Y                   Z               Mass
    ------------   -----------------  -----------------  -----------------  -----------------
      Gh(NA)          0.000000000000     0.000000000000     0.000000000000    22.989769282000
         F            0.000000000000     1.939580000000     0.000000000000    18.998403162730
      Gh(F)           2.715412000000     0.000000000000     0.000000000000    18.998403162730

  Charge       = -1
  Multiplicity = 1
  Basis Set: AUG-CC-PVTZ
    Blend: AUG-CC-PVTZ
  Basis Set: (AUG-CC-PVTZ AUX)
    Blend: AUG-CC-PVTZ-JKFIT + DEF2-UNIVERSAL-JKFIT

    Orbital Energies [Eh]
    ---------------------

    Doubly Occupied:

       1A    -25.833844     2A     -1.076086     3A     -0.181036
       4A     -0.181019     5A     -0.181013

  @DF-RHF Final Energy:   -99.45086443929608

   => Energetics <=

    Nuclear Repulsion Energy =              0.0000000000000000
    One-Electron Energy =                -143.9957327639541802
    Two-Electron Energy =                  44.5448683246580899
    Total Energy =                        -99.4508644392960832
 Dipole X            :         -0.0000214            0.0000000           -0.0000214
 Dipole Y            :        -36.6535235           32.9874750           -3.6660486
 Dipole Z            :          0.0000000            0.0000000            0.0000000
 Magnitude           :                                                    3.6660486
  Basis Set: (AUG-CC-PVTZ AUX)
    Blend: AUG-CC-PVTZ-RI + DEF2-QZVPP-RI
	 Reference Energy          =     -99.4508644392960832 [Eh]
	 Singles Energy            =      -0.0000000000000000 [Eh]
	 Same-Spin Energy          =      -0.0817179543981719 [Eh]
	 Opposite-Spin Energy      =      -0.2272664440558927 [Eh]
	 Correlation Energy        =      -0.3089843984540646 [Eh]
	 Total Energy              =     -99.7598488377501411 [Eh]

	 ================> DF-SCS-MP2 Energies <==================
	-----------------------------------------------------------
	 SCS Same-Spin Scale       =       0.3333333333333333 [-]
	 SCS Opposite-Spin Scale   =       1.2000000000000000 [-]
	 SCS Same-Spin Energy      =      -0.0272393181327240 [Eh]
	 SCS Opposite-Spin Energy  =      -0.2727197328670712 [Eh]
	 SCS Correlation Energy    =      -0.2999590509997952 [Eh]
	 SCS Total Energy          =     -99.7508234902958719 [Eh]
	-----------------------------------------------------------

*** Psi4 exiting successfully. Buy a developer a beer!
