                               Psi4 1.9 release

  ==> Input File <==

--------------------------------------------------------------------------
MEMORY 60 GB

molecule dimer {
0 1
Na     0.000000     0.000000     0.000000
F      0.000000     1.939580     0.000000
--
-1 1
F      3.879160     0.000000     0.000000

units ang
no_reorient
no_com
symmetry c1
}

set {
basis        aug-cc-pVTZ
scf_type     df
}

energy("mp2", bsse_type="cp")
--------------------------------------------------------------------------

                               Psi4 1.9 release
    Molecular point group: c1
  Charge       = -1
  Multiplicity = 1
  Basis Set: AUG-CC-PVTZ
    Blend: AUG-CC-PVTZ
  Basis Set: (AUG-CC-PVTZ AUX)
    Blend: AUG-CC-PVTZ-JKFIT + DEF2-UNIVERSAL-JKFIT
  @DF-RHF Final Energy:   -99.45082264034829
    Total Energy =                        -99.4508226403482922
 Dipole X            :        -73.3053843           65.9749500           -7.3304343
 Dipole Y            :          0.0000109            0.0000000            0.0000109
 Dipole Z            :          0.0000000            0.0000000            0.0000000
 Magnitude           :                                                    7.3304343
  Basis Set: (AUG-CC-PVTZ AUX)
    Blend: AUG-CC-PVTZ-RI + DEF2-QZVPP-RI
	 Reference Energy          =     -99.4508226403482922 [Eh]
	 Singles Energy            =      -0.0000000000000000 [Eh]
	 Same-Spin Energy          =      -0.0815948432548228 [Eh]
	 Opposite-Spin Energy      =      -0.2264452915099115 [Eh]
	 Correlation Energy        =      -0.3080401347647343 [Eh]
	 Total Energy              =     -99.7588627751130304 [Eh]
	 SCS Total Energy          =     -99.7497552712451210 [Eh]
                               Psi4 1.9 release
    Molecular point group: c1
  Multiplicity = 1
  Basis Set: AUG-CC-PVTZ
    Blend: AUG-CC-PVTZ
  Basis Set: (AUG-CC-PVTZ AUX)
    Blend: AUG-CC-PVTZ-JKFIT + DEF2-UNIVERSAL-JKFIT
  @DF-RHF Final Energy:  -261.37051486368500
    Total Energy =                       -261.3705148636850026
  Basis Set: (AUG-CC-PVTZ AUX)
	 Singles Energy            =      -0.0000000000000000 [Eh]
	 Same-Spin Energy          =      -0.0826076425219196 [Eh]
	 Opposite-Spin Energy      =      -0.2330015384972537 [Eh]
	 Correlation Energy        =      -0.3156091810191732 [Eh]
	 Total Energy              =    -261.6861240447041723 [Eh]
	 SCS Total Energy          =    -261.6776525907223458 [Eh]
                               Psi4 1.9 release
    Molecular point group: c1

    Geometry (in Bohr), charge = -1, multiplicity = 1:

       Center              X                  Y                   Z               Mass
    ------------   -----------------  -----------------  -----------------  -----------------
         NA           0.000000000000     0.000000000000     0.000000000000    22.989769282000
         F            0.000000000000     3.665274998415     0.000000000000    18.998403162730
         F            7.330549996831     0.000000000000     0.000000000000    18.998403162730

  Charge       = -1
  Multiplicity = 1
  Basis Set: AUG-CC-PVTZ
    Blend: AUG-CC-PVTZ
  Basis Set: (AUG-CC-PVTZ AUX)
    Blend: AUG-CC-PVTZ-JKFIT + DEF2-UNIVERSAL-JKFIT

    Orbital Energies [Eh]
    ---------------------

    Doubly Occupied:

       1A    -40.329639     2A    -25.945240     3A    -25.849104
       4A     -2.653727     5A     -1.379490     6A     -1.377672
       7A     -1.376547     8A     -1.199235     9A     -1.091191
      10A     -0.316380    11A     -0.304246    12A     -0.303748
      13A     -0.196276    14A     -0.196190    15A     -0.195649

  @DF-RHF Final Energy:  -360.83522069835692

   => Energetics <=

    Nuclear Repulsion Energy =             50.3984834194851032
    One-Electron Energy =                -617.0387324278526648
    Two-Electron Energy =                 205.8050283100107265
    Total Energy =                       -360.8352206983569204
 Dipole X            :        -73.1351670           65.9749500           -7.1602170
 Dipole Y            :        -36.3241189           32.9874750           -3.3366439
 Dipole Z            :         -0.0000000            0.0000000           -0.0000000
 Magnitude           :                                                    7.8994874
  Basis Set: (AUG-CC-PVTZ AUX)
    Blend: AUG-CC-PVTZ-RI + DEF2-QZVPP-RI
	 Reference Energy          =    -360.8352206983569204 [Eh]
	 Singles Energy            =      -0.0000000000000000 [Eh]
	 Same-Spin Energy          =      -0.1643182591819909 [Eh]
	 Opposite-Spin Energy      =      -0.4596186118768623 [Eh]
	 Correlation Energy        =      -0.6239368710588532 [Eh]
	 Total Energy              =    -361.4591575694157655 [Eh]

	 ================> DF-SCS-MP2 Energies <==================
	-----------------------------------------------------------
	 SCS Same-Spin Scale       =       0.3333333333333333 [-]
	 SCS Opposite-Spin Scale   =       1.2000000000000000 [-]
	 SCS Same-Spin Energy      =      -0.0547727530606636 [Eh]
	 SCS Opposite-Spin Energy  =      -0.5515423342522348 [Eh]
	 SCS Correlation Energy    =      -0.6063150873128984 [Eh]
	 SCS Total Energy          =    -361.4415357856698279 [Eh]
	-----------------------------------------------------------

*** Psi4 exiting successfully. Buy a developer a beer!
