                               Psi4 1.8.2 release

  ==> Input File <==

--------------------------------------------------------------------------
MEMORY 60 GB

molecule dimer {
-1 1
Gh(Na)     0.000000     0.000000     0.000000
Gh(F)      0.000000     1.939580     0.000000
F          2.715412     0.000000     0.000000

units ang
no_reorient
no_com
symmetry c1
}

set {
basis        aug-cc-pVTZ
scf_type     df
}

energy("mp2")
--------------------------------------------------------------------------

    Molecular point group: c1

    Geometry (in Angstrom), charge = -1, multiplicity = 1:

       Center              X                  Y                   Z               Mass
    ------------   -----------------  -----------------  -----------------  -----------------
      Gh(NA)          0.000000000000     0.000000000000     0.000000000000    22.989769282000
      Gh(F)           0.000000000000     1.939580000000     0.000000000000    18.998403162730
         F            2.715412000000     0.000000000000     0.000000000000    18.998403162730

  Charge       = -1
  Multiplicity = 1
  Basis Set: AUG-CC-PVTZ
    Blend: AUG-CC-PVTZ
  Basis Set: (AUG-CC-PVTZ AUX)
    Blend: AUG-CC-PVTZ-JKFIT + DEF2-UNIVERSAL-JKFIT

    Orbital Energies [Eh]
    ---------------------

    Doubly Occupied:

       1A    -25.833865     2A     -1.076102     3A     -0.181052
       4A     -0.181020     5A     -0.181018

  @DF-RHF Final Energy:   -99.45083986772255

   => Energetics <=

    Nuclear Repulsion Energy =              0.0000000000000000
    One-Electron Energy =                -143.9955670368077278
    Two-Electron Energy =                  44.5447271690851778
    Total Energy =                        -99.4508398677225500
 Dipole X            :        -51.3139883           46.1824650           -5.1315233
 Dipole Y            :         -0.0001755            0.0000000           -0.0001755
 Dipole Z            :          0.0000000            0.0000000            0.0000000
 Magnitude           :                                                    5.1315233
  Basis Set: (AUG-CC-PVTZ AUX)
    Blend: AUG-CC-PVTZ-RI + DEF2-QZVPP-RI
	 Reference Energy          =     -99.4508398677225500 [Eh]
	 Singles Energy            =      -0.0000000000000000 [Eh]
	 Same-Spin Energy          =      -0.0816471696654397 [Eh]
	 Opposite-Spin Energy      =      -0.2267691091110247 [Eh]
	 Correlation Energy        =      -0.3084162787764643 [Eh]
	 Total Energy              =     -99.7592561464990126 [Eh]

	 ================> DF-SCS-MP2 Energies <==================
	-----------------------------------------------------------
	 SCS Same-Spin Scale       =       0.3333333333333333 [-]
	 SCS Opposite-Spin Scale   =       1.2000000000000000 [-]
	 SCS Same-Spin Energy      =      -0.0272157232218132 [Eh]
	 SCS Opposite-Spin Energy  =      -0.2721229309332296 [Eh]
	 SCS Correlation Energy    =      -0.2993386541550428 [Eh]
	 SCS Total Energy          =     -99.7501785218775865 [Eh]
	-----------------------------------------------------------

*** Psi4 exiting successfully. Buy a developer a beer!
