                               Psi4 1.9 release

  ==> Input File <==

--------------------------------------------------------------------------
MEMORY 60 GB

molecule dimer {
0 1
Na     0.000000     0.000000     0.000000
F      0.000000     1.939580     0.000000
--
-1 1
F      2.909370     0.000000     0.000000

units ang
no_reorient
no_com
symmetry c1
}

set {
basis        aug-cc-pVTZ
scf_type     df
}

energy("mp2", bsse_type="cp")
--------------------------------------------------------------------------

                               Psi4 1.9 release
    Molecular point group: c1
  Charge       = -1
  Multiplicity = 1
  Basis Set: AUG-CC-PVTZ
    Blend: AUG-CC-PVTZ
  Basis Set: (AUG-CC-PVTZ AUX)
    Blend: AUG-CC-PVTZ-JKFIT + DEF2-UNIVERSAL-JKFIT
  @DF-RHF Final Energy:   -99.45083192737044
    Total Energy =                        -99.4508319273704444
 Dipole X            :        -54.9788533           49.4812125           -5.4976408
 Dipole Y            :         -0.0001444            0.0000000           -0.0001444
 Dipole Z            :          0.0000000            0.0000000            0.0000000
 Magnitude           :                                                    5.4976408
  Basis Set: (AUG-CC-PVTZ AUX)
    Blend: AUG-CC-PVTZ-RI + DEF2-QZVPP-RI
	 Reference Energy          =     -99.4508319273704444 [Eh]
	 Singles Energy            =      -0.0000000000000000 [Eh]
	 Same-Spin Energy          =      -0.0816325031211083 [Eh]
	 Opposite-Spin Energy      =      -0.2266802276434924 [Eh]
	 Correlation Energy        =      -0.3083127307646007 [Eh]
	 Total Energy              =     -99.7591446581350425 [Eh]
	 SCS Total Energy          =     -99.7500590349163332 [Eh]
                               Psi4 1.9 release
    Molecular point group: c1
  Multiplicity = 1
  Basis Set: AUG-CC-PVTZ
    Blend: AUG-CC-PVTZ
  Basis Set: (AUG-CC-PVTZ AUX)
    Blend: AUG-CC-PVTZ-JKFIT + DEF2-UNIVERSAL-JKFIT
  @DF-RHF Final Energy:  -261.37053438345606
    Total Energy =                       -261.3705343834560608
  Basis Set: (AUG-CC-PVTZ AUX)
	 Singles Energy            =      -0.0000000000000000 [Eh]
	 Same-Spin Energy          =      -0.0828519518067392 [Eh]
	 Opposite-Spin Energy      =      -0.2336469923014968 [Eh]
	 Correlation Energy        =      -0.3164989441082360 [Eh]
	 Total Energy              =    -261.6870333275642793 [Eh]
	 SCS Total Energy          =    -261.6785280914867826 [Eh]
                               Psi4 1.9 release
    Molecular point group: c1

    Geometry (in Bohr), charge = -1, multiplicity = 1:

       Center              X                  Y                   Z               Mass
    ------------   -----------------  -----------------  -----------------  -----------------
         NA           0.000000000000     0.000000000000     0.000000000000    22.989769282000
         F            0.000000000000     3.665274998415     0.000000000000    18.998403162730
         F            5.497912497623     0.000000000000     0.000000000000    18.998403162730

  Charge       = -1
  Multiplicity = 1
  Basis Set: AUG-CC-PVTZ
    Blend: AUG-CC-PVTZ
  Basis Set: (AUG-CC-PVTZ AUX)
    Blend: AUG-CC-PVTZ-JKFIT + DEF2-UNIVERSAL-JKFIT

    Orbital Energies [Eh]
    ---------------------

    Doubly Occupied:

       1A    -40.283744     2A    -25.916235     3A    -25.864538
       4A     -2.608126     5A     -1.334818     6A     -1.332451
       7A     -1.329979     8A     -1.169684     9A     -1.107154
      10A     -0.287499    11A     -0.275333    12A     -0.274837
      13A     -0.212716    14A     -0.211941    15A     -0.211378

  @DF-RHF Final Energy:  -360.85102467851817

   => Energetics <=

    Nuclear Repulsion Energy =             57.2755703146413353
    One-Electron Energy =                -631.4123258574173860
    Two-Electron Energy =                 213.2857308642579426
    Total Energy =                       -360.8510246785181153
 Dipole X            :        -54.6975393           49.4812125           -5.2163268
 Dipole Y            :        -36.3143121           32.9874750           -3.3268371
 Dipole Z            :          0.0000000            0.0000000            0.0000000
 Magnitude           :                                                    6.1869144
  Basis Set: (AUG-CC-PVTZ AUX)
    Blend: AUG-CC-PVTZ-RI + DEF2-QZVPP-RI
	 Reference Energy          =    -360.8510246785181721 [Eh]
	 Singles Energy            =      -0.0000000000000000 [Eh]
	 Same-Spin Energy          =      -0.1646756398557899 [Eh]
	 Opposite-Spin Energy      =      -0.4605279279823788 [Eh]
	 Correlation Energy        =      -0.6252035678381688 [Eh]
	 Total Energy              =    -361.4762282463563565 [Eh]

	 ================> DF-SCS-MP2 Energies <==================
	-----------------------------------------------------------
	 SCS Same-Spin Scale       =       0.3333333333333333 [-]
	 SCS Opposite-Spin Scale   =       1.2000000000000000 [-]
	 SCS Same-Spin Energy      =      -0.0548918799519300 [Eh]
	 SCS Opposite-Spin Energy  =      -0.5526335135788546 [Eh]
	 SCS Correlation Energy    =      -0.6075253935307846 [Eh]
	 SCS Total Energy          =    -361.4585500720489790 [Eh]
	-----------------------------------------------------------

*** Psi4 exiting successfully. Buy a developer a beer!
