                               Psi4 1.8.2 release

  ==> Input File <==

--------------------------------------------------------------------------
MEMORY 60 GB

molecule dimer {
-1 1
Na         0.000000     0.000000     0.000000
F          0.000000     1.939580     0.000000
F          2.909370     0.000000     0.000000

units ang
no_reorient
no_com
symmetry c1
}

set {
basis        aug-cc-pVTZ
scf_type     df
}

energy("mp2")
--------------------------------------------------------------------------

    Molecular point group: c1

    Geometry (in Angstrom), charge = -1, multiplicity = 1:

       Center              X                  Y                   Z               Mass
    ------------   -----------------  -----------------  -----------------  -----------------
         NA           0.000000000000     0.000000000000     0.000000000000    22.989769282000
         F            0.000000000000     1.939580000000     0.000000000000    18.998403162730
         F            2.909370000000     0.000000000000     0.000000000000    18.998403162730

  Charge       = -1
  Multiplicity = 1
  Basis Set: AUG-CC-PVTZ
    Blend: AUG-CC-PVTZ
  Basis Set: (AUG-CC-PVTZ AUX)
    Blend: AUG-CC-PVTZ-JKFIT + DEF2-UNIVERSAL-JKFIT

    Orbital Energies [Eh]
    ---------------------

    Doubly Occupied:

       1A    -40.283744     2A    -25.916235     3A    -25.864538
       4A     -2.608126     5A     -1.334818     6A     -1.332451
       7A     -1.329979     8A     -1.169684     9A     -1.107154
      10A     -0.287499    11A     -0.275333    12A     -0.274837
      13A     -0.212716    14A     -0.211941    15A     -0.211378

  @DF-RHF Final Energy:  -360.85102467853795

   => Energetics <=

    Nuclear Repulsion Energy =             57.2755703146413353
    One-Electron Energy =                -631.4123258574289821
    Two-Electron Energy =                 213.2857308642497571
    Total Energy =                       -360.8510246785378968
 Dipole X            :        -54.6975393           49.4812125           -5.2163268
 Dipole Y            :        -36.3143121           32.9874750           -3.3268371
 Dipole Z            :          0.0000000            0.0000000            0.0000000
 Magnitude           :                                                    6.1869144
  Basis Set: (AUG-CC-PVTZ AUX)
    Blend: AUG-CC-PVTZ-RI + DEF2-QZVPP-RI
	 Reference Energy          =    -360.8510246785379536 [Eh]
	 Singles Energy            =      -0.0000000000000000 [Eh]
	 Same-Spin Energy          =      -0.1646756398557477 [Eh]
	 Opposite-Spin Energy      =      -0.4605279279822895 [Eh]
	 Correlation Energy        =      -0.6252035678380372 [Eh]
	 Total Energy              =    -361.4762282463759675 [Eh]

	 ================> DF-SCS-MP2 Energies <==================
	-----------------------------------------------------------
	 SCS Same-Spin Scale       =       0.3333333333333333 [-]
	 SCS Opposite-Spin Scale   =       1.2000000000000000 [-]
	 SCS Same-Spin Energy      =      -0.0548918799519159 [Eh]
	 SCS Opposite-Spin Energy  =      -0.5526335135787473 [Eh]
	 SCS Correlation Energy    =      -0.6075253935306633 [Eh]
	 SCS Total Energy          =    -361.4585500720685900 [Eh]
	-----------------------------------------------------------

*** Psi4 exiting successfully. Buy a developer a beer!
