                               Psi4 1.8.2 release

  ==> Input File <==

--------------------------------------------------------------------------
MEMORY 60 GB

molecule dimer {
1 1
Gh(Cl)     0.000000     0.000000     0.000000
Gh(Na)     0.000000     2.370103     0.000000
Na         3.555154     0.000000     0.000000

units ang
no_reorient
no_com
symmetry c1
}

set {
basis        aug-cc-pVTZ
scf_type     df
}

energy("mp2")
--------------------------------------------------------------------------

    Molecular point group: c1

    Geometry (in Angstrom), charge = 1, multiplicity = 1:

       Center              X                  Y                   Z               Mass
    ------------   -----------------  -----------------  -----------------  -----------------
      Gh(CL)          0.000000000000     0.000000000000     0.000000000000    34.968852682000
      Gh(NA)          0.000000000000     2.370103000000     0.000000000000    22.989769282000
         NA           3.555154000000     0.000000000000     0.000000000000    22.989769282000

  Charge       = 1
  Multiplicity = 1
  Basis Set: AUG-CC-PVTZ
    Blend: AUG-CC-PVTZ
  Basis Set: (AUG-CC-PVTZ AUX)
    Blend: AUG-CC-PVTZ-JKFIT + DEF2-UNIVERSAL-JKFIT

    Orbital Energies [Eh]
    ---------------------

    Doubly Occupied:

       1A    -40.763250     2A     -3.075117     3A     -1.798363
       4A     -1.798266     5A     -1.798248

  @DF-RHF Final Energy:  -161.67603268420385

   => Energetics <=

    Nuclear Repulsion Energy =              0.0000000000000000
    One-Electron Energy =                -224.8855808835351979
    Two-Electron Energy =                  63.2095481993313300
    Total Energy =                       -161.6760326842038751
 Dipole X            :        -67.1831297           73.9009413            6.7178116
 Dipole Y            :          0.0000869            0.0000000            0.0000869
 Dipole Z            :          0.0000000            0.0000000            0.0000000
 Magnitude           :                                                    6.7178116
  Basis Set: (AUG-CC-PVTZ AUX)
    Blend: AUG-CC-PVTZ-RI + DEF2-QZVPP-RI
	 Reference Energy          =    -161.6760326842038467 [Eh]
	 Singles Energy            =      -0.0000000000000000 [Eh]
	 Same-Spin Energy          =      -0.0021426366429266 [Eh]
	 Opposite-Spin Energy      =      -0.0084347388510198 [Eh]
	 Correlation Energy        =      -0.0105773754939464 [Eh]
	 Total Energy              =    -161.6866100596977844 [Eh]

	 ================> DF-SCS-MP2 Energies <==================
	-----------------------------------------------------------
	 SCS Same-Spin Scale       =       0.3333333333333333 [-]
	 SCS Opposite-Spin Scale   =       1.2000000000000000 [-]
	 SCS Same-Spin Energy      =      -0.0007142122143089 [Eh]
	 SCS Opposite-Spin Energy  =      -0.0101216866212237 [Eh]
	 SCS Correlation Energy    =      -0.0108358988355326 [Eh]
	 SCS Total Energy          =    -161.6868685830393702 [Eh]
	-----------------------------------------------------------

*** Psi4 exiting successfully. Buy a developer a beer!
