                               Psi4 1.9 release

  ==> Input File <==

--------------------------------------------------------------------------
MEMORY 60 GB

molecule dimer {
0 1
Cl     0.000000     0.000000     0.000000
Na     0.000000     2.370103     0.000000
--
1 1
Na     3.318144     0.000000     0.000000

units ang
no_reorient
no_com
symmetry c1
}

set {
basis        aug-cc-pVTZ
scf_type     df
}

energy("mp2", bsse_type="cp")
--------------------------------------------------------------------------

                               Psi4 1.9 release
    Molecular point group: c1
  Charge       = 1
  Multiplicity = 1
  Basis Set: AUG-CC-PVTZ
    Blend: AUG-CC-PVTZ
  Basis Set: (AUG-CC-PVTZ AUX)
    Blend: AUG-CC-PVTZ-JKFIT + DEF2-UNIVERSAL-JKFIT
  @DF-RHF Final Energy:  -161.67603420706578
    Total Energy =                       -161.6760342070657828
 Dipole X            :        -62.7044053           68.9742175            6.2698122
 Dipole Y            :          0.0000942            0.0000000            0.0000942
 Dipole Z            :         -0.0000000            0.0000000           -0.0000000
 Magnitude           :                                                    6.2698122
  Basis Set: (AUG-CC-PVTZ AUX)
    Blend: AUG-CC-PVTZ-RI + DEF2-QZVPP-RI
	 Reference Energy          =    -161.6760342070657828 [Eh]
	 Singles Energy            =      -0.0000000000000000 [Eh]
	 Same-Spin Energy          =      -0.0022399037410033 [Eh]
	 Opposite-Spin Energy      =      -0.0087096737471188 [Eh]
	 Correlation Energy        =      -0.0109495774881221 [Eh]
	 Total Energy              =    -161.6869837845539166 [Eh]
	 SCS Total Energy          =    -161.6872324501426590 [Eh]
                               Psi4 1.9 release
    Molecular point group: c1
  Multiplicity = 1
  Basis Set: AUG-CC-PVTZ
    Blend: AUG-CC-PVTZ
  Basis Set: (AUG-CC-PVTZ AUX)
    Blend: AUG-CC-PVTZ-JKFIT + DEF2-UNIVERSAL-JKFIT
  @DF-RHF Final Energy:  -621.45487135080873
    Total Energy =                       -621.4548713508087303
  Basis Set: (AUG-CC-PVTZ AUX)
	 Singles Energy            =      -0.0000000000000000 [Eh]
	 Same-Spin Energy          =      -0.0655860225468419 [Eh]
	 Opposite-Spin Energy      =      -0.1899969729802750 [Eh]
	 Correlation Energy        =      -0.2555829955271169 [Eh]
	 Total Energy              =    -621.7104543463358368 [Eh]
	 SCS Total Energy          =    -621.7047297259006200 [Eh]
                               Psi4 1.9 release
    Molecular point group: c1

    Geometry (in Bohr), charge = 1, multiplicity = 1:

       Center              X                  Y                   Z               Mass
    ------------   -----------------  -----------------  -----------------  -----------------
         CL           0.000000000000     0.000000000000     0.000000000000    34.968852682000
         NA           0.000000000000     4.478845559126     0.000000000000    22.989769282000
         NA           6.270383404831     0.000000000000     0.000000000000    22.989769282000

  Charge       = 1
  Multiplicity = 1
  Basis Set: AUG-CC-PVTZ
    Blend: AUG-CC-PVTZ
  Basis Set: (AUG-CC-PVTZ AUX)
    Blend: AUG-CC-PVTZ-JKFIT + DEF2-UNIVERSAL-JKFIT

    Orbital Energies [Eh]
    ---------------------

    Doubly Occupied:

       1A   -104.867240     2A    -40.714096     3A    -40.633760
       4A    -10.592092     5A     -8.058198     6A     -8.058056
       7A     -8.057873     8A     -3.027017     9A     -2.955166
      10A     -1.750753    11A     -1.750414    12A     -1.749211
      13A     -1.678508    14A     -1.678064    15A     -1.677937
      16A     -1.103650    17A     -0.529144    18A     -0.519047
      19A     -0.512784

  @DF-RHF Final Energy:  -783.16653876008047

   => Energetics <=

    Nuclear Repulsion Energy =             87.2772359995529001
    One-Electron Energy =               -1261.0615307294053764
    Two-Electron Energy =                 390.6177559697719630
    Total Energy =                       -783.1665387600805843
 Dipole X            :        -63.3541950           68.9742175            5.6200225
 Dipole Y            :        -45.5503031           49.2673012            3.7169980
 Dipole Z            :         -0.0000000            0.0000000           -0.0000000
 Magnitude           :                                                    6.7380062
  Basis Set: (AUG-CC-PVTZ AUX)
    Blend: AUG-CC-PVTZ-RI + DEF2-QZVPP-RI
	 Reference Energy          =    -783.1665387600804706 [Eh]
	 Singles Energy            =      -0.0000000000000000 [Eh]
	 Same-Spin Energy          =      -0.0679736624569316 [Eh]
	 Opposite-Spin Energy      =      -0.1991798567288347 [Eh]
	 Correlation Energy        =      -0.2671535191857663 [Eh]
	 Total Energy              =    -783.4336922792662108 [Eh]

	 ================> DF-SCS-MP2 Energies <==================
	-----------------------------------------------------------
	 SCS Same-Spin Scale       =       0.3333333333333333 [-]
	 SCS Opposite-Spin Scale   =       1.2000000000000000 [-]
	 SCS Same-Spin Energy      =      -0.0226578874856439 [Eh]
	 SCS Opposite-Spin Energy  =      -0.2390158280746016 [Eh]
	 SCS Correlation Energy    =      -0.2616737155602455 [Eh]
	 SCS Total Energy          =    -783.4282124756407484 [Eh]
	-----------------------------------------------------------

*** Psi4 exiting successfully. Buy a developer a beer!
