                               Psi4 1.9 release

  ==> Input File <==

--------------------------------------------------------------------------
MEMORY 60 GB

molecule dimer {
0 1
Cl     0.000000     0.000000     0.000000
Na     0.000000     2.370103     0.000000
--
1 1
Na     2.370103     0.000000     0.000000

units ang
no_reorient
no_com
symmetry c1
}

set {
basis        aug-cc-pVTZ
scf_type     df
}

energy("mp2", bsse_type="cp")
--------------------------------------------------------------------------

                               Psi4 1.9 release
    Molecular point group: c1
  Charge       = 1
  Multiplicity = 1
  Basis Set: AUG-CC-PVTZ
    Blend: AUG-CC-PVTZ
  Basis Set: (AUG-CC-PVTZ AUX)
    Blend: AUG-CC-PVTZ-JKFIT + DEF2-UNIVERSAL-JKFIT
  @DF-RHF Final Energy:  -161.67604484844969
    Total Energy =                       -161.6760448484496919
 Dipole X            :        -44.7890385           49.2673012            4.4782627
 Dipole Y            :          0.0001716            0.0000000            0.0001716
 Dipole Z            :          0.0000000            0.0000000            0.0000000
 Magnitude           :                                                    4.4782627
  Basis Set: (AUG-CC-PVTZ AUX)
    Blend: AUG-CC-PVTZ-RI + DEF2-QZVPP-RI
	 Reference Energy          =    -161.6760448484496919 [Eh]
	 Singles Energy            =      -0.0000000000000000 [Eh]
	 Same-Spin Energy          =      -0.0029187786066352 [Eh]
	 Opposite-Spin Energy      =      -0.0105093832714437 [Eh]
	 Correlation Energy        =      -0.0134281618780789 [Eh]
	 Total Energy              =    -161.6894730103277595 [Eh]
	 SCS Total Energy          =    -161.6896290345776492 [Eh]
                               Psi4 1.9 release
    Molecular point group: c1
  Multiplicity = 1
  Basis Set: AUG-CC-PVTZ
    Blend: AUG-CC-PVTZ
  Basis Set: (AUG-CC-PVTZ AUX)
    Blend: AUG-CC-PVTZ-JKFIT + DEF2-UNIVERSAL-JKFIT
  @DF-RHF Final Energy:  -621.45491467169552
    Total Energy =                       -621.4549146716954056
  Basis Set: (AUG-CC-PVTZ AUX)
	 Singles Energy            =      -0.0000000000000000 [Eh]
	 Same-Spin Energy          =      -0.0659746866094091 [Eh]
	 Opposite-Spin Energy      =      -0.1911785047419497 [Eh]
	 Correlation Energy        =      -0.2571531913513588 [Eh]
	 Total Energy              =    -621.7120678630468547 [Eh]
	 SCS Total Energy          =    -621.7063204395890352 [Eh]
                               Psi4 1.9 release
    Molecular point group: c1

    Geometry (in Bohr), charge = 1, multiplicity = 1:

       Center              X                  Y                   Z               Mass
    ------------   -----------------  -----------------  -----------------  -----------------
         CL           0.000000000000     0.000000000000     0.000000000000    34.968852682000
         NA           0.000000000000     4.478845559126     0.000000000000    22.989769282000
         NA           4.478845559126     0.000000000000     0.000000000000    22.989769282000

  Charge       = 1
  Multiplicity = 1
  Basis Set: AUG-CC-PVTZ
    Blend: AUG-CC-PVTZ
  Basis Set: (AUG-CC-PVTZ AUX)
    Blend: AUG-CC-PVTZ-JKFIT + DEF2-UNIVERSAL-JKFIT

    Orbital Energies [Eh]
    ---------------------

    Doubly Occupied:

       1A   -104.903213     2A    -40.661079     3A    -40.661079
       4A    -10.629940     5A     -8.096051     6A     -8.095942
       7A     -8.095684     8A     -2.982331     9A     -2.982280
      10A     -1.706655    11A     -1.705566    12A     -1.705412
      13A     -1.705028    14A     -1.705018    15A     -1.704937
      16A     -1.151024    17A     -0.574269    18A     -0.571956
      19A     -0.556818

  @DF-RHF Final Energy:  -783.17859121911044

   => Energetics <=

    Nuclear Repulsion Energy =            102.6067799071985007
    One-Electron Energy =               -1291.1821802503461640
    Two-Electron Energy =                 405.3968091240373610
    Total Energy =                       -783.1785912191103307
 Dipole X            :        -45.5151509           49.2673012            3.7521503
 Dipole Y            :        -45.5151509           49.2673012            3.7521503
 Dipole Z            :          0.0000000            0.0000000            0.0000000
 Magnitude           :                                                    5.3063418
  Basis Set: (AUG-CC-PVTZ AUX)
    Blend: AUG-CC-PVTZ-RI + DEF2-QZVPP-RI
	 Reference Energy          =    -783.1785912191104444 [Eh]
	 Singles Energy            =      -0.0000000000000000 [Eh]
	 Same-Spin Energy          =      -0.0690407798054718 [Eh]
	 Opposite-Spin Energy      =      -0.2013935329835442 [Eh]
	 Correlation Energy        =      -0.2704343127890160 [Eh]
	 Total Energy              =    -783.4490255318994514 [Eh]

	 ================> DF-SCS-MP2 Energies <==================
	-----------------------------------------------------------
	 SCS Same-Spin Scale       =       0.3333333333333333 [-]
	 SCS Opposite-Spin Scale   =       1.2000000000000000 [-]
	 SCS Same-Spin Energy      =      -0.0230135932684906 [Eh]
	 SCS Opposite-Spin Energy  =      -0.2416722395802530 [Eh]
	 SCS Correlation Energy    =      -0.2646858328487436 [Eh]
	 SCS Total Energy          =    -783.4432770519591713 [Eh]
	-----------------------------------------------------------

*** Psi4 exiting successfully. Buy a developer a beer!
