                               Psi4 1.8.2 release

  ==> Input File <==

--------------------------------------------------------------------------
MEMORY 60 GB

molecule dimer {
-1 1
Cl         0.000000     0.000000     0.000000
Gh(Na)     0.000000     2.370103     0.000000
Gh(Na)     3.318144     0.000000     0.000000

units ang
no_reorient
no_com
symmetry c1
}

set {
basis        aug-cc-pVTZ
scf_type     df
}

energy("mp2")
--------------------------------------------------------------------------

    Molecular point group: c1

    Geometry (in Angstrom), charge = -1, multiplicity = 1:

       Center              X                  Y                   Z               Mass
    ------------   -----------------  -----------------  -----------------  -----------------
         CL           0.000000000000     0.000000000000     0.000000000000    34.968852682000
      Gh(NA)          0.000000000000     2.370103000000     0.000000000000    22.989769282000
      Gh(NA)          3.318144000000     0.000000000000     0.000000000000    22.989769282000

  Charge       = -1
  Multiplicity = 1
  Basis Set: AUG-CC-PVTZ
    Blend: AUG-CC-PVTZ
  Basis Set: (AUG-CC-PVTZ AUX)
    Blend: AUG-CC-PVTZ-JKFIT + DEF2-UNIVERSAL-JKFIT

    Orbital Energies [Eh]
    ---------------------

    Doubly Occupied:

       1A   -104.506528     2A    -10.229868     3A     -7.695929
       4A     -7.695916     5A     -7.695909     6A     -0.733484
       7A     -0.150326     8A     -0.150320     9A     -0.150309

  @DF-RHF Final Energy:  -459.57351895493179

   => Energetics <=

    Nuclear Repulsion Energy =              0.0000000000000000
    One-Electron Energy =                -641.1298551773098779
    Two-Electron Energy =                 181.5563362223780643
    Total Energy =                       -459.5735189549318420
 Dipole X            :          0.0000413            0.0000000            0.0000413
 Dipole Y            :          0.0002699            0.0000000            0.0002699
 Dipole Z            :         -0.0000000            0.0000000           -0.0000000
 Magnitude           :                                                    0.0002730
  Basis Set: (AUG-CC-PVTZ AUX)
    Blend: AUG-CC-PVTZ-RI + DEF2-QZVPP-RI
	 Reference Energy          =    -459.5735189549317852 [Eh]
	 Singles Energy            =      -0.0000000000000000 [Eh]
	 Same-Spin Energy          =      -0.0628034871694411 [Eh]
	 Opposite-Spin Energy      =      -0.1805201562182845 [Eh]
	 Correlation Energy        =      -0.2433236433877256 [Eh]
	 Total Energy              =    -459.8168425983195107 [Eh]

	 ================> DF-SCS-MP2 Energies <==================
	-----------------------------------------------------------
	 SCS Same-Spin Scale       =       0.3333333333333333 [-]
	 SCS Opposite-Spin Scale   =       1.2000000000000000 [-]
	 SCS Same-Spin Energy      =      -0.0209344957231470 [Eh]
	 SCS Opposite-Spin Energy  =      -0.2166241874619413 [Eh]
	 SCS Correlation Energy    =      -0.2375586831850884 [Eh]
	 SCS Total Energy          =    -459.8110776381168989 [Eh]
	-----------------------------------------------------------

*** Psi4 exiting successfully. Buy a developer a beer!
