                               Psi4 1.8.2 release

  ==> Input File <==

--------------------------------------------------------------------------
MEMORY 60 GB

molecule dimer {
-1 1
Cl         0.000000     0.000000     0.000000
Gh(Na)     0.000000     2.370103     0.000000
Gh(Na)     3.555154     0.000000     0.000000

units ang
no_reorient
no_com
symmetry c1
}

set {
basis        aug-cc-pVTZ
scf_type     df
}

energy("mp2")
--------------------------------------------------------------------------

    Molecular point group: c1

    Geometry (in Angstrom), charge = -1, multiplicity = 1:

       Center              X                  Y                   Z               Mass
    ------------   -----------------  -----------------  -----------------  -----------------
         CL           0.000000000000     0.000000000000     0.000000000000    34.968852682000
      Gh(NA)          0.000000000000     2.370103000000     0.000000000000    22.989769282000
      Gh(NA)          3.555154000000     0.000000000000     0.000000000000    22.989769282000

  Charge       = -1
  Multiplicity = 1
  Basis Set: AUG-CC-PVTZ
    Blend: AUG-CC-PVTZ
  Basis Set: (AUG-CC-PVTZ AUX)
    Blend: AUG-CC-PVTZ-JKFIT + DEF2-UNIVERSAL-JKFIT

    Orbital Energies [Eh]
    ---------------------

    Doubly Occupied:

       1A   -104.506503     2A    -10.229864     3A     -7.695924
       4A     -7.695913     5A     -7.695904     6A     -0.733487
       7A     -0.150329     8A     -0.150320     9A     -0.150312

  @DF-RHF Final Energy:  -459.57351645761776

   => Energetics <=

    Nuclear Repulsion Energy =              0.0000000000000000
    One-Electron Energy =                -641.1299231855310836
    Two-Electron Energy =                 181.5564067279133269
    Total Energy =                       -459.5735164576177567
 Dipole X            :          0.0000363            0.0000000            0.0000363
 Dipole Y            :          0.0002922            0.0000000            0.0002922
 Dipole Z            :         -0.0000000            0.0000000           -0.0000000
 Magnitude           :                                                    0.0002944
  Basis Set: (AUG-CC-PVTZ AUX)
    Blend: AUG-CC-PVTZ-RI + DEF2-QZVPP-RI
	 Reference Energy          =    -459.5735164576177567 [Eh]
	 Singles Energy            =      -0.0000000000000000 [Eh]
	 Same-Spin Energy          =      -0.0627766811847824 [Eh]
	 Opposite-Spin Energy      =      -0.1804223045925956 [Eh]
	 Correlation Energy        =      -0.2431989857773779 [Eh]
	 Total Energy              =    -459.8167154433951396 [Eh]

	 ================> DF-SCS-MP2 Energies <==================
	-----------------------------------------------------------
	 SCS Same-Spin Scale       =       0.3333333333333333 [-]
	 SCS Opposite-Spin Scale   =       1.2000000000000000 [-]
	 SCS Same-Spin Energy      =      -0.0209255603949275 [Eh]
	 SCS Opposite-Spin Energy  =      -0.2165067655111147 [Eh]
	 SCS Correlation Energy    =      -0.2374323259060421 [Eh]
	 SCS Total Energy          =    -459.8109487835238269 [Eh]
	-----------------------------------------------------------

*** Psi4 exiting successfully. Buy a developer a beer!
