                               Psi4 1.8.2 release

  ==> Input File <==

--------------------------------------------------------------------------
MEMORY 60 GB

molecule dimer {
-1 1
Cl     0.000000     0.000000     0.000000
--
1 1
Na     0.000000     2.370103     0.000000
--
1 1
Na     2.370103     0.000000     0.000000

units ang
no_reorient
no_com
symmetry c1
}

set {
basis        aug-cc-pVTZ
scf_type     df
}

energy("mp2", bsse_type="cp")
--------------------------------------------------------------------------

                               Psi4 1.8.2 release
    Molecular point group: c1
  Charge       = -1
  Multiplicity = 1
  Basis Set: AUG-CC-PVTZ
    Blend: AUG-CC-PVTZ
  Basis Set: (AUG-CC-PVTZ AUX)
    Blend: AUG-CC-PVTZ-JKFIT + DEF2-UNIVERSAL-JKFIT
  @DF-RHF Final Energy:  -459.57352842943766
    Total Energy =                       -459.5735284294377152
 Dipole X            :          0.0002243            0.0000000            0.0002243
 Dipole Y            :          0.0002243            0.0000000            0.0002243
 Dipole Z            :          0.0000000            0.0000000            0.0000000
 Magnitude           :                                                    0.0003172
  Basis Set: (AUG-CC-PVTZ AUX)
    Blend: AUG-CC-PVTZ-RI + DEF2-QZVPP-RI
	 Reference Energy          =    -459.5735284294376584 [Eh]
	 Singles Energy            =      -0.0000000000000000 [Eh]
	 Same-Spin Energy          =      -0.0629603671583321 [Eh]
	 Opposite-Spin Energy      =      -0.1811257018419735 [Eh]
	 Correlation Energy        =      -0.2440860690003057 [Eh]
	 Total Energy              =    -459.8176144984379903 [Eh]
	 SCS Total Energy          =    -459.8118660607008223 [Eh]
                               Psi4 1.8.2 release
    Molecular point group: c1
  Basis Set: AUG-CC-PVTZ
    Blend: AUG-CC-PVTZ
  Basis Set: (AUG-CC-PVTZ AUX)
    Blend: AUG-CC-PVTZ-JKFIT + DEF2-UNIVERSAL-JKFIT
  @DF-RHF Final Energy:  -161.67604484839586
    Total Energy =                       -161.6760448483958612
  Basis Set: (AUG-CC-PVTZ AUX)
                               Psi4 1.8.2 release
  @DF-RHF Final Energy:  -323.19448886486185
    Total Energy =                       -323.1944888648619099
                               Psi4 1.8.2 release
  @DF-RHF Final Energy:  -621.45491467149805
    Total Energy =                       -621.4549146714980452
                               Psi4 1.8.2 release
  @DF-RHF Final Energy:  -621.45491467152829
    Total Energy =                       -621.4549146715282859
                               Psi4 1.8.2 release
  Multiplicity = 1
  @DF-RHF Final Energy:  -161.67604484837585
    Total Energy =                       -161.6760448483758523
	 Singles Energy            =      -0.0000000000000000 [Eh]
	 Same-Spin Energy          =      -0.0029187786066821 [Eh]
	 Opposite-Spin Energy      =      -0.0105093832715608 [Eh]
	 Correlation Energy        =      -0.0134281618782429 [Eh]
	 Total Energy              =    -161.6894730102540905 [Eh]
	 SCS Total Energy          =    -161.6896290345039517 [Eh]
                               Psi4 1.8.2 release
    Molecular point group: c1

    Geometry (in Bohr), charge = 1, multiplicity = 1:

       Center              X                  Y                   Z               Mass
    ------------   -----------------  -----------------  -----------------  -----------------
         CL           0.000000000000     0.000000000000     0.000000000000    34.968852682000
         NA           0.000000000000     4.478845559126     0.000000000000    22.989769282000
         NA           4.478845559126     0.000000000000     0.000000000000    22.989769282000

  Charge       = 1
  Multiplicity = 1
  Basis Set: AUG-CC-PVTZ
    Blend: AUG-CC-PVTZ
  Basis Set: (AUG-CC-PVTZ AUX)
    Blend: AUG-CC-PVTZ-JKFIT + DEF2-UNIVERSAL-JKFIT

    Orbital Energies [Eh]
    ---------------------

    Doubly Occupied:

       1A   -104.903213     2A    -40.661079     3A    -40.661079
       4A    -10.629940     5A     -8.096051     6A     -8.095942
       7A     -8.095684     8A     -2.982331     9A     -2.982280
      10A     -1.706655    11A     -1.705566    12A     -1.705412
      13A     -1.705028    14A     -1.705018    15A     -1.704937
      16A     -1.151024    17A     -0.574269    18A     -0.571956
      19A     -0.556818

  @DF-RHF Final Energy:  -783.17859121877416

   => Energetics <=

    Nuclear Repulsion Energy =            102.6067799071985007
    One-Electron Energy =               -1291.1821802502759056
    Two-Electron Energy =                 405.3968091243033314
    Total Energy =                       -783.1785912187741587
 Dipole X            :        -45.5151509           49.2673012            3.7521503
 Dipole Y            :        -45.5151509           49.2673012            3.7521503
 Dipole Z            :          0.0000000            0.0000000            0.0000000
 Magnitude           :                                                    5.3063418
  Basis Set: (AUG-CC-PVTZ AUX)
    Blend: AUG-CC-PVTZ-RI + DEF2-QZVPP-RI
	 Reference Energy          =    -783.1785912187741587 [Eh]
	 Singles Energy            =      -0.0000000000000000 [Eh]
	 Same-Spin Energy          =      -0.0690407798057612 [Eh]
	 Opposite-Spin Energy      =      -0.2013935329843002 [Eh]
	 Correlation Energy        =      -0.2704343127900614 [Eh]
	 Total Energy              =    -783.4490255315641889 [Eh]

	 ================> DF-SCS-MP2 Energies <==================
	-----------------------------------------------------------
	 SCS Same-Spin Scale       =       0.3333333333333333 [-]
	 SCS Opposite-Spin Scale   =       1.2000000000000000 [-]
	 SCS Same-Spin Energy      =      -0.0230135932685871 [Eh]
	 SCS Opposite-Spin Energy  =      -0.2416722395811602 [Eh]
	 SCS Correlation Energy    =      -0.2646858328497473 [Eh]
	 SCS Total Energy          =    -783.4432770516239088 [Eh]
	-----------------------------------------------------------

*** Psi4 exiting successfully. Buy a developer a beer!
