                               Psi4 1.8.2 release

  ==> Input File <==

--------------------------------------------------------------------------
MEMORY 60 GB

molecule dimer {
1 1
Gh(Cl)     0.000000     0.000000     0.000000
Gh(Na)     0.000000     2.370103     0.000000
Na         2.607113     0.000000     0.000000

units ang
no_reorient
no_com
symmetry c1
}

set {
basis        aug-cc-pVTZ
scf_type     df
}

energy("mp2")
--------------------------------------------------------------------------

    Molecular point group: c1

    Geometry (in Angstrom), charge = 1, multiplicity = 1:

       Center              X                  Y                   Z               Mass
    ------------   -----------------  -----------------  -----------------  -----------------
      Gh(CL)          0.000000000000     0.000000000000     0.000000000000    34.968852682000
      Gh(NA)          0.000000000000     2.370103000000     0.000000000000    22.989769282000
         NA           2.607113000000     0.000000000000     0.000000000000    22.989769282000

  Charge       = 1
  Multiplicity = 1
  Basis Set: AUG-CC-PVTZ
    Blend: AUG-CC-PVTZ
  Basis Set: (AUG-CC-PVTZ AUX)
    Blend: AUG-CC-PVTZ-JKFIT + DEF2-UNIVERSAL-JKFIT

    Orbital Energies [Eh]
    ---------------------

    Doubly Occupied:

       1A    -40.762851     2A     -3.074923     3A     -1.798184
       4A     -1.798117     5A     -1.798066

  @DF-RHF Final Energy:  -161.67604063382674

   => Energetics <=

    Nuclear Repulsion Energy =              0.0000000000000000
    One-Electron Energy =                -224.8878017786915393
    Two-Electron Energy =                  63.2117611448647736
    Total Energy =                       -161.6760406338267728
 Dipole X            :        -49.2678900           54.1940250            4.9261350
 Dipole Y            :          0.0001353            0.0000000            0.0001353
 Dipole Z            :          0.0000000            0.0000000            0.0000000
 Magnitude           :                                                    4.9261350
  Basis Set: (AUG-CC-PVTZ AUX)
    Blend: AUG-CC-PVTZ-RI + DEF2-QZVPP-RI
	 Reference Energy          =    -161.6760406338267444 [Eh]
	 Singles Energy            =      -0.0000000000000000 [Eh]
	 Same-Spin Energy          =      -0.0024795186275603 [Eh]
	 Opposite-Spin Energy      =      -0.0093699879942459 [Eh]
	 Correlation Energy        =      -0.0118495066218062 [Eh]
	 Total Energy              =    -161.6878901404485589 [Eh]

	 ================> DF-SCS-MP2 Energies <==================
	-----------------------------------------------------------
	 SCS Same-Spin Scale       =       0.3333333333333333 [-]
	 SCS Opposite-Spin Scale   =       1.2000000000000000 [-]
	 SCS Same-Spin Energy      =      -0.0008265062091868 [Eh]
	 SCS Opposite-Spin Energy  =      -0.0112439855930951 [Eh]
	 SCS Correlation Energy    =      -0.0120704918022819 [Eh]
	 SCS Total Energy          =    -161.6881111256290353 [Eh]
	-----------------------------------------------------------

*** Psi4 exiting successfully. Buy a developer a beer!
