                               Psi4 1.8.2 release

  ==> Input File <==

--------------------------------------------------------------------------
MEMORY 60 GB

molecule dimer {
1 1
Cl         0.000000     0.000000     0.000000
Na         0.000000     2.370103     0.000000
Na         2.607113     0.000000     0.000000

units ang
no_reorient
no_com
symmetry c1
}

set {
basis        aug-cc-pVTZ
scf_type     df
}

energy("mp2")
--------------------------------------------------------------------------

    Molecular point group: c1

    Geometry (in Angstrom), charge = 1, multiplicity = 1:

       Center              X                  Y                   Z               Mass
    ------------   -----------------  -----------------  -----------------  -----------------
         CL           0.000000000000     0.000000000000     0.000000000000    34.968852682000
         NA           0.000000000000     2.370103000000     0.000000000000    22.989769282000
         NA           2.607113000000     0.000000000000     0.000000000000    22.989769282000

  Charge       = 1
  Multiplicity = 1
  Basis Set: AUG-CC-PVTZ
    Blend: AUG-CC-PVTZ
  Basis Set: (AUG-CC-PVTZ AUX)
    Blend: AUG-CC-PVTZ-JKFIT + DEF2-UNIVERSAL-JKFIT

    Orbital Energies [Eh]
    ---------------------

    Doubly Occupied:

       1A   -104.896223     2A    -40.677628     3A    -40.654019
       4A    -10.621816     5A     -8.087944     6A     -8.087805
       7A     -8.087605     8A     -2.994683     9A     -2.975290
      10A     -1.718536    11A     -1.717872    12A     -1.716754
      13A     -1.698895    14A     -1.698262    15A     -1.697995
      16A     -1.138319    17A     -0.561816    18A     -0.558884
      19A     -0.545074

  @DF-RHF Final Energy:  -783.18133440611621

   => Energetics <=

    Nuclear Repulsion Energy =             97.8808996595365954
    One-Electron Energy =               -1281.8536302703764704
    Two-Electron Energy =                 400.7913962047235827
    Total Energy =                       -783.1813344061162070
 Dipole X            :        -50.0083725           54.1940250            4.1856525
 Dipole Y            :        -45.5257397           49.2673012            3.7415614
 Dipole Z            :         -0.0000000            0.0000000           -0.0000000
 Magnitude           :                                                    5.6141757
  Basis Set: (AUG-CC-PVTZ AUX)
    Blend: AUG-CC-PVTZ-RI + DEF2-QZVPP-RI
	 Reference Energy          =    -783.1813344061162070 [Eh]
	 Singles Energy            =      -0.0000000000000000 [Eh]
	 Same-Spin Energy          =      -0.0684656940306483 [Eh]
	 Opposite-Spin Energy      =      -0.2002227695310146 [Eh]
	 Correlation Energy        =      -0.2686884635616628 [Eh]
	 Total Energy              =    -783.4500228696779232 [Eh]

	 ================> DF-SCS-MP2 Energies <==================
	-----------------------------------------------------------
	 SCS Same-Spin Scale       =       0.3333333333333333 [-]
	 SCS Opposite-Spin Scale   =       1.2000000000000000 [-]
	 SCS Same-Spin Energy      =      -0.0228218980102161 [Eh]
	 SCS Opposite-Spin Energy  =      -0.2402673234372175 [Eh]
	 SCS Correlation Energy    =      -0.2630892214474336 [Eh]
	 SCS Total Energy          =    -783.4444236275636513 [Eh]
	-----------------------------------------------------------

*** Psi4 exiting successfully. Buy a developer a beer!
