                               Psi4 1.8.2 release

  ==> Input File <==

--------------------------------------------------------------------------
MEMORY 60 GB

molecule dimer {
1 1
Cl         0.000000     0.000000     0.000000
Na         0.000000     2.370103     0.000000
Na         3.318144     0.000000     0.000000

units ang
no_reorient
no_com
symmetry c1
}

set {
basis        aug-cc-pVTZ
scf_type     df
}

energy("mp2")
--------------------------------------------------------------------------

    Molecular point group: c1

    Geometry (in Angstrom), charge = 1, multiplicity = 1:

       Center              X                  Y                   Z               Mass
    ------------   -----------------  -----------------  -----------------  -----------------
         CL           0.000000000000     0.000000000000     0.000000000000    34.968852682000
         NA           0.000000000000     2.370103000000     0.000000000000    22.989769282000
         NA           3.318144000000     0.000000000000     0.000000000000    22.989769282000

  Charge       = 1
  Multiplicity = 1
  Basis Set: AUG-CC-PVTZ
    Blend: AUG-CC-PVTZ
  Basis Set: (AUG-CC-PVTZ AUX)
    Blend: AUG-CC-PVTZ-JKFIT + DEF2-UNIVERSAL-JKFIT

    Orbital Energies [Eh]
    ---------------------

    Doubly Occupied:

       1A   -104.867240     2A    -40.714096     3A    -40.633760
       4A    -10.592092     5A     -8.058198     6A     -8.058056
       7A     -8.057873     8A     -3.027017     9A     -2.955166
      10A     -1.750753    11A     -1.750414    12A     -1.749211
      13A     -1.678508    14A     -1.678064    15A     -1.677937
      16A     -1.103650    17A     -0.529144    18A     -0.519047
      19A     -0.512784

  @DF-RHF Final Energy:  -783.16653876019120

   => Energetics <=

    Nuclear Repulsion Energy =             87.2772359995529001
    One-Electron Energy =               -1261.0615307294112881
    Two-Electron Energy =                 390.6177559696672574
    Total Energy =                       -783.1665387601910879
 Dipole X            :        -63.3541950           68.9742175            5.6200225
 Dipole Y            :        -45.5503031           49.2673012            3.7169980
 Dipole Z            :         -0.0000000            0.0000000           -0.0000000
 Magnitude           :                                                    6.7380062
  Basis Set: (AUG-CC-PVTZ AUX)
    Blend: AUG-CC-PVTZ-RI + DEF2-QZVPP-RI
	 Reference Energy          =    -783.1665387601912016 [Eh]
	 Singles Energy            =      -0.0000000000000000 [Eh]
	 Same-Spin Energy          =      -0.0679736624568918 [Eh]
	 Opposite-Spin Energy      =      -0.1991798567287321 [Eh]
	 Correlation Energy        =      -0.2671535191856239 [Eh]
	 Total Energy              =    -783.4336922793768281 [Eh]

	 ================> DF-SCS-MP2 Energies <==================
	-----------------------------------------------------------
	 SCS Same-Spin Scale       =       0.3333333333333333 [-]
	 SCS Opposite-Spin Scale   =       1.2000000000000000 [-]
	 SCS Same-Spin Energy      =      -0.0226578874856306 [Eh]
	 SCS Opposite-Spin Energy  =      -0.2390158280744785 [Eh]
	 SCS Correlation Energy    =      -0.2616737155601091 [Eh]
	 SCS Total Energy          =    -783.4282124757513657 [Eh]
	-----------------------------------------------------------

*** Psi4 exiting successfully. Buy a developer a beer!
