                               Psi4 1.8.2 release

  ==> Input File <==

--------------------------------------------------------------------------
MEMORY 60 GB

molecule dimer {
-1 1
Cl         0.000000     0.000000     0.000000
Gh(Na)     0.000000     2.370103     0.000000
Gh(Na)     3.081134     0.000000     0.000000

units ang
no_reorient
no_com
symmetry c1
}

set {
basis        aug-cc-pVTZ
scf_type     df
}

energy("mp2")
--------------------------------------------------------------------------

    Molecular point group: c1

    Geometry (in Angstrom), charge = -1, multiplicity = 1:

       Center              X                  Y                   Z               Mass
    ------------   -----------------  -----------------  -----------------  -----------------
         CL           0.000000000000     0.000000000000     0.000000000000    34.968852682000
      Gh(NA)          0.000000000000     2.370103000000     0.000000000000    22.989769282000
      Gh(NA)          3.081134000000     0.000000000000     0.000000000000    22.989769282000

  Charge       = -1
  Multiplicity = 1
  Basis Set: AUG-CC-PVTZ
    Blend: AUG-CC-PVTZ
  Basis Set: (AUG-CC-PVTZ AUX)
    Blend: AUG-CC-PVTZ-JKFIT + DEF2-UNIVERSAL-JKFIT

    Orbital Energies [Eh]
    ---------------------

    Doubly Occupied:

       1A   -104.506566     2A    -10.229877     3A     -7.695939
       4A     -7.695924     5A     -7.695918     6A     -0.733482
       7A     -0.150325     8A     -0.150320     9A     -0.150307

  @DF-RHF Final Energy:  -459.57352103025494

   => Energetics <=

    Nuclear Repulsion Energy =              0.0000000000000000
    One-Electron Energy =                -641.1297254726107440
    Two-Electron Energy =                 181.5562044423557495
    Total Energy =                       -459.5735210302549945
 Dipole X            :          0.0000560            0.0000000            0.0000560
 Dipole Y            :          0.0002498            0.0000000            0.0002498
 Dipole Z            :          0.0000000            0.0000000            0.0000000
 Magnitude           :                                                    0.0002560
  Basis Set: (AUG-CC-PVTZ AUX)
    Blend: AUG-CC-PVTZ-RI + DEF2-QZVPP-RI
	 Reference Energy          =    -459.5735210302549376 [Eh]
	 Singles Energy            =      -0.0000000000000000 [Eh]
	 Same-Spin Energy          =      -0.0628378617311813 [Eh]
	 Opposite-Spin Energy      =      -0.1806479430468750 [Eh]
	 Correlation Energy        =      -0.2434858047780563 [Eh]
	 Total Energy              =    -459.8170068350329984 [Eh]

	 ================> DF-SCS-MP2 Energies <==================
	-----------------------------------------------------------
	 SCS Same-Spin Scale       =       0.3333333333333333 [-]
	 SCS Opposite-Spin Scale   =       1.2000000000000000 [-]
	 SCS Same-Spin Energy      =      -0.0209459539103938 [Eh]
	 SCS Opposite-Spin Energy  =      -0.2167775316562500 [Eh]
	 SCS Correlation Energy    =      -0.2377234855666438 [Eh]
	 SCS Total Energy          =    -459.8112445158215564 [Eh]
	-----------------------------------------------------------

*** Psi4 exiting successfully. Buy a developer a beer!
