                               Psi4 1.8.2 release

  ==> Input File <==

--------------------------------------------------------------------------
MEMORY 60 GB

molecule dimer {
-1 1
Cl     0.000000     0.000000     0.000000
--
1 1
Na     0.000000     2.370103     0.000000
--
1 1
Na     4.740206     0.000000     0.000000

units ang
no_reorient
no_com
symmetry c1
}

set {
basis        aug-cc-pVTZ
scf_type     df
}

energy("mp2", bsse_type="cp")
--------------------------------------------------------------------------

                               Psi4 1.8.2 release
    Molecular point group: c1
  Charge       = -1
  Multiplicity = 1
  Basis Set: AUG-CC-PVTZ
    Blend: AUG-CC-PVTZ
  Basis Set: (AUG-CC-PVTZ AUX)
    Blend: AUG-CC-PVTZ-JKFIT + DEF2-UNIVERSAL-JKFIT
  @DF-RHF Final Energy:  -459.57351037120185
    Total Energy =                       -459.5735103712017917
 Dipole X            :         -0.0000661            0.0000000           -0.0000661
 Dipole Y            :          0.0003542            0.0000000            0.0003542
 Dipole Z            :         -0.0000000            0.0000000           -0.0000000
 Magnitude           :                                                    0.0003603
  Basis Set: (AUG-CC-PVTZ AUX)
    Blend: AUG-CC-PVTZ-RI + DEF2-QZVPP-RI
	 Reference Energy          =    -459.5735103712018486 [Eh]
	 Singles Energy            =      -0.0000000000000000 [Eh]
	 Same-Spin Energy          =      -0.0627187041192927 [Eh]
	 Opposite-Spin Energy      =      -0.1802210572792789 [Eh]
	 Correlation Energy        =      -0.2429397613985716 [Eh]
	 Total Energy              =    -459.8164501326004370 [Eh]
	 SCS Total Energy          =    -459.8106818746434215 [Eh]
                               Psi4 1.8.2 release
    Molecular point group: c1
  Basis Set: AUG-CC-PVTZ
    Blend: AUG-CC-PVTZ
  Basis Set: (AUG-CC-PVTZ AUX)
    Blend: AUG-CC-PVTZ-JKFIT + DEF2-UNIVERSAL-JKFIT
  @DF-RHF Final Energy:  -161.67603891764978
    Total Energy =                       -161.6760389176497767
  Basis Set: (AUG-CC-PVTZ AUX)
                               Psi4 1.8.2 release
  @DF-RHF Final Energy:  -323.25225408370454
    Total Energy =                       -323.2522540837045426
                               Psi4 1.8.2 release
  @DF-RHF Final Energy:  -621.36444677454415
    Total Energy =                       -621.3644467745441489
                               Psi4 1.8.2 release
  @DF-RHF Final Energy:  -621.45483271183036
    Total Energy =                       -621.4548327118303632
                               Psi4 1.8.2 release
  Multiplicity = 1
  @DF-RHF Final Energy:  -161.67602721241812
    Total Energy =                       -161.6760272124181199
	 Singles Energy            =      -0.0000000000000000 [Eh]
	 Same-Spin Energy          =      -0.0019794207637845 [Eh]
	 Opposite-Spin Energy      =      -0.0079777877402809 [Eh]
	 Correlation Energy        =      -0.0099572085040654 [Eh]
	 Total Energy              =    -161.6859844209221819 [Eh]
	 SCS Total Energy          =    -161.6862603646277137 [Eh]
                               Psi4 1.8.2 release
    Molecular point group: c1

    Geometry (in Bohr), charge = 1, multiplicity = 1:

       Center              X                  Y                   Z               Mass
    ------------   -----------------  -----------------  -----------------  -----------------
         CL           0.000000000000     0.000000000000     0.000000000000    34.968852682000
         NA           0.000000000000     4.478845559126     0.000000000000    22.989769282000
         NA           8.957691118252     0.000000000000     0.000000000000    22.989769282000

  Charge       = 1
  Multiplicity = 1
  Basis Set: AUG-CC-PVTZ
    Blend: AUG-CC-PVTZ
  Basis Set: (AUG-CC-PVTZ AUX)
    Blend: AUG-CC-PVTZ-JKFIT + DEF2-UNIVERSAL-JKFIT

    Orbital Energies [Eh]
    ---------------------

    Doubly Occupied:

       1A   -104.817658     2A    -40.747169     3A    -40.601679
       4A    -10.542753     5A     -8.008909     6A     -8.008694
       7A     -8.008600     8A     -3.058857     9A     -2.923301
      10A     -1.782201    11A     -1.782075    12A     -1.781741
      13A     -1.646434    14A     -1.646130    15A     -1.645966
      16A     -1.054957    17A     -0.481893    18A     -0.467192
      19A     -0.465573

  @DF-RHF Final Energy:  -783.14449823736254

   => Energetics <=

    Nuclear Repulsion Energy =             74.7096189493957468
    One-Electron Energy =               -1236.7646681328485556
    Two-Electron Energy =                 378.9105509460902681
    Total Energy =                       -783.1444982373625407
 Dipole X            :        -89.9276918           98.5346023            8.6069105
 Dipole Y            :        -45.5707497           49.2673012            3.6965514
 Dipole Z            :         -0.0000000            0.0000000           -0.0000000
 Magnitude           :                                                    9.3671447
  Basis Set: (AUG-CC-PVTZ AUX)
    Blend: AUG-CC-PVTZ-RI + DEF2-QZVPP-RI
	 Reference Energy          =    -783.1444982373625407 [Eh]
	 Singles Energy            =      -0.0000000000000000 [Eh]
	 Same-Spin Energy          =      -0.0674468234854303 [Eh]
	 Opposite-Spin Energy      =      -0.1976265176149625 [Eh]
	 Correlation Energy        =      -0.2650733411003928 [Eh]
	 Total Energy              =    -783.4095715784629874 [Eh]

	 ================> DF-SCS-MP2 Energies <==================
	-----------------------------------------------------------
	 SCS Same-Spin Scale       =       0.3333333333333333 [-]
	 SCS Opposite-Spin Scale   =       1.2000000000000000 [-]
	 SCS Same-Spin Energy      =      -0.0224822744951434 [Eh]
	 SCS Opposite-Spin Energy  =      -0.2371518211379550 [Eh]
	 SCS Correlation Energy    =      -0.2596340956330984 [Eh]
	 SCS Total Energy          =    -783.4041323329956867 [Eh]
	-----------------------------------------------------------

*** Psi4 exiting successfully. Buy a developer a beer!
