                               Psi4 1.9 release

  ==> Input File <==

--------------------------------------------------------------------------
MEMORY 60 GB

molecule dimer {
0 1
Cl     0.000000     0.000000     0.000000
Na     0.000000     2.370103     0.000000
--
1 1
Na     2.607113     0.000000     0.000000

units ang
no_reorient
no_com
symmetry c1
}

set {
basis        aug-cc-pVTZ
scf_type     df
}

energy("mp2", bsse_type="cp")
--------------------------------------------------------------------------

                               Psi4 1.9 release
    Molecular point group: c1
  Charge       = 1
  Multiplicity = 1
  Basis Set: AUG-CC-PVTZ
    Blend: AUG-CC-PVTZ
  Basis Set: (AUG-CC-PVTZ AUX)
    Blend: AUG-CC-PVTZ-JKFIT + DEF2-UNIVERSAL-JKFIT
  @DF-RHF Final Energy:  -161.67604063385173
    Total Energy =                       -161.6760406338516987
 Dipole X            :        -49.2678900           54.1940250            4.9261350
 Dipole Y            :          0.0001353            0.0000000            0.0001353
 Dipole Z            :          0.0000000            0.0000000            0.0000000
 Magnitude           :                                                    4.9261350
  Basis Set: (AUG-CC-PVTZ AUX)
    Blend: AUG-CC-PVTZ-RI + DEF2-QZVPP-RI
	 Reference Energy          =    -161.6760406338517271 [Eh]
	 Singles Energy            =      -0.0000000000000000 [Eh]
	 Same-Spin Energy          =      -0.0024795186275531 [Eh]
	 Opposite-Spin Energy      =      -0.0093699879942255 [Eh]
	 Correlation Energy        =      -0.0118495066217785 [Eh]
	 Total Energy              =    -161.6878901404735132 [Eh]
	 SCS Total Energy          =    -161.6881111256539896 [Eh]
                               Psi4 1.9 release
    Molecular point group: c1
  Multiplicity = 1
  Basis Set: AUG-CC-PVTZ
    Blend: AUG-CC-PVTZ
  Basis Set: (AUG-CC-PVTZ AUX)
    Blend: AUG-CC-PVTZ-JKFIT + DEF2-UNIVERSAL-JKFIT
  @DF-RHF Final Energy:  -621.45490123625314
    Total Energy =                       -621.4549012362530220
  Basis Set: (AUG-CC-PVTZ AUX)
	 Singles Energy            =      -0.0000000000000000 [Eh]
	 Same-Spin Energy          =      -0.0658715030589639 [Eh]
	 Opposite-Spin Energy      =      -0.1908639118941471 [Eh]
	 Correlation Energy        =      -0.2567354149531110 [Eh]
	 Total Energy              =    -621.7116366512062768 [Eh]
	 SCS Total Energy          =    -621.7058950982124088 [Eh]
                               Psi4 1.9 release
    Molecular point group: c1

    Geometry (in Bohr), charge = 1, multiplicity = 1:

       Center              X                  Y                   Z               Mass
    ------------   -----------------  -----------------  -----------------  -----------------
         CL           0.000000000000     0.000000000000     0.000000000000    34.968852682000
         NA           0.000000000000     4.478845559126     0.000000000000    22.989769282000
         NA           4.926729548121     0.000000000000     0.000000000000    22.989769282000

  Charge       = 1
  Multiplicity = 1
  Basis Set: AUG-CC-PVTZ
    Blend: AUG-CC-PVTZ
  Basis Set: (AUG-CC-PVTZ AUX)
    Blend: AUG-CC-PVTZ-JKFIT + DEF2-UNIVERSAL-JKFIT

    Orbital Energies [Eh]
    ---------------------

    Doubly Occupied:

       1A   -104.896223     2A    -40.677628     3A    -40.654019
       4A    -10.621816     5A     -8.087944     6A     -8.087805
       7A     -8.087605     8A     -2.994683     9A     -2.975290
      10A     -1.718536    11A     -1.717872    12A     -1.716754
      13A     -1.698895    14A     -1.698262    15A     -1.697995
      16A     -1.138319    17A     -0.561816    18A     -0.558884
      19A     -0.545074

  @DF-RHF Final Energy:  -783.18133440615190

   => Energetics <=

    Nuclear Repulsion Energy =             97.8808996595365954
    One-Electron Energy =               -1281.8536302703819274
    Two-Electron Energy =                 400.7913962046933420
    Total Energy =                       -783.1813344061519047
 Dipole X            :        -50.0083725           54.1940250            4.1856525
 Dipole Y            :        -45.5257397           49.2673012            3.7415614
 Dipole Z            :         -0.0000000            0.0000000           -0.0000000
 Magnitude           :                                                    5.6141757
  Basis Set: (AUG-CC-PVTZ AUX)
    Blend: AUG-CC-PVTZ-RI + DEF2-QZVPP-RI
	 Reference Energy          =    -783.1813344061519047 [Eh]
	 Singles Energy            =      -0.0000000000000000 [Eh]
	 Same-Spin Energy          =      -0.0684656940306688 [Eh]
	 Opposite-Spin Energy      =      -0.2002227695310975 [Eh]
	 Correlation Energy        =      -0.2686884635617663 [Eh]
	 Total Energy              =    -783.4500228697136208 [Eh]

	 ================> DF-SCS-MP2 Energies <==================
	-----------------------------------------------------------
	 SCS Same-Spin Scale       =       0.3333333333333333 [-]
	 SCS Opposite-Spin Scale   =       1.2000000000000000 [-]
	 SCS Same-Spin Energy      =      -0.0228218980102229 [Eh]
	 SCS Opposite-Spin Energy  =      -0.2402673234373169 [Eh]
	 SCS Correlation Energy    =      -0.2630892214475399 [Eh]
	 SCS Total Energy          =    -783.4444236275994626 [Eh]
	-----------------------------------------------------------

*** Psi4 exiting successfully. Buy a developer a beer!
