                               Psi4 1.8.2 release

  ==> Input File <==

--------------------------------------------------------------------------
MEMORY 60 GB

molecule dimer {
-1 1
Cl         0.000000     0.000000     0.000000
Gh(Na)     0.000000     2.370103     0.000000
Gh(Na)     4.740206     0.000000     0.000000

units ang
no_reorient
no_com
symmetry c1
}

set {
basis        aug-cc-pVTZ
scf_type     df
}

energy("mp2")
--------------------------------------------------------------------------

    Molecular point group: c1

    Geometry (in Angstrom), charge = -1, multiplicity = 1:

       Center              X                  Y                   Z               Mass
    ------------   -----------------  -----------------  -----------------  -----------------
         CL           0.000000000000     0.000000000000     0.000000000000    34.968852682000
      Gh(NA)          0.000000000000     2.370103000000     0.000000000000    22.989769282000
      Gh(NA)          4.740206000000     0.000000000000     0.000000000000    22.989769282000

  Charge       = -1
  Multiplicity = 1
  Basis Set: AUG-CC-PVTZ
    Blend: AUG-CC-PVTZ
  Basis Set: (AUG-CC-PVTZ AUX)
    Blend: AUG-CC-PVTZ-JKFIT + DEF2-UNIVERSAL-JKFIT

    Orbital Energies [Eh]
    ---------------------

    Doubly Occupied:

       1A   -104.506450     2A    -10.229855     3A     -7.695912
       4A     -7.695909     5A     -7.695892     6A     -0.733493
       7A     -0.150336     8A     -0.150320     9A     -0.150319

  @DF-RHF Final Energy:  -459.57351037120134

   => Energetics <=

    Nuclear Repulsion Energy =              0.0000000000000000
    One-Electron Energy =                -641.1300491573477984
    Two-Electron Energy =                 181.5565387861464615
    Total Energy =                       -459.5735103712013370
 Dipole X            :         -0.0000661            0.0000000           -0.0000661
 Dipole Y            :          0.0003542            0.0000000            0.0003542
 Dipole Z            :         -0.0000000            0.0000000           -0.0000000
 Magnitude           :                                                    0.0003603
  Basis Set: (AUG-CC-PVTZ AUX)
    Blend: AUG-CC-PVTZ-RI + DEF2-QZVPP-RI
	 Reference Energy          =    -459.5735103712013370 [Eh]
	 Singles Energy            =      -0.0000000000000000 [Eh]
	 Same-Spin Energy          =      -0.0627187041192929 [Eh]
	 Opposite-Spin Energy      =      -0.1802210572792803 [Eh]
	 Correlation Energy        =      -0.2429397613985732 [Eh]
	 Total Energy              =    -459.8164501325999254 [Eh]

	 ================> DF-SCS-MP2 Energies <==================
	-----------------------------------------------------------
	 SCS Same-Spin Scale       =       0.3333333333333333 [-]
	 SCS Opposite-Spin Scale   =       1.2000000000000000 [-]
	 SCS Same-Spin Energy      =      -0.0209062347064310 [Eh]
	 SCS Opposite-Spin Energy  =      -0.2162652687351363 [Eh]
	 SCS Correlation Energy    =      -0.2371715034415673 [Eh]
	 SCS Total Energy          =    -459.8106818746429099 [Eh]
	-----------------------------------------------------------

*** Psi4 exiting successfully. Buy a developer a beer!
