                               Psi4 1.8.2 release

  ==> Input File <==

--------------------------------------------------------------------------
MEMORY 60 GB

molecule dimer {
-1 1
Cl     0.000000     0.000000     0.000000
--
1 1
Na     0.000000     2.370103     0.000000
--
1 1
Na     2.607113     0.000000     0.000000

units ang
no_reorient
no_com
symmetry c1
}

set {
basis        aug-cc-pVTZ
scf_type     df
}

energy("mp2", bsse_type="cp")
--------------------------------------------------------------------------

                               Psi4 1.8.2 release
    Molecular point group: c1
  Charge       = -1
  Multiplicity = 1
  Basis Set: AUG-CC-PVTZ
    Blend: AUG-CC-PVTZ
  Basis Set: (AUG-CC-PVTZ AUX)
    Blend: AUG-CC-PVTZ-JKFIT + DEF2-UNIVERSAL-JKFIT
  @DF-RHF Final Energy:  -459.57352515446507
    Total Energy =                       -459.5735251544651305
 Dipole X            :          0.0001407            0.0000000            0.0001407
 Dipole Y            :          0.0002274            0.0000000            0.0002274
 Dipole Z            :          0.0000000            0.0000000            0.0000000
 Magnitude           :                                                    0.0002674
  Basis Set: (AUG-CC-PVTZ AUX)
    Blend: AUG-CC-PVTZ-RI + DEF2-QZVPP-RI
	 Reference Energy          =    -459.5735251544650737 [Eh]
	 Singles Energy            =      -0.0000000000000000 [Eh]
	 Same-Spin Energy          =      -0.0629267264469612 [Eh]
	 Opposite-Spin Energy      =      -0.1809860840541335 [Eh]
	 Correlation Energy        =      -0.2439128105010946 [Eh]
	 Total Energy              =    -459.8174379649661887 [Eh]
	 SCS Total Energy          =    -459.8116840308123301 [Eh]
                               Psi4 1.8.2 release
    Molecular point group: c1
  Basis Set: AUG-CC-PVTZ
    Blend: AUG-CC-PVTZ
  Basis Set: (AUG-CC-PVTZ AUX)
    Blend: AUG-CC-PVTZ-JKFIT + DEF2-UNIVERSAL-JKFIT
  @DF-RHF Final Energy:  -161.67604342111287
    Total Energy =                       -161.6760434211128654
  Basis Set: (AUG-CC-PVTZ AUX)
                               Psi4 1.8.2 release
  @DF-RHF Final Energy:  -323.20211560050456
    Total Energy =                       -323.2021156005044986
                               Psi4 1.8.2 release
  @DF-RHF Final Energy:  -621.45101533557181
    Total Energy =                       -621.4510153355718103
                               Psi4 1.8.2 release
  @DF-RHF Final Energy:  -621.45490123626143
    Total Energy =                       -621.4549012362614349
                               Psi4 1.8.2 release
  Multiplicity = 1
  @DF-RHF Final Energy:  -161.67604063382680
    Total Energy =                       -161.6760406338268012
	 Singles Energy            =      -0.0000000000000000 [Eh]
	 Same-Spin Energy          =      -0.0024795186275603 [Eh]
	 Opposite-Spin Energy      =      -0.0093699879942459 [Eh]
	 Correlation Energy        =      -0.0118495066218062 [Eh]
	 Total Energy              =    -161.6878901404486157 [Eh]
	 SCS Total Energy          =    -161.6881111256290922 [Eh]
                               Psi4 1.8.2 release
    Molecular point group: c1

    Geometry (in Bohr), charge = 1, multiplicity = 1:

       Center              X                  Y                   Z               Mass
    ------------   -----------------  -----------------  -----------------  -----------------
         CL           0.000000000000     0.000000000000     0.000000000000    34.968852682000
         NA           0.000000000000     4.478845559126     0.000000000000    22.989769282000
         NA           4.926729548121     0.000000000000     0.000000000000    22.989769282000

  Charge       = 1
  Multiplicity = 1
  Basis Set: AUG-CC-PVTZ
    Blend: AUG-CC-PVTZ
  Basis Set: (AUG-CC-PVTZ AUX)
    Blend: AUG-CC-PVTZ-JKFIT + DEF2-UNIVERSAL-JKFIT

    Orbital Energies [Eh]
    ---------------------

    Doubly Occupied:

       1A   -104.896223     2A    -40.677628     3A    -40.654019
       4A    -10.621816     5A     -8.087944     6A     -8.087805
       7A     -8.087605     8A     -2.994683     9A     -2.975290
      10A     -1.718536    11A     -1.717872    12A     -1.716754
      13A     -1.698895    14A     -1.698262    15A     -1.697995
      16A     -1.138319    17A     -0.561816    18A     -0.558884
      19A     -0.545074

  @DF-RHF Final Energy:  -783.18133440611643

   => Energetics <=

    Nuclear Repulsion Energy =             97.8808996595365954
    One-Electron Energy =               -1281.8536302703780621
    Two-Electron Energy =                 400.7913962047250607
    Total Energy =                       -783.1813344061163207
 Dipole X            :        -50.0083725           54.1940250            4.1856525
 Dipole Y            :        -45.5257397           49.2673012            3.7415614
 Dipole Z            :         -0.0000000            0.0000000           -0.0000000
 Magnitude           :                                                    5.6141757
  Basis Set: (AUG-CC-PVTZ AUX)
    Blend: AUG-CC-PVTZ-RI + DEF2-QZVPP-RI
	 Reference Energy          =    -783.1813344061164344 [Eh]
	 Singles Energy            =      -0.0000000000000000 [Eh]
	 Same-Spin Energy          =      -0.0684656940306491 [Eh]
	 Opposite-Spin Energy      =      -0.2002227695310163 [Eh]
	 Correlation Energy        =      -0.2686884635616653 [Eh]
	 Total Energy              =    -783.4500228696781505 [Eh]

	 ================> DF-SCS-MP2 Energies <==================
	-----------------------------------------------------------
	 SCS Same-Spin Scale       =       0.3333333333333333 [-]
	 SCS Opposite-Spin Scale   =       1.2000000000000000 [-]
	 SCS Same-Spin Energy      =      -0.0228218980102164 [Eh]
	 SCS Opposite-Spin Energy  =      -0.2402673234372195 [Eh]
	 SCS Correlation Energy    =      -0.2630892214474359 [Eh]
	 SCS Total Energy          =    -783.4444236275638787 [Eh]
	-----------------------------------------------------------

*** Psi4 exiting successfully. Buy a developer a beer!
