                               Psi4 1.9 release

  ==> Input File <==

--------------------------------------------------------------------------
MEMORY 60 GB

molecule dimer {
0 1
Cl     0.000000     0.000000     0.000000
Na     0.000000     2.370103     0.000000
--
1 1
Na     2.844124     0.000000     0.000000

units ang
no_reorient
no_com
symmetry c1
}

set {
basis        aug-cc-pVTZ
scf_type     df
}

energy("mp2", bsse_type="cp")
--------------------------------------------------------------------------

                               Psi4 1.9 release
    Molecular point group: c1
  Charge       = 1
  Multiplicity = 1
  Basis Set: AUG-CC-PVTZ
    Blend: AUG-CC-PVTZ
  Basis Set: (AUG-CC-PVTZ AUX)
    Blend: AUG-CC-PVTZ-JKFIT + DEF2-UNIVERSAL-JKFIT
  @DF-RHF Final Energy:  -161.67603740595590
    Total Energy =                       -161.6760374059559240
 Dipole X            :        -53.7467819           59.1207697            5.3739878
 Dipole Y            :          0.0001147            0.0000000            0.0001147
 Dipole Z            :         -0.0000000            0.0000000           -0.0000000
 Magnitude           :                                                    5.3739878
  Basis Set: (AUG-CC-PVTZ AUX)
    Blend: AUG-CC-PVTZ-RI + DEF2-QZVPP-RI
	 Reference Energy          =    -161.6760374059558956 [Eh]
	 Singles Energy            =      -0.0000000000000000 [Eh]
	 Same-Spin Energy          =      -0.0024190481451298 [Eh]
	 Opposite-Spin Energy      =      -0.0092252289042071 [Eh]
	 Correlation Energy        =      -0.0116442770493370 [Eh]
	 Total Energy              =    -161.6876816830052235 [Eh]
	 SCS Total Energy          =    -161.6879140300226538 [Eh]
                               Psi4 1.9 release
    Molecular point group: c1
  Multiplicity = 1
  Basis Set: AUG-CC-PVTZ
    Blend: AUG-CC-PVTZ
  Basis Set: (AUG-CC-PVTZ AUX)
    Blend: AUG-CC-PVTZ-JKFIT + DEF2-UNIVERSAL-JKFIT
  @DF-RHF Final Energy:  -621.45489040932182
    Total Energy =                       -621.4548904093217061
  Basis Set: (AUG-CC-PVTZ AUX)
	 Singles Energy            =      -0.0000000000000000 [Eh]
	 Same-Spin Energy          =      -0.0657538153088230 [Eh]
	 Opposite-Spin Energy      =      -0.1905090295506577 [Eh]
	 Correlation Energy        =      -0.2562628448594806 [Eh]
	 Total Energy              =    -621.7111532541813403 [Eh]
	 SCS Total Energy          =    -621.7054191832188508 [Eh]
                               Psi4 1.9 release
    Molecular point group: c1

    Geometry (in Bohr), charge = 1, multiplicity = 1:

       Center              X                  Y                   Z               Mass
    ------------   -----------------  -----------------  -----------------  -----------------
         CL           0.000000000000     0.000000000000     0.000000000000    34.968852682000
         NA           0.000000000000     4.478845559126     0.000000000000    22.989769282000
         NA           5.374615426842     0.000000000000     0.000000000000    22.989769282000

  Charge       = 1
  Multiplicity = 1
  Basis Set: AUG-CC-PVTZ
    Blend: AUG-CC-PVTZ
  Basis Set: (AUG-CC-PVTZ AUX)
    Blend: AUG-CC-PVTZ-JKFIT + DEF2-UNIVERSAL-JKFIT

    Orbital Energies [Eh]
    ---------------------

    Doubly Occupied:

       1A   -104.887288     2A    -40.691683     3A    -40.647068
       4A    -10.612365     5A     -8.078487     6A     -8.078339
       7A     -8.078154     8A     -3.006587     9A     -2.968384
      10A     -1.730480    11A     -1.729960    12A     -1.728483
      13A     -1.691882    14A     -1.691347    15A     -1.691115
      16A     -1.126075    17A     -0.550296    18A     -0.544942
      19A     -0.533823

  @DF-RHF Final Energy:  -783.17786223379346

   => Energetics <=

    Nuclear Repulsion Energy =             93.8401674713607861
    One-Electron Energy =               -1273.9025440374482514
    Two-Electron Energy =                 396.8845143322940885
    Total Energy =                       -783.1778622337934621
 Dipole X            :        -54.4745321           59.1207697            4.6462376
 Dipole Y            :        -45.5352814           49.2673012            3.7320198
 Dipole Z            :         -0.0000000            0.0000000           -0.0000000
 Magnitude           :                                                    5.9594879
  Basis Set: (AUG-CC-PVTZ AUX)
    Blend: AUG-CC-PVTZ-RI + DEF2-QZVPP-RI
	 Reference Energy          =    -783.1778622337934621 [Eh]
	 Singles Energy            =      -0.0000000000000000 [Eh]
	 Same-Spin Energy          =      -0.0683025483142577 [Eh]
	 Opposite-Spin Energy      =      -0.1999812584218323 [Eh]
	 Correlation Energy        =      -0.2682838067360900 [Eh]
	 Total Energy              =    -783.4461460405295838 [Eh]

	 ================> DF-SCS-MP2 Energies <==================
	-----------------------------------------------------------
	 SCS Same-Spin Scale       =       0.3333333333333333 [-]
	 SCS Opposite-Spin Scale   =       1.2000000000000000 [-]
	 SCS Same-Spin Energy      =      -0.0227675161047526 [Eh]
	 SCS Opposite-Spin Energy  =      -0.2399775101061987 [Eh]
	 SCS Correlation Energy    =      -0.2627450262109513 [Eh]
	 SCS Total Energy          =    -783.4406072600044126 [Eh]
	-----------------------------------------------------------

*** Psi4 exiting successfully. Buy a developer a beer!
