                               Psi4 1.8.2 release

  ==> Input File <==

--------------------------------------------------------------------------
MEMORY 60 GB

molecule dimer {
-1 1
Cl     0.000000     0.000000     0.000000
--
1 1
Na     0.000000     2.370103     0.000000
--
1 1
Na     3.555154     0.000000     0.000000

units ang
no_reorient
no_com
symmetry c1
}

set {
basis        aug-cc-pVTZ
scf_type     df
}

energy("mp2", bsse_type="cp")
--------------------------------------------------------------------------

                               Psi4 1.8.2 release
    Molecular point group: c1
  Charge       = -1
  Multiplicity = 1
  Basis Set: AUG-CC-PVTZ
    Blend: AUG-CC-PVTZ
  Basis Set: (AUG-CC-PVTZ AUX)
    Blend: AUG-CC-PVTZ-JKFIT + DEF2-UNIVERSAL-JKFIT
  @DF-RHF Final Energy:  -459.57351645761821
    Total Energy =                       -459.5735164576182115
 Dipole X            :          0.0000363            0.0000000            0.0000363
 Dipole Y            :          0.0002922            0.0000000            0.0002922
 Dipole Z            :         -0.0000000            0.0000000           -0.0000000
 Magnitude           :                                                    0.0002944
  Basis Set: (AUG-CC-PVTZ AUX)
    Blend: AUG-CC-PVTZ-RI + DEF2-QZVPP-RI
	 Reference Energy          =    -459.5735164576182115 [Eh]
	 Singles Energy            =      -0.0000000000000000 [Eh]
	 Same-Spin Energy          =      -0.0627766811847813 [Eh]
	 Opposite-Spin Energy      =      -0.1804223045925943 [Eh]
	 Correlation Energy        =      -0.2431989857773756 [Eh]
	 Total Energy              =    -459.8167154433955943 [Eh]
	 SCS Total Energy          =    -459.8109487835242248 [Eh]
                               Psi4 1.8.2 release
    Molecular point group: c1
  Basis Set: AUG-CC-PVTZ
    Blend: AUG-CC-PVTZ
  Basis Set: (AUG-CC-PVTZ AUX)
    Blend: AUG-CC-PVTZ-JKFIT + DEF2-UNIVERSAL-JKFIT
  @DF-RHF Final Energy:  -161.67604001808562
    Total Energy =                       -161.6760400180856152
  Basis Set: (AUG-CC-PVTZ AUX)
                               Psi4 1.8.2 release
  @DF-RHF Final Energy:  -323.22831773248885
    Total Energy =                       -323.2283177324889039
                               Psi4 1.8.2 release
  @DF-RHF Final Energy:  -621.40602079533676
    Total Energy =                       -621.4060207953367581
                               Psi4 1.8.2 release
  @DF-RHF Final Energy:  -621.45486183035473
    Total Energy =                       -621.4548618303547300
                               Psi4 1.8.2 release
  Multiplicity = 1
  @DF-RHF Final Energy:  -161.67603268420405
    Total Energy =                       -161.6760326842040456
	 Singles Energy            =      -0.0000000000000000 [Eh]
	 Same-Spin Energy          =      -0.0021426366429266 [Eh]
	 Opposite-Spin Energy      =      -0.0084347388510196 [Eh]
	 Correlation Energy        =      -0.0105773754939462 [Eh]
	 Total Energy              =    -161.6866100596979834 [Eh]
	 SCS Total Energy          =    -161.6868685830395691 [Eh]
                               Psi4 1.8.2 release
    Molecular point group: c1

    Geometry (in Bohr), charge = 1, multiplicity = 1:

       Center              X                  Y                   Z               Mass
    ------------   -----------------  -----------------  -----------------  -----------------
         CL           0.000000000000     0.000000000000     0.000000000000    34.968852682000
         NA           0.000000000000     4.478845559126     0.000000000000    22.989769282000
         NA           6.718267393826     0.000000000000     0.000000000000    22.989769282000

  Charge       = 1
  Multiplicity = 1
  Basis Set: AUG-CC-PVTZ
    Blend: AUG-CC-PVTZ
  Basis Set: (AUG-CC-PVTZ AUX)
    Blend: AUG-CC-PVTZ-JKFIT + DEF2-UNIVERSAL-JKFIT

    Orbital Energies [Eh]
    ---------------------

    Doubly Occupied:

       1A   -104.857331     2A    -40.722765     3A    -40.627524
       4A    -10.582212     5A     -8.048320     6A     -8.048173
       7A     -8.047998     8A     -3.035185     9A     -2.948974
      10A     -1.758829    11A     -1.758549    12A     -1.757547
      13A     -1.672264    14A     -1.671828    15A     -1.671760
      16A     -1.093581    17A     -0.519496    18A     -0.507811
      19A     -0.503153

  @DF-RHF Final Energy:  -783.16120468626286

   => Energetics <=

    Nuclear Repulsion Energy =             84.5721089235772467
    One-Electron Energy =               -1255.8000297965734262
    Two-Electron Energy =                 388.0667161867334016
    Total Energy =                       -783.1612046862628631
 Dipole X            :        -67.7803295           73.9009413            6.1206118
 Dipole Y            :        -45.5558486           49.2673012            3.7114525
 Dipole Z            :         -0.0000000            0.0000000           -0.0000000
 Magnitude           :                                                    7.1579864
  Basis Set: (AUG-CC-PVTZ AUX)
    Blend: AUG-CC-PVTZ-RI + DEF2-QZVPP-RI
	 Reference Energy          =    -783.1612046862628631 [Eh]
	 Singles Energy            =      -0.0000000000000000 [Eh]
	 Same-Spin Energy          =      -0.0678187641095644 [Eh]
	 Opposite-Spin Energy      =      -0.1987389024541747 [Eh]
	 Correlation Energy        =      -0.2665576665637391 [Eh]
	 Total Energy              =    -783.4277623528265622 [Eh]

	 ================> DF-SCS-MP2 Energies <==================
	-----------------------------------------------------------
	 SCS Same-Spin Scale       =       0.3333333333333333 [-]
	 SCS Opposite-Spin Scale   =       1.2000000000000000 [-]
	 SCS Same-Spin Energy      =      -0.0226062547031881 [Eh]
	 SCS Opposite-Spin Energy  =      -0.2384866829450097 [Eh]
	 SCS Correlation Energy    =      -0.2610929376481978 [Eh]
	 SCS Total Energy          =    -783.4222976239110494 [Eh]
	-----------------------------------------------------------

*** Psi4 exiting successfully. Buy a developer a beer!
