                               Psi4 1.8.2 release

  ==> Input File <==

--------------------------------------------------------------------------
MEMORY 60 GB

molecule dimer {
1 1
Gh(Cl)     0.000000     0.000000     0.000000
Na         0.000000     2.370103     0.000000
Gh(Na)     4.740206     0.000000     0.000000

units ang
no_reorient
no_com
symmetry c1
}

set {
basis        aug-cc-pVTZ
scf_type     df
}

energy("mp2")
--------------------------------------------------------------------------

    Molecular point group: c1

    Geometry (in Angstrom), charge = 1, multiplicity = 1:

       Center              X                  Y                   Z               Mass
    ------------   -----------------  -----------------  -----------------  -----------------
      Gh(CL)          0.000000000000     0.000000000000     0.000000000000    34.968852682000
         NA           0.000000000000     2.370103000000     0.000000000000    22.989769282000
      Gh(NA)          4.740206000000     0.000000000000     0.000000000000    22.989769282000

  Charge       = 1
  Multiplicity = 1
  Basis Set: AUG-CC-PVTZ
    Blend: AUG-CC-PVTZ
  Basis Set: (AUG-CC-PVTZ AUX)
    Blend: AUG-CC-PVTZ-JKFIT + DEF2-UNIVERSAL-JKFIT

    Orbital Energies [Eh]
    ---------------------

    Doubly Occupied:

       1A    -40.762981     2A     -3.074994     3A     -1.798274
       4A     -1.798150     5A     -1.798132

  @DF-RHF Final Energy:  -161.67603891764955

   => Energetics <=

    Nuclear Repulsion Energy =              0.0000000000000000
    One-Electron Energy =                -224.8870165717474663
    Two-Electron Energy =                  63.2109776540979027
    Total Energy =                       -161.6760389176495778
 Dipole X            :          0.0000898            0.0000000            0.0000898
 Dipole Y            :        -44.7890433           49.2673012            4.4782579
 Dipole Z            :          0.0000000            0.0000000            0.0000000
 Magnitude           :                                                    4.4782579
  Basis Set: (AUG-CC-PVTZ AUX)
    Blend: AUG-CC-PVTZ-RI + DEF2-QZVPP-RI
	 Reference Energy          =    -161.6760389176495494 [Eh]
	 Singles Energy            =      -0.0000000000000000 [Eh]
	 Same-Spin Energy          =      -0.0026117894585733 [Eh]
	 Opposite-Spin Energy      =      -0.0097107505272607 [Eh]
	 Correlation Energy        =      -0.0123225399858340 [Eh]
	 Total Energy              =    -161.6883614576353807 [Eh]

	 ================> DF-SCS-MP2 Energies <==================
	-----------------------------------------------------------
	 SCS Same-Spin Scale       =       0.3333333333333333 [-]
	 SCS Opposite-Spin Scale   =       1.2000000000000000 [-]
	 SCS Same-Spin Energy      =      -0.0008705964861911 [Eh]
	 SCS Opposite-Spin Energy  =      -0.0116529006327128 [Eh]
	 SCS Correlation Energy    =      -0.0125234971189039 [Eh]
	 SCS Total Energy          =    -161.6885624147684553 [Eh]
	-----------------------------------------------------------

*** Psi4 exiting successfully. Buy a developer a beer!
