                               Psi4 1.8.2 release

  ==> Input File <==

--------------------------------------------------------------------------
MEMORY 60 GB

molecule dimer {
1 1
Gh(Cl)     0.000000     0.000000     0.000000
Na         0.000000     2.370103     0.000000
Gh(Na)     3.318144     0.000000     0.000000

units ang
no_reorient
no_com
symmetry c1
}

set {
basis        aug-cc-pVTZ
scf_type     df
}

energy("mp2")
--------------------------------------------------------------------------

    Molecular point group: c1

    Geometry (in Angstrom), charge = 1, multiplicity = 1:

       Center              X                  Y                   Z               Mass
    ------------   -----------------  -----------------  -----------------  -----------------
      Gh(CL)          0.000000000000     0.000000000000     0.000000000000    34.968852682000
         NA           0.000000000000     2.370103000000     0.000000000000    22.989769282000
      Gh(NA)          3.318144000000     0.000000000000     0.000000000000    22.989769282000

  Charge       = 1
  Multiplicity = 1
  Basis Set: AUG-CC-PVTZ
    Blend: AUG-CC-PVTZ
  Basis Set: (AUG-CC-PVTZ AUX)
    Blend: AUG-CC-PVTZ-JKFIT + DEF2-UNIVERSAL-JKFIT

    Orbital Energies [Eh]
    ---------------------

    Doubly Occupied:

       1A    -40.762850     2A     -3.074937     3A     -1.798222
       4A     -1.798111     5A     -1.798072

  @DF-RHF Final Energy:  -161.67604050519560

   => Energetics <=

    Nuclear Repulsion Energy =              0.0000000000000000
    One-Electron Energy =                -224.8876965707776208
    Two-Electron Energy =                  63.2116560655820052
    Total Energy =                       -161.6760405051956013
 Dipole X            :          0.0000988            0.0000000            0.0000988
 Dipole Y            :        -44.7890238           49.2673012            4.4782773
 Dipole Z            :         -0.0000000            0.0000000           -0.0000000
 Magnitude           :                                                    4.4782773
  Basis Set: (AUG-CC-PVTZ AUX)
    Blend: AUG-CC-PVTZ-RI + DEF2-QZVPP-RI
	 Reference Energy          =    -161.6760405051956013 [Eh]
	 Singles Energy            =      -0.0000000000000000 [Eh]
	 Same-Spin Energy          =      -0.0027005157191581 [Eh]
	 Opposite-Spin Energy      =      -0.0099441553204022 [Eh]
	 Correlation Energy        =      -0.0126446710395603 [Eh]
	 Total Energy              =    -161.6886851762351682 [Eh]

	 ================> DF-SCS-MP2 Energies <==================
	-----------------------------------------------------------
	 SCS Same-Spin Scale       =       0.3333333333333333 [-]
	 SCS Opposite-Spin Scale   =       1.2000000000000000 [-]
	 SCS Same-Spin Energy      =      -0.0009001719063860 [Eh]
	 SCS Opposite-Spin Energy  =      -0.0119329863844826 [Eh]
	 SCS Correlation Energy    =      -0.0128331582908687 [Eh]
	 SCS Total Energy          =    -161.6888736634864756 [Eh]
	-----------------------------------------------------------

*** Psi4 exiting successfully. Buy a developer a beer!
