                               Psi4 1.8.2 release

  ==> Input File <==

--------------------------------------------------------------------------
MEMORY 60 GB

molecule dimer {
1 1
Cl         0.000000     0.000000     0.000000
Na         0.000000     2.370103     0.000000
Na         3.081134     0.000000     0.000000

units ang
no_reorient
no_com
symmetry c1
}

set {
basis        aug-cc-pVTZ
scf_type     df
}

energy("mp2")
--------------------------------------------------------------------------

    Molecular point group: c1

    Geometry (in Angstrom), charge = 1, multiplicity = 1:

       Center              X                  Y                   Z               Mass
    ------------   -----------------  -----------------  -----------------  -----------------
         CL           0.000000000000     0.000000000000     0.000000000000    34.968852682000
         NA           0.000000000000     2.370103000000     0.000000000000    22.989769282000
         NA           3.081134000000     0.000000000000     0.000000000000    22.989769282000

  Charge       = 1
  Multiplicity = 1
  Basis Set: AUG-CC-PVTZ
    Blend: AUG-CC-PVTZ
  Basis Set: (AUG-CC-PVTZ AUX)
    Blend: AUG-CC-PVTZ-JKFIT + DEF2-UNIVERSAL-JKFIT

    Orbital Energies [Eh]
    ---------------------

    Doubly Occupied:

       1A   -104.877384     2A    -40.703776     3A    -40.640294
       4A    -10.602273     5A     -8.068384     6A     -8.068240
       7A     -8.068055     8A     -3.017458     9A     -2.961654
      10A     -1.741288    11A     -1.740871    12A     -1.739473
      13A     -1.685065    14A     -1.684591    15A     -1.684407
      16A     -1.114496    17A     -0.539430    18A     -0.531472
      19A     -0.523036

  @DF-RHF Final Energy:  -783.17233246662545

   => Energetics <=

    Nuclear Repulsion Energy =             90.3405005585904917
    One-Electron Energy =               -1267.0423725891018876
    Two-Electron Energy =                 393.5295395638858622
    Total Energy =                       -783.1723324666254484
 Dipole X            :        -58.9208793           64.0474936            5.1266143
 Dipole Y            :        -45.5434825           49.2673012            3.7238186
 Dipole Z            :          0.0000000            0.0000000            0.0000000
 Magnitude           :                                                    6.3363238
  Basis Set: (AUG-CC-PVTZ AUX)
    Blend: AUG-CC-PVTZ-RI + DEF2-QZVPP-RI
	 Reference Energy          =    -783.1723324666254484 [Eh]
	 Singles Energy            =      -0.0000000000000000 [Eh]
	 Same-Spin Energy          =      -0.0681455387283564 [Eh]
	 Opposite-Spin Energy      =      -0.1996348363897123 [Eh]
	 Correlation Energy        =      -0.2677803751180687 [Eh]
	 Total Energy              =    -783.4401128417434848 [Eh]

	 ================> DF-SCS-MP2 Energies <==================
	-----------------------------------------------------------
	 SCS Same-Spin Scale       =       0.3333333333333333 [-]
	 SCS Opposite-Spin Scale   =       1.2000000000000000 [-]
	 SCS Same-Spin Energy      =      -0.0227151795761188 [Eh]
	 SCS Opposite-Spin Energy  =      -0.2395618036676548 [Eh]
	 SCS Correlation Energy    =      -0.2622769832437736 [Eh]
	 SCS Total Energy          =    -783.4346094498691855 [Eh]
	-----------------------------------------------------------

*** Psi4 exiting successfully. Buy a developer a beer!
