                               Psi4 1.8.2 release

  ==> Input File <==

--------------------------------------------------------------------------
MEMORY 60 GB

molecule dimer {
-1 1
Cl         0.000000     0.000000     0.000000
Gh(Na)     0.000000     2.370103     0.000000
Gh(Na)     2.607113     0.000000     0.000000

units ang
no_reorient
no_com
symmetry c1
}

set {
basis        aug-cc-pVTZ
scf_type     df
}

energy("mp2")
--------------------------------------------------------------------------

    Molecular point group: c1

    Geometry (in Angstrom), charge = -1, multiplicity = 1:

       Center              X                  Y                   Z               Mass
    ------------   -----------------  -----------------  -----------------  -----------------
         CL           0.000000000000     0.000000000000     0.000000000000    34.968852682000
      Gh(NA)          0.000000000000     2.370103000000     0.000000000000    22.989769282000
      Gh(NA)          2.607113000000     0.000000000000     0.000000000000    22.989769282000

  Charge       = -1
  Multiplicity = 1
  Basis Set: AUG-CC-PVTZ
    Blend: AUG-CC-PVTZ
  Basis Set: (AUG-CC-PVTZ AUX)
    Blend: AUG-CC-PVTZ-JKFIT + DEF2-UNIVERSAL-JKFIT

    Orbital Energies [Eh]
    ---------------------

    Doubly Occupied:

       1A   -104.506666     2A    -10.229901     3A     -7.695969
       4A     -7.695952     5A     -7.695940     6A     -0.733479
       7A     -0.150322     8A     -0.150318     9A     -0.150306

  @DF-RHF Final Energy:  -459.57352515446451

   => Energetics <=

    Nuclear Repulsion Energy =              0.0000000000000000
    One-Electron Energy =                -641.1293428087910797
    Two-Electron Energy =                 181.5558176543265745
    Total Energy =                       -459.5735251544645052
 Dipole X            :          0.0001407            0.0000000            0.0001407
 Dipole Y            :          0.0002274            0.0000000            0.0002274
 Dipole Z            :          0.0000000            0.0000000            0.0000000
 Magnitude           :                                                    0.0002674
  Basis Set: (AUG-CC-PVTZ AUX)
    Blend: AUG-CC-PVTZ-RI + DEF2-QZVPP-RI
	 Reference Energy          =    -459.5735251544645052 [Eh]
	 Singles Energy            =      -0.0000000000000000 [Eh]
	 Same-Spin Energy          =      -0.0629267264469635 [Eh]
	 Opposite-Spin Energy      =      -0.1809860840541383 [Eh]
	 Correlation Energy        =      -0.2439128105011018 [Eh]
	 Total Energy              =    -459.8174379649656203 [Eh]

	 ================> DF-SCS-MP2 Energies <==================
	-----------------------------------------------------------
	 SCS Same-Spin Scale       =       0.3333333333333333 [-]
	 SCS Opposite-Spin Scale   =       1.2000000000000000 [-]
	 SCS Same-Spin Energy      =      -0.0209755754823212 [Eh]
	 SCS Opposite-Spin Energy  =      -0.2171833008649660 [Eh]
	 SCS Correlation Energy    =      -0.2381588763472871 [Eh]
	 SCS Total Energy          =    -459.8116840308118185 [Eh]
	-----------------------------------------------------------

*** Psi4 exiting successfully. Buy a developer a beer!
