                               Psi4 1.8.2 release

  ==> Input File <==

--------------------------------------------------------------------------
MEMORY 60 GB

molecule dimer {
-1 1
Cl     0.000000     0.000000     0.000000
--
1 1
Na     0.000000     2.370103     0.000000
--
1 1
Na     3.081134     0.000000     0.000000

units ang
no_reorient
no_com
symmetry c1
}

set {
basis        aug-cc-pVTZ
scf_type     df
}

energy("mp2", bsse_type="cp")
--------------------------------------------------------------------------

                               Psi4 1.8.2 release
    Molecular point group: c1
  Charge       = -1
  Multiplicity = 1
  Basis Set: AUG-CC-PVTZ
    Blend: AUG-CC-PVTZ
  Basis Set: (AUG-CC-PVTZ AUX)
    Blend: AUG-CC-PVTZ-JKFIT + DEF2-UNIVERSAL-JKFIT
  @DF-RHF Final Energy:  -459.57352103025511
    Total Energy =                       -459.5735210302550513
 Dipole X            :          0.0000560            0.0000000            0.0000560
 Dipole Y            :          0.0002498            0.0000000            0.0002498
 Dipole Z            :          0.0000000            0.0000000            0.0000000
 Magnitude           :                                                    0.0002560
  Basis Set: (AUG-CC-PVTZ AUX)
    Blend: AUG-CC-PVTZ-RI + DEF2-QZVPP-RI
	 Reference Energy          =    -459.5735210302551081 [Eh]
	 Singles Energy            =      -0.0000000000000000 [Eh]
	 Same-Spin Energy          =      -0.0628378617311803 [Eh]
	 Opposite-Spin Energy      =      -0.1806479430468735 [Eh]
	 Correlation Energy        =      -0.2434858047780539 [Eh]
	 Total Energy              =    -459.8170068350331690 [Eh]
	 SCS Total Energy          =    -459.8112445158217270 [Eh]
                               Psi4 1.8.2 release
    Molecular point group: c1
  Basis Set: AUG-CC-PVTZ
    Blend: AUG-CC-PVTZ
  Basis Set: (AUG-CC-PVTZ AUX)
    Blend: AUG-CC-PVTZ-JKFIT + DEF2-UNIVERSAL-JKFIT
  @DF-RHF Final Energy:  -161.67604119872925
    Total Energy =                       -161.6760411987292514
  Basis Set: (AUG-CC-PVTZ AUX)
                               Psi4 1.8.2 release
  @DF-RHF Final Energy:  -323.21608669904646
    Total Energy =                       -323.2160866990464001
                               Psi4 1.8.2 release
  @DF-RHF Final Energy:  -621.42915068588866
    Total Energy =                       -621.4291506858885441
                               Psi4 1.8.2 release
  @DF-RHF Final Energy:  -621.45488089025855
    Total Energy =                       -621.4548808902584369
                               Psi4 1.8.2 release
  Multiplicity = 1
  @DF-RHF Final Energy:  -161.67603549114432
    Total Energy =                       -161.6760354911443187
	 Singles Energy            =      -0.0000000000000000 [Eh]
	 Same-Spin Energy          =      -0.0023446253270423 [Eh]
	 Opposite-Spin Energy      =      -0.0090107837005776 [Eh]
	 Correlation Energy        =      -0.0113554090276199 [Eh]
	 Total Energy              =    -161.6873909001719483 [Eh]
	 SCS Total Energy          =    -161.6876299733606857 [Eh]
                               Psi4 1.8.2 release
    Molecular point group: c1

    Geometry (in Bohr), charge = 1, multiplicity = 1:

       Center              X                  Y                   Z               Mass
    ------------   -----------------  -----------------  -----------------  -----------------
         CL           0.000000000000     0.000000000000     0.000000000000    34.968852682000
         NA           0.000000000000     4.478845559126     0.000000000000    22.989769282000
         NA           5.822499415836     0.000000000000     0.000000000000    22.989769282000

  Charge       = 1
  Multiplicity = 1
  Basis Set: AUG-CC-PVTZ
    Blend: AUG-CC-PVTZ
  Basis Set: (AUG-CC-PVTZ AUX)
    Blend: AUG-CC-PVTZ-JKFIT + DEF2-UNIVERSAL-JKFIT

    Orbital Energies [Eh]
    ---------------------

    Doubly Occupied:

       1A   -104.877384     2A    -40.703776     3A    -40.640294
       4A    -10.602273     5A     -8.068384     6A     -8.068240
       7A     -8.068055     8A     -3.017458     9A     -2.961654
      10A     -1.741288    11A     -1.740871    12A     -1.739473
      13A     -1.685065    14A     -1.684591    15A     -1.684407
      16A     -1.114496    17A     -0.539430    18A     -0.531472
      19A     -0.523036

  @DF-RHF Final Energy:  -783.17233246662556

   => Energetics <=

    Nuclear Repulsion Energy =             90.3405005585904917
    One-Electron Energy =               -1267.0423725891016602
    Two-Electron Energy =                 393.5295395638855780
    Total Energy =                       -783.1723324666255621
 Dipole X            :        -58.9208793           64.0474936            5.1266143
 Dipole Y            :        -45.5434825           49.2673012            3.7238186
 Dipole Z            :          0.0000000            0.0000000            0.0000000
 Magnitude           :                                                    6.3363238
  Basis Set: (AUG-CC-PVTZ AUX)
    Blend: AUG-CC-PVTZ-RI + DEF2-QZVPP-RI
	 Reference Energy          =    -783.1723324666255621 [Eh]
	 Singles Energy            =      -0.0000000000000000 [Eh]
	 Same-Spin Energy          =      -0.0681455387283575 [Eh]
	 Opposite-Spin Energy      =      -0.1996348363897143 [Eh]
	 Correlation Energy        =      -0.2677803751180717 [Eh]
	 Total Energy              =    -783.4401128417435984 [Eh]

	 ================> DF-SCS-MP2 Energies <==================
	-----------------------------------------------------------
	 SCS Same-Spin Scale       =       0.3333333333333333 [-]
	 SCS Opposite-Spin Scale   =       1.2000000000000000 [-]
	 SCS Same-Spin Energy      =      -0.0227151795761192 [Eh]
	 SCS Opposite-Spin Energy  =      -0.2395618036676571 [Eh]
	 SCS Correlation Energy    =      -0.2622769832437763 [Eh]
	 SCS Total Energy          =    -783.4346094498692992 [Eh]
	-----------------------------------------------------------

*** Psi4 exiting successfully. Buy a developer a beer!
