                               Psi4 1.8.2 release

  ==> Input File <==

--------------------------------------------------------------------------
MEMORY 60 GB

molecule dimer {
1 1
Cl         0.000000     0.000000     0.000000
Na         0.000000     2.370103     0.000000
Na         3.555154     0.000000     0.000000

units ang
no_reorient
no_com
symmetry c1
}

set {
basis        aug-cc-pVTZ
scf_type     df
}

energy("mp2")
--------------------------------------------------------------------------

    Molecular point group: c1

    Geometry (in Angstrom), charge = 1, multiplicity = 1:

       Center              X                  Y                   Z               Mass
    ------------   -----------------  -----------------  -----------------  -----------------
         CL           0.000000000000     0.000000000000     0.000000000000    34.968852682000
         NA           0.000000000000     2.370103000000     0.000000000000    22.989769282000
         NA           3.555154000000     0.000000000000     0.000000000000    22.989769282000

  Charge       = 1
  Multiplicity = 1
  Basis Set: AUG-CC-PVTZ
    Blend: AUG-CC-PVTZ
  Basis Set: (AUG-CC-PVTZ AUX)
    Blend: AUG-CC-PVTZ-JKFIT + DEF2-UNIVERSAL-JKFIT

    Orbital Energies [Eh]
    ---------------------

    Doubly Occupied:

       1A   -104.857331     2A    -40.722765     3A    -40.627524
       4A    -10.582212     5A     -8.048320     6A     -8.048173
       7A     -8.047998     8A     -3.035185     9A     -2.948974
      10A     -1.758829    11A     -1.758549    12A     -1.757547
      13A     -1.672264    14A     -1.671828    15A     -1.671760
      16A     -1.093581    17A     -0.519496    18A     -0.507811
      19A     -0.503153

  @DF-RHF Final Energy:  -783.16120468626241

   => Energetics <=

    Nuclear Repulsion Energy =             84.5721089235772467
    One-Electron Energy =               -1255.8000297965725167
    Two-Electron Energy =                 388.0667161867330037
    Total Energy =                       -783.1612046862624084
 Dipole X            :        -67.7803295           73.9009413            6.1206118
 Dipole Y            :        -45.5558486           49.2673012            3.7114525
 Dipole Z            :         -0.0000000            0.0000000           -0.0000000
 Magnitude           :                                                    7.1579864
  Basis Set: (AUG-CC-PVTZ AUX)
    Blend: AUG-CC-PVTZ-RI + DEF2-QZVPP-RI
	 Reference Energy          =    -783.1612046862624084 [Eh]
	 Singles Energy            =      -0.0000000000000000 [Eh]
	 Same-Spin Energy          =      -0.0678187641095620 [Eh]
	 Opposite-Spin Energy      =      -0.1987389024541690 [Eh]
	 Correlation Energy        =      -0.2665576665637310 [Eh]
	 Total Energy              =    -783.4277623528261074 [Eh]

	 ================> DF-SCS-MP2 Energies <==================
	-----------------------------------------------------------
	 SCS Same-Spin Scale       =       0.3333333333333333 [-]
	 SCS Opposite-Spin Scale   =       1.2000000000000000 [-]
	 SCS Same-Spin Energy      =      -0.0226062547031873 [Eh]
	 SCS Opposite-Spin Energy  =      -0.2384866829450028 [Eh]
	 SCS Correlation Energy    =      -0.2610929376481901 [Eh]
	 SCS Total Energy          =    -783.4222976239105947 [Eh]
	-----------------------------------------------------------

*** Psi4 exiting successfully. Buy a developer a beer!
