                               Psi4 1.9 release

  ==> Input File <==

--------------------------------------------------------------------------
MEMORY 60 GB

molecule dimer {
0 1
Cl     0.000000     0.000000     0.000000
Na     0.000000     2.370103     0.000000
--
1 1
Na     3.081134     0.000000     0.000000

units ang
no_reorient
no_com
symmetry c1
}

set {
basis        aug-cc-pVTZ
scf_type     df
}

energy("mp2", bsse_type="cp")
--------------------------------------------------------------------------

                               Psi4 1.9 release
    Molecular point group: c1
  Charge       = 1
  Multiplicity = 1
  Basis Set: AUG-CC-PVTZ
    Blend: AUG-CC-PVTZ
  Basis Set: (AUG-CC-PVTZ AUX)
    Blend: AUG-CC-PVTZ-JKFIT + DEF2-UNIVERSAL-JKFIT
  @DF-RHF Final Energy:  -161.67603549103973
    Total Energy =                       -161.6760354910397552
 Dipole X            :        -58.2256257           64.0474936            5.8218678
 Dipole Y            :          0.0001027            0.0000000            0.0001027
 Dipole Z            :         -0.0000000            0.0000000           -0.0000000
 Magnitude           :                                                    5.8218678
  Basis Set: (AUG-CC-PVTZ AUX)
    Blend: AUG-CC-PVTZ-RI + DEF2-QZVPP-RI
	 Reference Energy          =    -161.6760354910397268 [Eh]
	 Singles Energy            =      -0.0000000000000000 [Eh]
	 Same-Spin Energy          =      -0.0023446253270993 [Eh]
	 Opposite-Spin Energy      =      -0.0090107837007241 [Eh]
	 Correlation Energy        =      -0.0113554090278234 [Eh]
	 Total Energy              =    -161.6873909000675553 [Eh]
	 SCS Total Energy          =    -161.6876299732562927 [Eh]
                               Psi4 1.9 release
    Molecular point group: c1
  Multiplicity = 1
  Basis Set: AUG-CC-PVTZ
    Blend: AUG-CC-PVTZ
  Basis Set: (AUG-CC-PVTZ AUX)
    Blend: AUG-CC-PVTZ-JKFIT + DEF2-UNIVERSAL-JKFIT
  @DF-RHF Final Energy:  -621.45488089021410
    Total Energy =                       -621.4548808902140991
  Basis Set: (AUG-CC-PVTZ AUX)
	 Singles Energy            =      -0.0000000000000000 [Eh]
	 Same-Spin Energy          =      -0.0656574098067966 [Eh]
	 Opposite-Spin Energy      =      -0.1902160930871045 [Eh]
	 Correlation Energy        =      -0.2558735028939011 [Eh]
	 Total Energy              =    -621.7107543931080045 [Eh]
	 SCS Total Energy          =    -621.7050260051875057 [Eh]
                               Psi4 1.9 release
    Molecular point group: c1

    Geometry (in Bohr), charge = 1, multiplicity = 1:

       Center              X                  Y                   Z               Mass
    ------------   -----------------  -----------------  -----------------  -----------------
         CL           0.000000000000     0.000000000000     0.000000000000    34.968852682000
         NA           0.000000000000     4.478845559126     0.000000000000    22.989769282000
         NA           5.822499415836     0.000000000000     0.000000000000    22.989769282000

  Charge       = 1
  Multiplicity = 1
  Basis Set: AUG-CC-PVTZ
    Blend: AUG-CC-PVTZ
  Basis Set: (AUG-CC-PVTZ AUX)
    Blend: AUG-CC-PVTZ-JKFIT + DEF2-UNIVERSAL-JKFIT

    Orbital Energies [Eh]
    ---------------------

    Doubly Occupied:

       1A   -104.877384     2A    -40.703776     3A    -40.640294
       4A    -10.602273     5A     -8.068384     6A     -8.068240
       7A     -8.068055     8A     -3.017458     9A     -2.961654
      10A     -1.741288    11A     -1.740871    12A     -1.739473
      13A     -1.685065    14A     -1.684591    15A     -1.684407
      16A     -1.114496    17A     -0.539430    18A     -0.531472
      19A     -0.523036

  @DF-RHF Final Energy:  -783.17233246639023

   => Energetics <=

    Nuclear Repulsion Energy =             90.3405005585904917
    One-Electron Energy =               -1267.0423725890873357
    Two-Electron Energy =                 393.5295395641065284
    Total Energy =                       -783.1723324663903441
 Dipole X            :        -58.9208793           64.0474936            5.1266143
 Dipole Y            :        -45.5434825           49.2673012            3.7238186
 Dipole Z            :         -0.0000000            0.0000000           -0.0000000
 Magnitude           :                                                    6.3363238
  Basis Set: (AUG-CC-PVTZ AUX)
    Blend: AUG-CC-PVTZ-RI + DEF2-QZVPP-RI
	 Reference Energy          =    -783.1723324663902304 [Eh]
	 Singles Energy            =      -0.0000000000000000 [Eh]
	 Same-Spin Energy          =      -0.0681455387283913 [Eh]
	 Opposite-Spin Energy      =      -0.1996348363897763 [Eh]
	 Correlation Energy        =      -0.2677803751181676 [Eh]
	 Total Energy              =    -783.4401128415083804 [Eh]

	 ================> DF-SCS-MP2 Energies <==================
	-----------------------------------------------------------
	 SCS Same-Spin Scale       =       0.3333333333333333 [-]
	 SCS Opposite-Spin Scale   =       1.2000000000000000 [-]
	 SCS Same-Spin Energy      =      -0.0227151795761304 [Eh]
	 SCS Opposite-Spin Energy  =      -0.2395618036677316 [Eh]
	 SCS Correlation Energy    =      -0.2622769832438620 [Eh]
	 SCS Total Energy          =    -783.4346094496340811 [Eh]
	-----------------------------------------------------------

*** Psi4 exiting successfully. Buy a developer a beer!
