                               Psi4 1.8.2 release

  ==> Input File <==

--------------------------------------------------------------------------
MEMORY 60 GB

molecule dimer {
-1 1
Cl     0.000000     0.000000     0.000000
--
1 1
Na     0.000000     2.370103     0.000000
--
1 1
Na     3.318144     0.000000     0.000000

units ang
no_reorient
no_com
symmetry c1
}

set {
basis        aug-cc-pVTZ
scf_type     df
}

energy("mp2", bsse_type="cp")
--------------------------------------------------------------------------

                               Psi4 1.8.2 release
    Molecular point group: c1
  Charge       = -1
  Multiplicity = 1
  Basis Set: AUG-CC-PVTZ
    Blend: AUG-CC-PVTZ
  Basis Set: (AUG-CC-PVTZ AUX)
    Blend: AUG-CC-PVTZ-JKFIT + DEF2-UNIVERSAL-JKFIT
  @DF-RHF Final Energy:  -459.57351895493173
    Total Energy =                       -459.5735189549317283
 Dipole X            :          0.0000413            0.0000000            0.0000413
 Dipole Y            :          0.0002699            0.0000000            0.0002699
 Dipole Z            :         -0.0000000            0.0000000           -0.0000000
 Magnitude           :                                                    0.0002730
  Basis Set: (AUG-CC-PVTZ AUX)
    Blend: AUG-CC-PVTZ-RI + DEF2-QZVPP-RI
	 Reference Energy          =    -459.5735189549317283 [Eh]
	 Singles Energy            =      -0.0000000000000000 [Eh]
	 Same-Spin Energy          =      -0.0628034871694401 [Eh]
	 Opposite-Spin Energy      =      -0.1805201562182821 [Eh]
	 Correlation Energy        =      -0.2433236433877222 [Eh]
	 Total Energy              =    -459.8168425983194538 [Eh]
	 SCS Total Energy          =    -459.8110776381167852 [Eh]
                               Psi4 1.8.2 release
    Molecular point group: c1
  Basis Set: AUG-CC-PVTZ
    Blend: AUG-CC-PVTZ
  Basis Set: (AUG-CC-PVTZ AUX)
    Blend: AUG-CC-PVTZ-JKFIT + DEF2-UNIVERSAL-JKFIT
  @DF-RHF Final Energy:  -161.67604050519572
    Total Energy =                       -161.6760405051957150
  Basis Set: (AUG-CC-PVTZ AUX)
                               Psi4 1.8.2 release
  @DF-RHF Final Energy:  -323.22241495544540
    Total Energy =                       -323.2224149554454016
                               Psi4 1.8.2 release
  @DF-RHF Final Energy:  -621.41722843707578
    Total Energy =                       -621.4172284370758916
                               Psi4 1.8.2 release
  @DF-RHF Final Energy:  -621.45487135091923
    Total Energy =                       -621.4548713509193476
                               Psi4 1.8.2 release
  Multiplicity = 1
  @DF-RHF Final Energy:  -161.67603420705672
    Total Energy =                       -161.6760342070567162
	 Singles Energy            =      -0.0000000000000000 [Eh]
	 Same-Spin Energy          =      -0.0022399037410098 [Eh]
	 Opposite-Spin Energy      =      -0.0087096737471346 [Eh]
	 Correlation Energy        =      -0.0109495774881444 [Eh]
	 Total Energy              =    -161.6869837845448501 [Eh]
	 SCS Total Energy          =    -161.6872324501336209 [Eh]
                               Psi4 1.8.2 release
    Molecular point group: c1

    Geometry (in Bohr), charge = 1, multiplicity = 1:

       Center              X                  Y                   Z               Mass
    ------------   -----------------  -----------------  -----------------  -----------------
         CL           0.000000000000     0.000000000000     0.000000000000    34.968852682000
         NA           0.000000000000     4.478845559126     0.000000000000    22.989769282000
         NA           6.270383404831     0.000000000000     0.000000000000    22.989769282000

  Charge       = 1
  Multiplicity = 1
  Basis Set: AUG-CC-PVTZ
    Blend: AUG-CC-PVTZ
  Basis Set: (AUG-CC-PVTZ AUX)
    Blend: AUG-CC-PVTZ-JKFIT + DEF2-UNIVERSAL-JKFIT

    Orbital Energies [Eh]
    ---------------------

    Doubly Occupied:

       1A   -104.867240     2A    -40.714096     3A    -40.633760
       4A    -10.592092     5A     -8.058198     6A     -8.058056
       7A     -8.057873     8A     -3.027017     9A     -2.955166
      10A     -1.750753    11A     -1.750414    12A     -1.749211
      13A     -1.678508    14A     -1.678064    15A     -1.677937
      16A     -1.103650    17A     -0.529144    18A     -0.519047
      19A     -0.512784

  @DF-RHF Final Energy:  -783.16653876019177

   => Energetics <=

    Nuclear Repulsion Energy =             87.2772359995529001
    One-Electron Energy =               -1261.0615307294110607
    Two-Electron Energy =                 390.6177559696664048
    Total Energy =                       -783.1665387601917701
 Dipole X            :        -63.3541950           68.9742175            5.6200225
 Dipole Y            :        -45.5503031           49.2673012            3.7169980
 Dipole Z            :         -0.0000000            0.0000000           -0.0000000
 Magnitude           :                                                    6.7380062
  Basis Set: (AUG-CC-PVTZ AUX)
    Blend: AUG-CC-PVTZ-RI + DEF2-QZVPP-RI
	 Reference Energy          =    -783.1665387601917701 [Eh]
	 Singles Energy            =      -0.0000000000000000 [Eh]
	 Same-Spin Energy          =      -0.0679736624568918 [Eh]
	 Opposite-Spin Energy      =      -0.1991798567287314 [Eh]
	 Correlation Energy        =      -0.2671535191856232 [Eh]
	 Total Energy              =    -783.4336922793773965 [Eh]

	 ================> DF-SCS-MP2 Energies <==================
	-----------------------------------------------------------
	 SCS Same-Spin Scale       =       0.3333333333333333 [-]
	 SCS Opposite-Spin Scale   =       1.2000000000000000 [-]
	 SCS Same-Spin Energy      =      -0.0226578874856306 [Eh]
	 SCS Opposite-Spin Energy  =      -0.2390158280744777 [Eh]
	 SCS Correlation Energy    =      -0.2616737155601083 [Eh]
	 SCS Total Energy          =    -783.4282124757519341 [Eh]
	-----------------------------------------------------------

*** Psi4 exiting successfully. Buy a developer a beer!
