                               Psi4 1.8.2 release

  ==> Input File <==

--------------------------------------------------------------------------
MEMORY 60 GB

molecule dimer {
-1 1
Gh(Na)     0.000000     0.000000     0.000000
Cl         0.000000     2.370103     0.000000
Gh(Cl)     2.844124     0.000000     0.000000

units ang
no_reorient
no_com
symmetry c1
}

set {
basis        aug-cc-pVTZ
scf_type     df
}

energy("mp2")
--------------------------------------------------------------------------

    Molecular point group: c1

    Geometry (in Angstrom), charge = -1, multiplicity = 1:

       Center              X                  Y                   Z               Mass
    ------------   -----------------  -----------------  -----------------  -----------------
      Gh(NA)          0.000000000000     0.000000000000     0.000000000000    22.989769282000
         CL           0.000000000000     2.370103000000     0.000000000000    34.968852682000
      Gh(CL)          2.844124000000     0.000000000000     0.000000000000    34.968852682000

  Charge       = -1
  Multiplicity = 1
  Basis Set: AUG-CC-PVTZ
    Blend: AUG-CC-PVTZ
  Basis Set: (AUG-CC-PVTZ AUX)
    Blend: AUG-CC-PVTZ-JKFIT + DEF2-UNIVERSAL-JKFIT

    Orbital Energies [Eh]
    ---------------------

    Doubly Occupied:

       1A   -104.506460     2A    -10.229856     3A     -7.695914
       4A     -7.695910     5A     -7.695893     6A     -0.733492
       7A     -0.150334     8A     -0.150320     9A     -0.150319

  @DF-RHF Final Energy:  -459.57351270243868

   => Energetics <=

    Nuclear Repulsion Energy =              0.0000000000000000
    One-Electron Energy =                -641.1300235496310052
    Two-Electron Energy =                 181.5565108471922997
    Total Energy =                       -459.5735127024387339
 Dipole X            :         -0.0000249            0.0000000           -0.0000249
 Dipole Y            :        -80.6197535           76.1403745           -4.4793789
 Dipole Z            :         -0.0000000            0.0000000           -0.0000000
 Magnitude           :                                                    4.4793789
  Basis Set: (AUG-CC-PVTZ AUX)
    Blend: AUG-CC-PVTZ-RI + DEF2-QZVPP-RI
	 Reference Energy          =    -459.5735127024386770 [Eh]
	 Singles Energy            =      -0.0000000000000000 [Eh]
	 Same-Spin Energy          =      -0.0627234862777582 [Eh]
	 Opposite-Spin Energy      =      -0.1802507493506874 [Eh]
	 Correlation Energy        =      -0.2429742356284456 [Eh]
	 Total Energy              =    -459.8164869380671007 [Eh]

	 ================> DF-SCS-MP2 Energies <==================
	-----------------------------------------------------------
	 SCS Same-Spin Scale       =       0.3333333333333333 [-]
	 SCS Opposite-Spin Scale   =       1.2000000000000000 [-]
	 SCS Same-Spin Energy      =      -0.0209078287592527 [Eh]
	 SCS Opposite-Spin Energy  =      -0.2163008992208248 [Eh]
	 SCS Correlation Energy    =      -0.2372087279800776 [Eh]
	 SCS Total Energy          =    -459.8107214304187664 [Eh]
	-----------------------------------------------------------

*** Psi4 exiting successfully. Buy a developer a beer!
