                               Psi4 1.8.2 release

  ==> Input File <==

--------------------------------------------------------------------------
MEMORY 60 GB

molecule dimer {
1 1
Na     0.000000     0.000000     0.000000
--
-1 1
Cl     0.000000     2.370103     0.000000
--
-1 1
Cl     2.607113     0.000000     0.000000

units ang
no_reorient
no_com
symmetry c1
}

set {
basis        aug-cc-pVTZ
scf_type     df
}

energy("mp2", bsse_type="cp")
--------------------------------------------------------------------------

                               Psi4 1.8.2 release
    Molecular point group: c1
  Charge       = 1
  Multiplicity = 1
  Basis Set: AUG-CC-PVTZ
    Blend: AUG-CC-PVTZ
  Basis Set: (AUG-CC-PVTZ AUX)
    Blend: AUG-CC-PVTZ-JKFIT + DEF2-UNIVERSAL-JKFIT
  @DF-RHF Final Energy:  -161.67604984565972
    Total Energy =                       -161.6760498456597190
 Dipole X            :          0.0004190            0.0000000            0.0004190
 Dipole Y            :          0.0004384            0.0000000            0.0004384
 Dipole Z            :         -0.0000000            0.0000000           -0.0000000
 Magnitude           :                                                    0.0006064
  Basis Set: (AUG-CC-PVTZ AUX)
    Blend: AUG-CC-PVTZ-RI + DEF2-QZVPP-RI
	 Reference Energy          =    -161.6760498456597190 [Eh]
	 Singles Energy            =      -0.0000000000000000 [Eh]
	 Same-Spin Energy          =      -0.0030835474071294 [Eh]
	 Opposite-Spin Energy      =      -0.0109478980076810 [Eh]
	 Correlation Energy        =      -0.0140314454148104 [Eh]
	 Total Energy              =    -161.6900812910745344 [Eh]
	 SCS Total Energy          =    -161.6902151724046348 [Eh]
                               Psi4 1.8.2 release
    Molecular point group: c1
  Basis Set: AUG-CC-PVTZ
    Blend: AUG-CC-PVTZ
  Basis Set: (AUG-CC-PVTZ AUX)
    Blend: AUG-CC-PVTZ-JKFIT + DEF2-UNIVERSAL-JKFIT
  @DF-RHF Final Energy:  -459.57351378134024
    Total Energy =                       -459.5735137813402389
  Basis Set: (AUG-CC-PVTZ AUX)
                               Psi4 1.8.2 release
  @DF-RHF Final Energy:  -919.00716500225747
    Total Energy =                       -919.0071650022574659
                               Psi4 1.8.2 release
  @DF-RHF Final Energy:  -621.45100741125304
    Total Energy =                       -621.4510074112530447
                               Psi4 1.8.2 release
  @DF-RHF Final Energy:  -621.45489051085372
    Total Energy =                       -621.4548905108538293
                               Psi4 1.8.2 release
  Multiplicity = 1
  @DF-RHF Final Energy:  -459.57350908703597
    Total Energy =                       -459.5735090870359727
	 Singles Energy            =      -0.0000000000000000 [Eh]
	 Same-Spin Energy          =      -0.0626682306438004 [Eh]
	 Opposite-Spin Energy      =      -0.1800513495190923 [Eh]
	 Correlation Energy        =      -0.2427195801628926 [Eh]
	 Total Energy              =    -459.8162286671988568 [Eh]
	 SCS Total Energy          =    -459.8104601166734824 [Eh]
                               Psi4 1.8.2 release
    Molecular point group: c1

    Geometry (in Bohr), charge = -1, multiplicity = 1:

       Center              X                  Y                   Z               Mass
    ------------   -----------------  -----------------  -----------------  -----------------
         NA           0.000000000000     0.000000000000     0.000000000000    22.989769282000
         CL           0.000000000000     4.478845559126     0.000000000000    34.968852682000
         CL           4.926729548121     0.000000000000     0.000000000000    34.968852682000

  Charge       = -1
  Multiplicity = 1
  Basis Set: AUG-CC-PVTZ
    Blend: AUG-CC-PVTZ
  Basis Set: (AUG-CC-PVTZ AUX)
    Blend: AUG-CC-PVTZ-JKFIT + DEF2-UNIVERSAL-JKFIT

    Orbital Energies [Eh]
    ---------------------

    Doubly Occupied:

       1A   -104.551954     2A   -104.545250     3A    -40.298806
       4A    -10.277547     5A    -10.269765     6A     -7.743731
       7A     -7.743508     8A     -7.743450     9A     -7.735914
      10A     -7.735785    11A     -7.735720    12A     -2.623700
      13A     -1.347257    14A     -1.347068    15A     -1.345659
      16A     -0.792713    17A     -0.778775    18A     -0.228945
      19A     -0.211541    20A     -0.206776    21A     -0.199939
      22A     -0.191661    23A     -0.177542

  @DF-RHF Final Energy: -1081.06483905771211

   => Energetics <=

    Nuclear Repulsion Energy =            123.1126329308286245
    One-Electron Energy =               -1756.6889302971519555
    Two-Electron Energy =                 552.5114583086112816
    Total Energy =                      -1081.0648390577121063
 Dipole X            :        -87.9293190           83.7544023           -4.1749167
 Dipole Y            :        -79.8591718           76.1403745           -3.7187973
 Dipole Z            :         -0.0000000            0.0000000           -0.0000000
 Magnitude           :                                                    5.5910091
  Basis Set: (AUG-CC-PVTZ AUX)
    Blend: AUG-CC-PVTZ-RI + DEF2-QZVPP-RI
	 Reference Energy          =   -1081.0648390577121063 [Eh]
	 Singles Energy            =      -0.0000000000000000 [Eh]
	 Same-Spin Energy          =      -0.1302933183040163 [Eh]
	 Opposite-Spin Energy      =      -0.3722342683354962 [Eh]
	 Correlation Energy        =      -0.5025275866395125 [Eh]
	 Total Energy              =   -1081.5673666443515231 [Eh]

	 ================> DF-SCS-MP2 Energies <==================
	-----------------------------------------------------------
	 SCS Same-Spin Scale       =       0.3333333333333333 [-]
	 SCS Opposite-Spin Scale   =       1.2000000000000000 [-]
	 SCS Same-Spin Energy      =      -0.0434311061013388 [Eh]
	 SCS Opposite-Spin Energy  =      -0.4466811220025955 [Eh]
	 SCS Correlation Energy    =      -0.4901122281039342 [Eh]
	 SCS Total Energy          =   -1081.5549512858160597 [Eh]
	-----------------------------------------------------------

*** Psi4 exiting successfully. Buy a developer a beer!
