                               Psi4 1.8.2 release

  ==> Input File <==

--------------------------------------------------------------------------
MEMORY 60 GB

molecule dimer {
1 1
Na         0.000000     0.000000     0.000000
Gh(Cl)     0.000000     2.370103     0.000000
Gh(Cl)     2.844124     0.000000     0.000000

units ang
no_reorient
no_com
symmetry c1
}

set {
basis        aug-cc-pVTZ
scf_type     df
}

energy("mp2")
--------------------------------------------------------------------------

    Molecular point group: c1

    Geometry (in Angstrom), charge = 1, multiplicity = 1:

       Center              X                  Y                   Z               Mass
    ------------   -----------------  -----------------  -----------------  -----------------
         NA           0.000000000000     0.000000000000     0.000000000000    22.989769282000
      Gh(CL)          0.000000000000     2.370103000000     0.000000000000    34.968852682000
      Gh(CL)          2.844124000000     0.000000000000     0.000000000000    34.968852682000

  Charge       = 1
  Multiplicity = 1
  Basis Set: AUG-CC-PVTZ
    Blend: AUG-CC-PVTZ
  Basis Set: (AUG-CC-PVTZ AUX)
    Blend: AUG-CC-PVTZ-JKFIT + DEF2-UNIVERSAL-JKFIT

    Orbital Energies [Eh]
    ---------------------

    Doubly Occupied:

       1A    -40.762403     2A     -3.074727     3A     -1.798031
       4A     -1.797961     5A     -1.797861

  @DF-RHF Final Energy:  -161.67604743526891

   => Energetics <=

    Nuclear Repulsion Energy =              0.0000000000000000
    One-Electron Energy =                -224.8901275190532374
    Two-Electron Energy =                  63.2140800837843102
    Total Energy =                       -161.6760474352689130
 Dipole X            :          0.0004745            0.0000000            0.0004745
 Dipole Y            :          0.0004603            0.0000000            0.0004603
 Dipole Z            :         -0.0000000            0.0000000           -0.0000000
 Magnitude           :                                                    0.0006611
  Basis Set: (AUG-CC-PVTZ AUX)
    Blend: AUG-CC-PVTZ-RI + DEF2-QZVPP-RI
	 Reference Energy          =    -161.6760474352689130 [Eh]
	 Singles Energy            =      -0.0000000000000000 [Eh]
	 Same-Spin Energy          =      -0.0030603909831119 [Eh]
	 Opposite-Spin Energy      =      -0.0108960230792447 [Eh]
	 Correlation Energy        =      -0.0139564140623566 [Eh]
	 Total Energy              =    -161.6900038493312763 [Eh]

	 ================> DF-SCS-MP2 Energies <==================
	-----------------------------------------------------------
	 SCS Same-Spin Scale       =       0.3333333333333333 [-]
	 SCS Opposite-Spin Scale   =       1.2000000000000000 [-]
	 SCS Same-Spin Energy      =      -0.0010201303277040 [Eh]
	 SCS Opposite-Spin Energy  =      -0.0130752276950936 [Eh]
	 SCS Correlation Energy    =      -0.0140953580227976 [Eh]
	 SCS Total Energy          =    -161.6901427932916988 [Eh]
	-----------------------------------------------------------

*** Psi4 exiting successfully. Buy a developer a beer!
