                               Psi4 1.8.2 release

  ==> Input File <==

--------------------------------------------------------------------------
MEMORY 60 GB

molecule dimer {
-1 1
Gh(Na)     0.000000     0.000000     0.000000
Gh(Cl)     0.000000     2.370103     0.000000
Cl         4.740206     0.000000     0.000000

units ang
no_reorient
no_com
symmetry c1
}

set {
basis        aug-cc-pVTZ
scf_type     df
}

energy("mp2")
--------------------------------------------------------------------------

    Molecular point group: c1

    Geometry (in Angstrom), charge = -1, multiplicity = 1:

       Center              X                  Y                   Z               Mass
    ------------   -----------------  -----------------  -----------------  -----------------
      Gh(NA)          0.000000000000     0.000000000000     0.000000000000    22.989769282000
      Gh(CL)          0.000000000000     2.370103000000     0.000000000000    34.968852682000
         CL           4.740206000000     0.000000000000     0.000000000000    34.968852682000

  Charge       = -1
  Multiplicity = 1
  Basis Set: AUG-CC-PVTZ
    Blend: AUG-CC-PVTZ
  Basis Set: (AUG-CC-PVTZ AUX)
    Blend: AUG-CC-PVTZ-JKFIT + DEF2-UNIVERSAL-JKFIT

    Orbital Energies [Eh]
    ---------------------

    Doubly Occupied:

       1A   -104.506061     2A    -10.229768     3A     -7.695806
       4A     -7.695806     5A     -7.695799     6A     -0.733512
       7A     -0.150337     8A     -0.150337     9A     -0.150336

  @DF-RHF Final Energy:  -459.57348706851258

   => Energetics <=

    Nuclear Repulsion Energy =              0.0000000000000000
    One-Electron Energy =                -641.1314455797769369
    Two-Electron Energy =                 181.5579585112643883
    Total Energy =                       -459.5734870685125770
 Dipole X            :       -161.2385174          152.2807490           -8.9577684
 Dipole Y            :         -0.0000688            0.0000000           -0.0000688
 Dipole Z            :         -0.0000000            0.0000000           -0.0000000
 Magnitude           :                                                    8.9577684
  Basis Set: (AUG-CC-PVTZ AUX)
    Blend: AUG-CC-PVTZ-RI + DEF2-QZVPP-RI
	 Reference Energy          =    -459.5734870685125770 [Eh]
	 Singles Energy            =      -0.0000000000000000 [Eh]
	 Same-Spin Energy          =      -0.0623470823380045 [Eh]
	 Opposite-Spin Energy      =      -0.1789016386729886 [Eh]
	 Correlation Energy        =      -0.2412487210109931 [Eh]
	 Total Energy              =    -459.8147357895235814 [Eh]

	 ================> DF-SCS-MP2 Energies <==================
	-----------------------------------------------------------
	 SCS Same-Spin Scale       =       0.3333333333333333 [-]
	 SCS Opposite-Spin Scale   =       1.2000000000000000 [-]
	 SCS Same-Spin Energy      =      -0.0207823607793348 [Eh]
	 SCS Opposite-Spin Energy  =      -0.2146819664075864 [Eh]
	 SCS Correlation Energy    =      -0.2354643271869212 [Eh]
	 SCS Total Energy          =    -459.8089513956995233 [Eh]
	-----------------------------------------------------------

*** Psi4 exiting successfully. Buy a developer a beer!
