                               Psi4 1.8.2 release

  ==> Input File <==

--------------------------------------------------------------------------
MEMORY 60 GB

molecule dimer {
1 1
Na         0.000000     0.000000     0.000000
Gh(Cl)     0.000000     2.370103     0.000000
Gh(Cl)     3.555154     0.000000     0.000000

units ang
no_reorient
no_com
symmetry c1
}

set {
basis        aug-cc-pVTZ
scf_type     df
}

energy("mp2")
--------------------------------------------------------------------------

    Molecular point group: c1

    Geometry (in Angstrom), charge = 1, multiplicity = 1:

       Center              X                  Y                   Z               Mass
    ------------   -----------------  -----------------  -----------------  -----------------
         NA           0.000000000000     0.000000000000     0.000000000000    22.989769282000
      Gh(CL)          0.000000000000     2.370103000000     0.000000000000    34.968852682000
      Gh(CL)          3.555154000000     0.000000000000     0.000000000000    34.968852682000

  Charge       = 1
  Multiplicity = 1
  Basis Set: AUG-CC-PVTZ
    Blend: AUG-CC-PVTZ
  Basis Set: (AUG-CC-PVTZ AUX)
    Blend: AUG-CC-PVTZ-JKFIT + DEF2-UNIVERSAL-JKFIT

    Orbital Energies [Eh]
    ---------------------

    Doubly Occupied:

       1A    -40.762616     2A     -3.074831     3A     -1.798115
       4A     -1.798054     5A     -1.797959

  @DF-RHF Final Energy:  -161.67604391916876

   => Energetics <=

    Nuclear Repulsion Energy =              0.0000000000000000
    One-Electron Energy =                -224.8889391479529536
    Two-Electron Energy =                  63.2128952287841770
    Total Energy =                       -161.6760439191687624
 Dipole X            :          0.0003119            0.0000000            0.0003119
 Dipole Y            :          0.0005133            0.0000000            0.0005133
 Dipole Z            :          0.0000000            0.0000000            0.0000000
 Magnitude           :                                                    0.0006006
  Basis Set: (AUG-CC-PVTZ AUX)
    Blend: AUG-CC-PVTZ-RI + DEF2-QZVPP-RI
	 Reference Energy          =    -161.6760439191687624 [Eh]
	 Singles Energy            =      -0.0000000000000000 [Eh]
	 Same-Spin Energy          =      -0.0027802419898174 [Eh]
	 Opposite-Spin Energy      =      -0.0101321945736285 [Eh]
	 Correlation Energy        =      -0.0129124365634459 [Eh]
	 Total Energy              =    -161.6889563557322163 [Eh]

	 ================> DF-SCS-MP2 Energies <==================
	-----------------------------------------------------------
	 SCS Same-Spin Scale       =       0.3333333333333333 [-]
	 SCS Opposite-Spin Scale   =       1.2000000000000000 [-]
	 SCS Same-Spin Energy      =      -0.0009267473299391 [Eh]
	 SCS Opposite-Spin Energy  =      -0.0121586334883542 [Eh]
	 SCS Correlation Energy    =      -0.0130853808182933 [Eh]
	 SCS Total Energy          =    -161.6891292999870586 [Eh]
	-----------------------------------------------------------

*** Psi4 exiting successfully. Buy a developer a beer!
