                               Psi4 1.9 release

  ==> Input File <==

--------------------------------------------------------------------------
MEMORY 60 GB

molecule dimer {
0 1
Na     0.000000     0.000000     0.000000
Cl     0.000000     2.370103     0.000000
--
-1 1
Cl     3.081134     0.000000     0.000000

units ang
no_reorient
no_com
symmetry c1
}

set {
basis        aug-cc-pVTZ
scf_type     df
}

energy("mp2", bsse_type="cp")
--------------------------------------------------------------------------

                               Psi4 1.9 release
    Molecular point group: c1
  Charge       = -1
  Multiplicity = 1
  Basis Set: AUG-CC-PVTZ
    Blend: AUG-CC-PVTZ
  Basis Set: (AUG-CC-PVTZ AUX)
    Blend: AUG-CC-PVTZ-JKFIT + DEF2-UNIVERSAL-JKFIT
  @DF-RHF Final Energy:  -459.57350108995627
    Total Energy =                       -459.5735010899562667
 Dipole X            :       -104.8052427           98.9824901           -5.8227526
 Dipole Y            :          0.0000238            0.0000000            0.0000238
 Dipole Z            :         -0.0000000            0.0000000           -0.0000000
 Magnitude           :                                                    5.8227526
  Basis Set: (AUG-CC-PVTZ AUX)
    Blend: AUG-CC-PVTZ-RI + DEF2-QZVPP-RI
	 Reference Energy          =    -459.5735010899562667 [Eh]
	 Singles Energy            =      -0.0000000000000000 [Eh]
	 Same-Spin Energy          =      -0.0625263133624720 [Eh]
	 Opposite-Spin Energy      =      -0.1795239355736157 [Eh]
	 Correlation Energy        =      -0.2420502489360876 [Eh]
	 Total Energy              =    -459.8155513388923623 [Eh]
	 SCS Total Energy          =    -459.8097719170987716 [Eh]
                               Psi4 1.9 release
    Molecular point group: c1
  Multiplicity = 1
  Basis Set: AUG-CC-PVTZ
    Blend: AUG-CC-PVTZ
  Basis Set: (AUG-CC-PVTZ AUX)
    Blend: AUG-CC-PVTZ-JKFIT + DEF2-UNIVERSAL-JKFIT
  @DF-RHF Final Energy:  -621.45484575541991
    Total Energy =                       -621.4548457554199103
  Basis Set: (AUG-CC-PVTZ AUX)
	 Singles Energy            =      -0.0000000000000000 [Eh]
	 Same-Spin Energy          =      -0.0658174241550996 [Eh]
	 Opposite-Spin Energy      =      -0.1905181156715247 [Eh]
	 Correlation Energy        =      -0.2563355398266243 [Eh]
	 Total Energy              =    -621.7111812952465471 [Eh]
	 SCS Total Energy          =    -621.7054066356107569 [Eh]
                               Psi4 1.9 release
    Molecular point group: c1

    Geometry (in Bohr), charge = -1, multiplicity = 1:

       Center              X                  Y                   Z               Mass
    ------------   -----------------  -----------------  -----------------  -----------------
         NA           0.000000000000     0.000000000000     0.000000000000    22.989769282000
         CL           0.000000000000     4.478845559126     0.000000000000    34.968852682000
         CL           5.822499415836     0.000000000000     0.000000000000    34.968852682000

  Charge       = -1
  Multiplicity = 1
  Basis Set: AUG-CC-PVTZ
    Blend: AUG-CC-PVTZ
  Basis Set: (AUG-CC-PVTZ AUX)
    Blend: AUG-CC-PVTZ-JKFIT + DEF2-UNIVERSAL-JKFIT

    Orbital Energies [Eh]
    ---------------------

    Doubly Occupied:

       1A   -104.564967     2A   -104.539406     3A    -40.329923
       4A    -10.290393     5A    -10.263102     6A     -7.756602
       7A     -7.756360     8A     -7.756296     9A     -7.729229
      10A     -7.729123    11A     -7.729062    12A     -2.652289
      13A     -1.375760    14A     -1.375747    15A     -1.373998
      16A     -0.804159    17A     -0.768116    18A     -0.233707
      19A     -0.218001    20A     -0.217069    21A     -0.188003
      22A     -0.183312    23A     -0.178874

  @DF-RHF Final Energy: -1081.05962110538917

   => Energetics <=

    Nuclear Repulsion Energy =            113.2105469537890485
    One-Electron Energy =               -1736.5133334000945524
    Two-Electron Energy =                 542.2431653409164483
    Total Energy =                      -1081.0596211053891693
 Dipole X            :       -104.1203133           98.9824901           -5.1378232
 Dipole Y            :        -79.8398802           76.1403745           -3.6995057
 Dipole Z            :         -0.0000000            0.0000000           -0.0000000
 Magnitude           :                                                    6.3311586
  Basis Set: (AUG-CC-PVTZ AUX)
    Blend: AUG-CC-PVTZ-RI + DEF2-QZVPP-RI
	 Reference Energy          =   -1081.0596211053891693 [Eh]
	 Singles Energy            =      -0.0000000000000000 [Eh]
	 Same-Spin Energy          =      -0.1294332507211994 [Eh]
	 Opposite-Spin Energy      =      -0.3711193019283092 [Eh]
	 Correlation Energy        =      -0.5005525526495087 [Eh]
	 Total Energy              =   -1081.5601736580385932 [Eh]

	 ================> DF-SCS-MP2 Energies <==================
	-----------------------------------------------------------
	 SCS Same-Spin Scale       =       0.3333333333333333 [-]
	 SCS Opposite-Spin Scale   =       1.2000000000000000 [-]
	 SCS Same-Spin Energy      =      -0.0431444169070665 [Eh]
	 SCS Opposite-Spin Energy  =      -0.4453431623139710 [Eh]
	 SCS Correlation Energy    =      -0.4884875792210375 [Eh]
	 SCS Total Energy          =   -1081.5481086846102698 [Eh]
	-----------------------------------------------------------

*** Psi4 exiting successfully. Buy a developer a beer!
