                               Psi4 1.8.2 release

  ==> Input File <==

--------------------------------------------------------------------------
MEMORY 60 GB

molecule dimer {
1 1
Na     0.000000     0.000000     0.000000
--
-1 1
Cl     0.000000     2.370103     0.000000
--
-1 1
Cl     3.081134     0.000000     0.000000

units ang
no_reorient
no_com
symmetry c1
}

set {
basis        aug-cc-pVTZ
scf_type     df
}

energy("mp2", bsse_type="cp")
--------------------------------------------------------------------------

                               Psi4 1.8.2 release
    Molecular point group: c1
  Charge       = 1
  Multiplicity = 1
  Basis Set: AUG-CC-PVTZ
    Blend: AUG-CC-PVTZ
  Basis Set: (AUG-CC-PVTZ AUX)
    Blend: AUG-CC-PVTZ-JKFIT + DEF2-UNIVERSAL-JKFIT
  @DF-RHF Final Energy:  -161.67604614639214
    Total Energy =                       -161.6760461463921104
 Dipole X            :          0.0004978            0.0000000            0.0004978
 Dipole Y            :          0.0004788            0.0000000            0.0004788
 Dipole Z            :         -0.0000000            0.0000000           -0.0000000
 Magnitude           :                                                    0.0006907
  Basis Set: (AUG-CC-PVTZ AUX)
    Blend: AUG-CC-PVTZ-RI + DEF2-QZVPP-RI
	 Reference Energy          =    -161.6760461463921388 [Eh]
	 Singles Energy            =      -0.0000000000000000 [Eh]
	 Same-Spin Energy          =      -0.0030034277100769 [Eh]
	 Opposite-Spin Energy      =      -0.0107314926199316 [Eh]
	 Correlation Energy        =      -0.0137349203300085 [Eh]
	 Total Energy              =    -161.6897810667221336 [Eh]
	 SCS Total Energy          =    -161.6899250801060930 [Eh]
                               Psi4 1.8.2 release
    Molecular point group: c1
  Basis Set: AUG-CC-PVTZ
    Blend: AUG-CC-PVTZ
  Basis Set: (AUG-CC-PVTZ AUX)
    Blend: AUG-CC-PVTZ-JKFIT + DEF2-UNIVERSAL-JKFIT
  @DF-RHF Final Energy:  -459.57351142519150
    Total Energy =                       -459.5735114251914410
  Basis Set: (AUG-CC-PVTZ AUX)
                               Psi4 1.8.2 release
  @DF-RHF Final Energy:  -919.01926788053356
    Total Energy =                       -919.0192678805335618
                               Psi4 1.8.2 release
  @DF-RHF Final Energy:  -621.42913138762231
    Total Energy =                       -621.4291313876221921
                               Psi4 1.8.2 release
  @DF-RHF Final Energy:  -621.45484575540945
    Total Energy =                       -621.4548457554094512
                               Psi4 1.8.2 release
  Multiplicity = 1
  @DF-RHF Final Energy:  -459.57350108996388
    Total Energy =                       -459.5735010899638837
	 Singles Energy            =      -0.0000000000000000 [Eh]
	 Same-Spin Energy          =      -0.0625263133624708 [Eh]
	 Opposite-Spin Energy      =      -0.1795239355736119 [Eh]
	 Correlation Energy        =      -0.2420502489360827 [Eh]
	 Total Energy              =    -459.8155513388999793 [Eh]
	 SCS Total Energy          =    -459.8097719171063886 [Eh]
                               Psi4 1.8.2 release
    Molecular point group: c1

    Geometry (in Bohr), charge = -1, multiplicity = 1:

       Center              X                  Y                   Z               Mass
    ------------   -----------------  -----------------  -----------------  -----------------
         NA           0.000000000000     0.000000000000     0.000000000000    22.989769282000
         CL           0.000000000000     4.478845559126     0.000000000000    34.968852682000
         CL           5.822499415836     0.000000000000     0.000000000000    34.968852682000

  Charge       = -1
  Multiplicity = 1
  Basis Set: AUG-CC-PVTZ
    Blend: AUG-CC-PVTZ
  Basis Set: (AUG-CC-PVTZ AUX)
    Blend: AUG-CC-PVTZ-JKFIT + DEF2-UNIVERSAL-JKFIT

    Orbital Energies [Eh]
    ---------------------

    Doubly Occupied:

       1A   -104.564967     2A   -104.539406     3A    -40.329923
       4A    -10.290393     5A    -10.263102     6A     -7.756602
       7A     -7.756360     8A     -7.756296     9A     -7.729229
      10A     -7.729123    11A     -7.729062    12A     -2.652289
      13A     -1.375760    14A     -1.375747    15A     -1.373998
      16A     -0.804159    17A     -0.768116    18A     -0.233707
      19A     -0.218001    20A     -0.217069    21A     -0.188003
      22A     -0.183312    23A     -0.178874

  @DF-RHF Final Energy: -1081.05962110537575

   => Energetics <=

    Nuclear Repulsion Energy =            113.2105469537890485
    One-Electron Energy =               -1736.5133334001113781
    Two-Electron Energy =                 542.2431653409465753
    Total Energy =                      -1081.0596211053757543
 Dipole X            :       -104.1203133           98.9824901           -5.1378232
 Dipole Y            :        -79.8398802           76.1403745           -3.6995057
 Dipole Z            :         -0.0000000            0.0000000           -0.0000000
 Magnitude           :                                                    6.3311586
  Basis Set: (AUG-CC-PVTZ AUX)
    Blend: AUG-CC-PVTZ-RI + DEF2-QZVPP-RI
	 Reference Energy          =   -1081.0596211053757543 [Eh]
	 Singles Energy            =      -0.0000000000000000 [Eh]
	 Same-Spin Energy          =      -0.1294332507211495 [Eh]
	 Opposite-Spin Energy      =      -0.3711193019281631 [Eh]
	 Correlation Energy        =      -0.5005525526493126 [Eh]
	 Total Energy              =   -1081.5601736580251782 [Eh]

	 ================> DF-SCS-MP2 Energies <==================
	-----------------------------------------------------------
	 SCS Same-Spin Scale       =       0.3333333333333333 [-]
	 SCS Opposite-Spin Scale   =       1.2000000000000000 [-]
	 SCS Same-Spin Energy      =      -0.0431444169070498 [Eh]
	 SCS Opposite-Spin Energy  =      -0.4453431623137957 [Eh]
	 SCS Correlation Energy    =      -0.4884875792208456 [Eh]
	 SCS Total Energy          =   -1081.5481086845966274 [Eh]
	-----------------------------------------------------------

*** Psi4 exiting successfully. Buy a developer a beer!
