                               Psi4 1.9 release

  ==> Input File <==

--------------------------------------------------------------------------
MEMORY 60 GB

molecule dimer {
0 1
Na     0.000000     0.000000     0.000000
Cl     0.000000     2.370103     0.000000
--
-1 1
Cl     3.318144     0.000000     0.000000

units ang
no_reorient
no_com
symmetry c1
}

set {
basis        aug-cc-pVTZ
scf_type     df
}

energy("mp2", bsse_type="cp")
--------------------------------------------------------------------------

                               Psi4 1.9 release
    Molecular point group: c1
  Charge       = -1
  Multiplicity = 1
  Basis Set: AUG-CC-PVTZ
    Blend: AUG-CC-PVTZ
  Basis Set: (AUG-CC-PVTZ AUX)
    Blend: AUG-CC-PVTZ-JKFIT + DEF2-UNIVERSAL-JKFIT
  @DF-RHF Final Energy:  -459.57349812070476
    Total Energy =                       -459.5734981207046985
 Dipole X            :       -112.8670966          106.5965179           -6.2705787
 Dipole Y            :          0.0000096            0.0000000            0.0000096
 Dipole Z            :         -0.0000000            0.0000000           -0.0000000
 Magnitude           :                                                    6.2705787
  Basis Set: (AUG-CC-PVTZ AUX)
    Blend: AUG-CC-PVTZ-RI + DEF2-QZVPP-RI
	 Reference Energy          =    -459.5734981207047554 [Eh]
	 Singles Energy            =      -0.0000000000000000 [Eh]
	 Same-Spin Energy          =      -0.0624799566415784 [Eh]
	 Opposite-Spin Energy      =      -0.1793538336467121 [Eh]
	 Correlation Energy        =      -0.2418337902882905 [Eh]
	 Total Energy              =    -459.8153319109930521 [Eh]
	 SCS Total Energy          =    -459.8095493732946579 [Eh]
                               Psi4 1.9 release
    Molecular point group: c1
  Multiplicity = 1
  Basis Set: AUG-CC-PVTZ
    Blend: AUG-CC-PVTZ
  Basis Set: (AUG-CC-PVTZ AUX)
    Blend: AUG-CC-PVTZ-JKFIT + DEF2-UNIVERSAL-JKFIT
  @DF-RHF Final Energy:  -621.45483115728939
    Total Energy =                       -621.4548311572893908
  Basis Set: (AUG-CC-PVTZ AUX)
	 Singles Energy            =      -0.0000000000000000 [Eh]
	 Same-Spin Energy          =      -0.0656951802648189 [Eh]
	 Opposite-Spin Energy      =      -0.1901867578581691 [Eh]
	 Correlation Energy        =      -0.2558819381229880 [Eh]
	 Total Energy              =    -621.7107130954124159 [Eh]
	 SCS Total Energy          =    -621.7049536601407453 [Eh]
                               Psi4 1.9 release
    Molecular point group: c1

    Geometry (in Bohr), charge = -1, multiplicity = 1:

       Center              X                  Y                   Z               Mass
    ------------   -----------------  -----------------  -----------------  -----------------
         NA           0.000000000000     0.000000000000     0.000000000000    22.989769282000
         CL           0.000000000000     4.478845559126     0.000000000000    34.968852682000
         CL           6.270383404831     0.000000000000     0.000000000000    34.968852682000

  Charge       = -1
  Multiplicity = 1
  Basis Set: AUG-CC-PVTZ
    Blend: AUG-CC-PVTZ
  Basis Set: (AUG-CC-PVTZ AUX)
    Blend: AUG-CC-PVTZ-JKFIT + DEF2-UNIVERSAL-JKFIT

    Orbital Energies [Eh]
    ---------------------

    Doubly Occupied:

       1A   -104.571258     2A   -104.535565     3A    -40.342722
       4A    -10.296637     5A    -10.259175     6A     -7.762852
       7A     -7.762602     8A     -7.762540     9A     -7.725290
      10A     -7.725188    11A     -7.725135    12A     -2.664616
      13A     -1.388014    14A     -1.387963    15A     -1.386451
      16A     -0.810200    17A     -0.763305    18A     -0.238967
      19A     -0.222866    20A     -0.222349    21A     -0.182576
      22A     -0.179029    23A     -0.176486

  @DF-RHF Final Energy: -1081.05536442349876

   => Energetics <=

    Nuclear Repulsion Energy =            109.0792872542856173
    One-Electron Energy =               -1728.0857264241003577
    Two-Electron Energy =                 537.9510747463159532
    Total Energy =                      -1081.0553644234987587
 Dipole X            :       -112.2342672          106.5965179           -5.6377493
 Dipole Y            :        -79.8331436           76.1403745           -3.6927691
 Dipole Z            :          0.0000000            0.0000000            0.0000000
 Magnitude           :                                                    6.7394926
  Basis Set: (AUG-CC-PVTZ AUX)
    Blend: AUG-CC-PVTZ-RI + DEF2-QZVPP-RI
	 Reference Energy          =   -1081.0553644234987587 [Eh]
	 Singles Energy            =      -0.0000000000000000 [Eh]
	 Same-Spin Energy          =      -0.1290423200328035 [Eh]
	 Opposite-Spin Energy      =      -0.3704550412230899 [Eh]
	 Correlation Energy        =      -0.4994973612558933 [Eh]
	 Total Energy              =   -1081.5548617847546211 [Eh]

	 ================> DF-SCS-MP2 Energies <==================
	-----------------------------------------------------------
	 SCS Same-Spin Scale       =       0.3333333333333333 [-]
	 SCS Opposite-Spin Scale   =       1.2000000000000000 [-]
	 SCS Same-Spin Energy      =      -0.0430141066776012 [Eh]
	 SCS Opposite-Spin Energy  =      -0.4445460494677078 [Eh]
	 SCS Correlation Energy    =      -0.4875601561453090 [Eh]
	 SCS Total Energy          =   -1081.5429245796440227 [Eh]
	-----------------------------------------------------------

*** Psi4 exiting successfully. Buy a developer a beer!
