                               Psi4 1.9 release

  ==> Input File <==

--------------------------------------------------------------------------
MEMORY 60 GB

molecule dimer {
0 1
Na     0.000000     0.000000     0.000000
Cl     0.000000     2.370103     0.000000
--
-1 1
Cl     2.607113     0.000000     0.000000

units ang
no_reorient
no_com
symmetry c1
}

set {
basis        aug-cc-pVTZ
scf_type     df
}

energy("mp2", bsse_type="cp")
--------------------------------------------------------------------------

                               Psi4 1.9 release
    Molecular point group: c1
  Charge       = -1
  Multiplicity = 1
  Basis Set: AUG-CC-PVTZ
    Blend: AUG-CC-PVTZ
  Basis Set: (AUG-CC-PVTZ AUX)
    Blend: AUG-CC-PVTZ-JKFIT + DEF2-UNIVERSAL-JKFIT
  @DF-RHF Final Energy:  -459.57350908705661
    Total Energy =                       -459.5735090870566069
 Dipole X            :        -88.6815711           83.7544023           -4.9271688
 Dipole Y            :          0.0000178            0.0000000            0.0000178
 Dipole Z            :         -0.0000000            0.0000000           -0.0000000
 Magnitude           :                                                    4.9271688
  Basis Set: (AUG-CC-PVTZ AUX)
    Blend: AUG-CC-PVTZ-RI + DEF2-QZVPP-RI
	 Reference Energy          =    -459.5735090870566069 [Eh]
	 Singles Energy            =      -0.0000000000000000 [Eh]
	 Same-Spin Energy          =      -0.0626682306437862 [Eh]
	 Opposite-Spin Energy      =      -0.1800513495190689 [Eh]
	 Correlation Energy        =      -0.2427195801628551 [Eh]
	 Total Energy              =    -459.8162286672194341 [Eh]
	 SCS Total Energy          =    -459.8104601166940597 [Eh]
                               Psi4 1.9 release
    Molecular point group: c1
  Multiplicity = 1
  Basis Set: AUG-CC-PVTZ
    Blend: AUG-CC-PVTZ
  Basis Set: (AUG-CC-PVTZ AUX)
    Blend: AUG-CC-PVTZ-JKFIT + DEF2-UNIVERSAL-JKFIT
  @DF-RHF Final Energy:  -621.45489051081449
    Total Energy =                       -621.4548905108144936
  Basis Set: (AUG-CC-PVTZ AUX)
	 Singles Energy            =      -0.0000000000000000 [Eh]
	 Same-Spin Energy          =      -0.0659315064370454 [Eh]
	 Opposite-Spin Energy      =      -0.1908281986912319 [Eh]
	 Correlation Energy        =      -0.2567597051282772 [Eh]
	 Total Energy              =    -621.7116502159427682 [Eh]
	 SCS Total Energy          =    -621.7058615180562811 [Eh]
                               Psi4 1.9 release
    Molecular point group: c1

    Geometry (in Bohr), charge = -1, multiplicity = 1:

       Center              X                  Y                   Z               Mass
    ------------   -----------------  -----------------  -----------------  -----------------
         NA           0.000000000000     0.000000000000     0.000000000000    22.989769282000
         CL           0.000000000000     4.478845559126     0.000000000000    34.968852682000
         CL           4.926729548121     0.000000000000     0.000000000000    34.968852682000

  Charge       = -1
  Multiplicity = 1
  Basis Set: AUG-CC-PVTZ
    Blend: AUG-CC-PVTZ
  Basis Set: (AUG-CC-PVTZ AUX)
    Blend: AUG-CC-PVTZ-JKFIT + DEF2-UNIVERSAL-JKFIT

    Orbital Energies [Eh]
    ---------------------

    Doubly Occupied:

       1A   -104.551954     2A   -104.545250     3A    -40.298806
       4A    -10.277547     5A    -10.269765     6A     -7.743731
       7A     -7.743508     8A     -7.743450     9A     -7.735914
      10A     -7.735785    11A     -7.735720    12A     -2.623700
      13A     -1.347257    14A     -1.347068    15A     -1.345659
      16A     -0.792713    17A     -0.778775    18A     -0.228945
      19A     -0.211541    20A     -0.206776    21A     -0.199939
      22A     -0.191661    23A     -0.177542

  @DF-RHF Final Energy: -1081.06483905769392

   => Energetics <=

    Nuclear Repulsion Energy =            123.1126329308286245
    One-Electron Energy =               -1756.6889302971419511
    Two-Electron Energy =                 552.5114583086195807
    Total Energy =                      -1081.0648390576939164
 Dipole X            :        -87.9293190           83.7544023           -4.1749167
 Dipole Y            :        -79.8591718           76.1403745           -3.7187973
 Dipole Z            :         -0.0000000            0.0000000           -0.0000000
 Magnitude           :                                                    5.5910091
  Basis Set: (AUG-CC-PVTZ AUX)
    Blend: AUG-CC-PVTZ-RI + DEF2-QZVPP-RI
	 Reference Energy          =   -1081.0648390576939164 [Eh]
	 Singles Energy            =      -0.0000000000000000 [Eh]
	 Same-Spin Energy          =      -0.1302933183040414 [Eh]
	 Opposite-Spin Energy      =      -0.3722342683355367 [Eh]
	 Correlation Energy        =      -0.5025275866395782 [Eh]
	 Total Energy              =   -1081.5673666443335605 [Eh]

	 ================> DF-SCS-MP2 Energies <==================
	-----------------------------------------------------------
	 SCS Same-Spin Scale       =       0.3333333333333333 [-]
	 SCS Opposite-Spin Scale   =       1.2000000000000000 [-]
	 SCS Same-Spin Energy      =      -0.0434311061013471 [Eh]
	 SCS Opposite-Spin Energy  =      -0.4466811220026441 [Eh]
	 SCS Correlation Energy    =      -0.4901122281039912 [Eh]
	 SCS Total Energy          =   -1081.5549512857978698 [Eh]
	-----------------------------------------------------------

*** Psi4 exiting successfully. Buy a developer a beer!
