                               Psi4 1.8.2 release

  ==> Input File <==

--------------------------------------------------------------------------
MEMORY 60 GB

molecule dimer {
1 1
Na     0.000000     0.000000     0.000000
--
-1 1
Cl     0.000000     2.370103     0.000000
--
-1 1
Cl     2.844124     0.000000     0.000000

units ang
no_reorient
no_com
symmetry c1
}

set {
basis        aug-cc-pVTZ
scf_type     df
}

energy("mp2", bsse_type="cp")
--------------------------------------------------------------------------

                               Psi4 1.8.2 release
    Molecular point group: c1
  Charge       = 1
  Multiplicity = 1
  Basis Set: AUG-CC-PVTZ
    Blend: AUG-CC-PVTZ
  Basis Set: (AUG-CC-PVTZ AUX)
    Blend: AUG-CC-PVTZ-JKFIT + DEF2-UNIVERSAL-JKFIT
  @DF-RHF Final Energy:  -161.67604743526900
    Total Energy =                       -161.6760474352689982
 Dipole X            :          0.0004745            0.0000000            0.0004745
 Dipole Y            :          0.0004603            0.0000000            0.0004603
 Dipole Z            :         -0.0000000            0.0000000           -0.0000000
 Magnitude           :                                                    0.0006611
  Basis Set: (AUG-CC-PVTZ AUX)
    Blend: AUG-CC-PVTZ-RI + DEF2-QZVPP-RI
	 Reference Energy          =    -161.6760474352689982 [Eh]
	 Singles Energy            =      -0.0000000000000000 [Eh]
	 Same-Spin Energy          =      -0.0030603909831118 [Eh]
	 Opposite-Spin Energy      =      -0.0108960230792444 [Eh]
	 Correlation Energy        =      -0.0139564140623562 [Eh]
	 Total Energy              =    -161.6900038493313616 [Eh]
	 SCS Total Energy          =    -161.6901427932917841 [Eh]
                               Psi4 1.8.2 release
    Molecular point group: c1
  Basis Set: AUG-CC-PVTZ
    Blend: AUG-CC-PVTZ
  Basis Set: (AUG-CC-PVTZ AUX)
    Blend: AUG-CC-PVTZ-JKFIT + DEF2-UNIVERSAL-JKFIT
  @DF-RHF Final Energy:  -459.57351270243890
    Total Energy =                       -459.5735127024388476
  Basis Set: (AUG-CC-PVTZ AUX)
                               Psi4 1.8.2 release
  @DF-RHF Final Energy:  -919.01351211296378
    Total Energy =                       -919.0135121129637810
                               Psi4 1.8.2 release
  @DF-RHF Final Energy:  -621.44101271664215
    Total Energy =                       -621.4410127166421489
                               Psi4 1.8.2 release
  @DF-RHF Final Energy:  -621.45486723796057
    Total Energy =                       -621.4548672379605705
                               Psi4 1.8.2 release
  Multiplicity = 1
  @DF-RHF Final Energy:  -459.57350447908050
    Total Energy =                       -459.5735044790804977
	 Singles Energy            =      -0.0000000000000000 [Eh]
	 Same-Spin Energy          =      -0.0625891017448956 [Eh]
	 Opposite-Spin Energy      =      -0.1797551426941530 [Eh]
	 Correlation Energy        =      -0.2423442444390486 [Eh]
	 Total Energy              =    -459.8158487235195366 [Eh]
	 SCS Total Energy          =    -459.8100736842284277 [Eh]
                               Psi4 1.8.2 release
    Molecular point group: c1

    Geometry (in Bohr), charge = -1, multiplicity = 1:

       Center              X                  Y                   Z               Mass
    ------------   -----------------  -----------------  -----------------  -----------------
         NA           0.000000000000     0.000000000000     0.000000000000    22.989769282000
         CL           0.000000000000     4.478845559126     0.000000000000    34.968852682000
         CL           5.374615426842     0.000000000000     0.000000000000    34.968852682000

  Charge       = -1
  Multiplicity = 1
  Basis Set: AUG-CC-PVTZ
    Blend: AUG-CC-PVTZ
  Basis Set: (AUG-CC-PVTZ AUX)
    Blend: AUG-CC-PVTZ-JKFIT + DEF2-UNIVERSAL-JKFIT

    Orbital Energies [Eh]
    ---------------------

    Doubly Occupied:

       1A   -104.558485     2A   -104.542868     3A    -40.315339
       4A    -10.283981     5A    -10.266806     6A     -7.750180
       7A     -7.749947     8A     -7.749884     9A     -7.732943
      10A     -7.732834    11A     -7.732767    12A     -2.638566
      13A     -1.362131    14A     -1.362040    15A     -1.360238
      16A     -0.798135    17A     -0.773415    18A     -0.229718
      19A     -0.214625    20A     -0.211430    21A     -0.193890
      22A     -0.187756    23A     -0.179582

  @DF-RHF Final Energy: -1081.06338422056979

   => Energetics <=

    Nuclear Repulsion Energy =            117.8532683467936408
    One-Electron Energy =               -1745.9781798244232505
    Two-Electron Energy =                 547.0615272570599927
    Total Energy =                      -1081.0633842205697874
 Dipole X            :        -96.0161178           91.3684623           -4.6476555
 Dipole Y            :        -79.8487837           76.1403745           -3.7084091
 Dipole Z            :         -0.0000000            0.0000000           -0.0000000
 Magnitude           :                                                    5.9458389
  Basis Set: (AUG-CC-PVTZ AUX)
    Blend: AUG-CC-PVTZ-RI + DEF2-QZVPP-RI
	 Reference Energy          =   -1081.0633842205697874 [Eh]
	 Singles Energy            =      -0.0000000000000000 [Eh]
	 Same-Spin Energy          =      -0.1298395346986706 [Eh]
	 Opposite-Spin Energy      =      -0.3717045204761091 [Eh]
	 Correlation Energy        =      -0.5015440551747796 [Eh]
	 Total Energy              =   -1081.5649282757444780 [Eh]

	 ================> DF-SCS-MP2 Energies <==================
	-----------------------------------------------------------
	 SCS Same-Spin Scale       =       0.3333333333333333 [-]
	 SCS Opposite-Spin Scale   =       1.2000000000000000 [-]
	 SCS Same-Spin Energy      =      -0.0432798448995569 [Eh]
	 SCS Opposite-Spin Energy  =      -0.4460454245713309 [Eh]
	 SCS Correlation Energy    =      -0.4893252694708877 [Eh]
	 SCS Total Energy          =   -1081.5527094900405700 [Eh]
	-----------------------------------------------------------

*** Psi4 exiting successfully. Buy a developer a beer!
