                               Psi4 1.9 release

  ==> Input File <==

--------------------------------------------------------------------------
MEMORY 60 GB

molecule dimer {
0 1
Na     0.000000     0.000000     0.000000
Cl     0.000000     2.370103     0.000000
--
-1 1
Cl     4.740206     0.000000     0.000000

units ang
no_reorient
no_com
symmetry c1
}

set {
basis        aug-cc-pVTZ
scf_type     df
}

energy("mp2", bsse_type="cp")
--------------------------------------------------------------------------

                               Psi4 1.9 release
    Molecular point group: c1
  Charge       = -1
  Multiplicity = 1
  Basis Set: AUG-CC-PVTZ
    Blend: AUG-CC-PVTZ
  Basis Set: (AUG-CC-PVTZ AUX)
    Blend: AUG-CC-PVTZ-JKFIT + DEF2-UNIVERSAL-JKFIT
  @DF-RHF Final Energy:  -459.57348706850019
    Total Energy =                       -459.5734870685001852
 Dipole X            :       -161.2385174          152.2807490           -8.9577684
 Dipole Y            :         -0.0000688            0.0000000           -0.0000688
 Dipole Z            :          0.0000000            0.0000000            0.0000000
 Magnitude           :                                                    8.9577684
  Basis Set: (AUG-CC-PVTZ AUX)
    Blend: AUG-CC-PVTZ-RI + DEF2-QZVPP-RI
	 Reference Energy          =    -459.5734870685001852 [Eh]
	 Singles Energy            =      -0.0000000000000000 [Eh]
	 Same-Spin Energy          =      -0.0623470823380097 [Eh]
	 Opposite-Spin Energy      =      -0.1789016386730002 [Eh]
	 Correlation Energy        =      -0.2412487210110099 [Eh]
	 Total Energy              =    -459.8147357895111895 [Eh]
	 SCS Total Energy          =    -459.8089513956871315 [Eh]
                               Psi4 1.9 release
    Molecular point group: c1
  Multiplicity = 1
  Basis Set: AUG-CC-PVTZ
    Blend: AUG-CC-PVTZ
  Basis Set: (AUG-CC-PVTZ AUX)
    Blend: AUG-CC-PVTZ-JKFIT + DEF2-UNIVERSAL-JKFIT
  @DF-RHF Final Energy:  -621.45481571879418
    Total Energy =                       -621.4548157187941797
  Basis Set: (AUG-CC-PVTZ AUX)
	 Singles Energy            =      -0.0000000000000000 [Eh]
	 Same-Spin Energy          =      -0.0653582685760828 [Eh]
	 Opposite-Spin Energy      =      -0.1893298051314990 [Eh]
	 Correlation Energy        =      -0.2546880737075818 [Eh]
	 Total Energy              =    -621.7095037925017778 [Eh]
	 SCS Total Energy          =    -621.7037975744773348 [Eh]
                               Psi4 1.9 release
    Molecular point group: c1

    Geometry (in Bohr), charge = -1, multiplicity = 1:

       Center              X                  Y                   Z               Mass
    ------------   -----------------  -----------------  -----------------  -----------------
         NA           0.000000000000     0.000000000000     0.000000000000    22.989769282000
         CL           0.000000000000     4.478845559126     0.000000000000    34.968852682000
         CL           8.957691118252     0.000000000000     0.000000000000    34.968852682000

  Charge       = -1
  Multiplicity = 1
  Basis Set: AUG-CC-PVTZ
    Blend: AUG-CC-PVTZ
  Basis Set: (AUG-CC-PVTZ AUX)
    Blend: AUG-CC-PVTZ-JKFIT + DEF2-UNIVERSAL-JKFIT

    Orbital Energies [Eh]
    ---------------------

    Doubly Occupied:

       1A   -104.602185     2A   -104.518067     3A    -40.391599
       4A    -10.327462     5A    -10.241760     6A     -7.793683
       7A     -7.793403     8A     -7.793366     9A     -7.707825
      10A     -7.707781    11A     -7.707760    12A     -2.713083
      13A     -1.436169    14A     -1.435926    15A     -1.435558
      16A     -0.840697    17A     -0.745318    18A     -0.268799
      19A     -0.252634    20A     -0.251293    21A     -0.162687
      22A     -0.161969    23A     -0.161530

  @DF-RHF Final Energy: -1081.03865703275551

   => Energetics <=

    Nuclear Repulsion Energy =             91.4844514485664888
    One-Electron Energy =               -1692.1451088505418738
    Two-Electron Energy =                 519.6220003692199043
    Total Energy =                      -1081.0386570327555091
 Dipole X            :       -160.8995699          152.2807490           -8.6188209
 Dipole Y            :        -79.8252427           76.1403745           -3.6848682
 Dipole Z            :          0.0000000            0.0000000            0.0000000
 Magnitude           :                                                    9.3734906
  Basis Set: (AUG-CC-PVTZ AUX)
    Blend: AUG-CC-PVTZ-RI + DEF2-QZVPP-RI
	 Reference Energy          =   -1081.0386570327555091 [Eh]
	 Singles Energy            =      -0.0000000000000000 [Eh]
	 Same-Spin Energy          =      -0.1278897969222467 [Eh]
	 Opposite-Spin Energy      =      -0.3684165056316169 [Eh]
	 Correlation Energy        =      -0.4963063025538637 [Eh]
	 Total Energy              =   -1081.5349633353093850 [Eh]

	 ================> DF-SCS-MP2 Energies <==================
	-----------------------------------------------------------
	 SCS Same-Spin Scale       =       0.3333333333333333 [-]
	 SCS Opposite-Spin Scale   =       1.2000000000000000 [-]
	 SCS Same-Spin Energy      =      -0.0426299323074156 [Eh]
	 SCS Opposite-Spin Energy  =      -0.4420998067579403 [Eh]
	 SCS Correlation Energy    =      -0.4847297390653559 [Eh]
	 SCS Total Energy          =   -1081.5233867718209240 [Eh]
	-----------------------------------------------------------

*** Psi4 exiting successfully. Buy a developer a beer!
