                               Psi4 1.8.2 release

  ==> Input File <==

--------------------------------------------------------------------------
MEMORY 60 GB

molecule dimer {
-1 1
Gh(Na)     0.000000     0.000000     0.000000
Gh(Cl)     0.000000     2.370103     0.000000
Cl         3.318144     0.000000     0.000000

units ang
no_reorient
no_com
symmetry c1
}

set {
basis        aug-cc-pVTZ
scf_type     df
}

energy("mp2")
--------------------------------------------------------------------------

    Molecular point group: c1

    Geometry (in Angstrom), charge = -1, multiplicity = 1:

       Center              X                  Y                   Z               Mass
    ------------   -----------------  -----------------  -----------------  -----------------
      Gh(NA)          0.000000000000     0.000000000000     0.000000000000    22.989769282000
      Gh(CL)          0.000000000000     2.370103000000     0.000000000000    34.968852682000
         CL           3.318144000000     0.000000000000     0.000000000000    34.968852682000

  Charge       = -1
  Multiplicity = 1
  Basis Set: AUG-CC-PVTZ
    Blend: AUG-CC-PVTZ
  Basis Set: (AUG-CC-PVTZ AUX)
    Blend: AUG-CC-PVTZ-JKFIT + DEF2-UNIVERSAL-JKFIT

    Orbital Energies [Eh]
    ---------------------

    Doubly Occupied:

       1A   -104.506217     2A    -10.229805     3A     -7.695849
       4A     -7.695847     5A     -7.695833     6A     -0.733504
       7A     -0.150339     8A     -0.150328     9A     -0.150328

  @DF-RHF Final Energy:  -459.57349812074125

   => Energetics <=

    Nuclear Repulsion Energy =              0.0000000000000000
    One-Electron Energy =                -641.1308945688166432
    Two-Electron Energy =                 181.5573964480753943
    Total Energy =                       -459.5734981207412488
 Dipole X            :       -112.8670966          106.5965179           -6.2705787
 Dipole Y            :          0.0000096            0.0000000            0.0000096
 Dipole Z            :          0.0000000            0.0000000            0.0000000
 Magnitude           :                                                    6.2705787
  Basis Set: (AUG-CC-PVTZ AUX)
    Blend: AUG-CC-PVTZ-RI + DEF2-QZVPP-RI
	 Reference Energy          =    -459.5734981207412488 [Eh]
	 Singles Energy            =      -0.0000000000000000 [Eh]
	 Same-Spin Energy          =      -0.0624799566415712 [Eh]
	 Opposite-Spin Energy      =      -0.1793538336466938 [Eh]
	 Correlation Energy        =      -0.2418337902882650 [Eh]
	 Total Energy              =    -459.8153319110294888 [Eh]

	 ================> DF-SCS-MP2 Energies <==================
	-----------------------------------------------------------
	 SCS Same-Spin Scale       =       0.3333333333333333 [-]
	 SCS Opposite-Spin Scale   =       1.2000000000000000 [-]
	 SCS Same-Spin Energy      =      -0.0208266522138571 [Eh]
	 SCS Opposite-Spin Energy  =      -0.2152246003760325 [Eh]
	 SCS Correlation Energy    =      -0.2360512525898896 [Eh]
	 SCS Total Energy          =    -459.8095493733311514 [Eh]
	-----------------------------------------------------------

*** Psi4 exiting successfully. Buy a developer a beer!
