                               Psi4 1.8.2 release

  ==> Input File <==

--------------------------------------------------------------------------
MEMORY 60 GB

molecule dimer {
1 1
Na         0.000000     0.000000     0.000000
Gh(Cl)     0.000000     2.370103     0.000000
Gh(Cl)     3.081134     0.000000     0.000000

units ang
no_reorient
no_com
symmetry c1
}

set {
basis        aug-cc-pVTZ
scf_type     df
}

energy("mp2")
--------------------------------------------------------------------------

    Molecular point group: c1

    Geometry (in Angstrom), charge = 1, multiplicity = 1:

       Center              X                  Y                   Z               Mass
    ------------   -----------------  -----------------  -----------------  -----------------
         NA           0.000000000000     0.000000000000     0.000000000000    22.989769282000
      Gh(CL)          0.000000000000     2.370103000000     0.000000000000    34.968852682000
      Gh(CL)          3.081134000000     0.000000000000     0.000000000000    34.968852682000

  Charge       = 1
  Multiplicity = 1
  Basis Set: AUG-CC-PVTZ
    Blend: AUG-CC-PVTZ
  Basis Set: (AUG-CC-PVTZ AUX)
    Blend: AUG-CC-PVTZ-JKFIT + DEF2-UNIVERSAL-JKFIT

    Orbital Energies [Eh]
    ---------------------

    Doubly Occupied:

       1A    -40.762403     2A     -3.074732     3A     -1.798030
       4A     -1.797973     5A     -1.797861

  @DF-RHF Final Energy:  -161.67604614639203

   => Energetics <=

    Nuclear Repulsion Energy =              0.0000000000000000
    One-Electron Energy =                -224.8900934465486898
    Two-Electron Energy =                  63.2140473001566505
    Total Energy =                       -161.6760461463920251
 Dipole X            :          0.0004978            0.0000000            0.0004978
 Dipole Y            :          0.0004788            0.0000000            0.0004788
 Dipole Z            :          0.0000000            0.0000000            0.0000000
 Magnitude           :                                                    0.0006907
  Basis Set: (AUG-CC-PVTZ AUX)
    Blend: AUG-CC-PVTZ-RI + DEF2-QZVPP-RI
	 Reference Energy          =    -161.6760461463920251 [Eh]
	 Singles Energy            =      -0.0000000000000000 [Eh]
	 Same-Spin Energy          =      -0.0030034277100769 [Eh]
	 Opposite-Spin Energy      =      -0.0107314926199315 [Eh]
	 Correlation Energy        =      -0.0137349203300084 [Eh]
	 Total Energy              =    -161.6897810667220199 [Eh]

	 ================> DF-SCS-MP2 Energies <==================
	-----------------------------------------------------------
	 SCS Same-Spin Scale       =       0.3333333333333333 [-]
	 SCS Opposite-Spin Scale   =       1.2000000000000000 [-]
	 SCS Same-Spin Energy      =      -0.0010011425700256 [Eh]
	 SCS Opposite-Spin Energy  =      -0.0128777911439178 [Eh]
	 SCS Correlation Energy    =      -0.0138789337139434 [Eh]
	 SCS Total Energy          =    -161.6899250801059793 [Eh]
	-----------------------------------------------------------

*** Psi4 exiting successfully. Buy a developer a beer!
