                               Psi4 1.8.2 release

  ==> Input File <==

--------------------------------------------------------------------------
MEMORY 60 GB

molecule dimer {
-1 1
Gh(Na)     0.000000     0.000000     0.000000
Gh(Cl)     0.000000     2.370103     0.000000
Cl         2.607113     0.000000     0.000000

units ang
no_reorient
no_com
symmetry c1
}

set {
basis        aug-cc-pVTZ
scf_type     df
}

energy("mp2")
--------------------------------------------------------------------------

    Molecular point group: c1

    Geometry (in Angstrom), charge = -1, multiplicity = 1:

       Center              X                  Y                   Z               Mass
    ------------   -----------------  -----------------  -----------------  -----------------
      Gh(NA)          0.000000000000     0.000000000000     0.000000000000    22.989769282000
      Gh(CL)          0.000000000000     2.370103000000     0.000000000000    34.968852682000
         CL           2.607113000000     0.000000000000     0.000000000000    34.968852682000

  Charge       = -1
  Multiplicity = 1
  Basis Set: AUG-CC-PVTZ
    Blend: AUG-CC-PVTZ
  Basis Set: (AUG-CC-PVTZ AUX)
    Blend: AUG-CC-PVTZ-JKFIT + DEF2-UNIVERSAL-JKFIT

    Orbital Energies [Eh]
    ---------------------

    Doubly Occupied:

       1A   -104.506432     2A    -10.229856     3A     -7.695912
       4A     -7.695908     5A     -7.695886     6A     -0.733496
       7A     -0.150334     8A     -0.150324     9A     -0.150322

  @DF-RHF Final Energy:  -459.57350908703512

   => Energetics <=

    Nuclear Repulsion Energy =              0.0000000000000000
    One-Electron Energy =                -641.1300772710649198
    Two-Electron Energy =                 181.5565681840297998
    Total Energy =                       -459.5735090870351200
 Dipole X            :        -88.6815711           83.7544023           -4.9271688
 Dipole Y            :          0.0000178            0.0000000            0.0000178
 Dipole Z            :         -0.0000000            0.0000000           -0.0000000
 Magnitude           :                                                    4.9271688
  Basis Set: (AUG-CC-PVTZ AUX)
    Blend: AUG-CC-PVTZ-RI + DEF2-QZVPP-RI
	 Reference Energy          =    -459.5735090870351200 [Eh]
	 Singles Energy            =      -0.0000000000000000 [Eh]
	 Same-Spin Energy          =      -0.0626682306438011 [Eh]
	 Opposite-Spin Energy      =      -0.1800513495190934 [Eh]
	 Correlation Energy        =      -0.2427195801628945 [Eh]
	 Total Energy              =    -459.8162286671980041 [Eh]

	 ================> DF-SCS-MP2 Energies <==================
	-----------------------------------------------------------
	 SCS Same-Spin Scale       =       0.3333333333333333 [-]
	 SCS Opposite-Spin Scale   =       1.2000000000000000 [-]
	 SCS Same-Spin Energy      =      -0.0208894102146004 [Eh]
	 SCS Opposite-Spin Energy  =      -0.2160616194229121 [Eh]
	 SCS Correlation Energy    =      -0.2369510296375124 [Eh]
	 SCS Total Energy          =    -459.8104601166726297 [Eh]
	-----------------------------------------------------------

*** Psi4 exiting successfully. Buy a developer a beer!
