                               Psi4 1.8.2 release

  ==> Input File <==

--------------------------------------------------------------------------
MEMORY 60 GB

molecule dimer {
-1 1
Na         0.000000     0.000000     0.000000
Cl         0.000000     2.370103     0.000000
Cl         3.081134     0.000000     0.000000

units ang
no_reorient
no_com
symmetry c1
}

set {
basis        aug-cc-pVTZ
scf_type     df
}

energy("mp2")
--------------------------------------------------------------------------

    Molecular point group: c1

    Geometry (in Angstrom), charge = -1, multiplicity = 1:

       Center              X                  Y                   Z               Mass
    ------------   -----------------  -----------------  -----------------  -----------------
         NA           0.000000000000     0.000000000000     0.000000000000    22.989769282000
         CL           0.000000000000     2.370103000000     0.000000000000    34.968852682000
         CL           3.081134000000     0.000000000000     0.000000000000    34.968852682000

  Charge       = -1
  Multiplicity = 1
  Basis Set: AUG-CC-PVTZ
    Blend: AUG-CC-PVTZ
  Basis Set: (AUG-CC-PVTZ AUX)
    Blend: AUG-CC-PVTZ-JKFIT + DEF2-UNIVERSAL-JKFIT

    Orbital Energies [Eh]
    ---------------------

    Doubly Occupied:

       1A   -104.564967     2A   -104.539406     3A    -40.329923
       4A    -10.290393     5A    -10.263102     6A     -7.756602
       7A     -7.756360     8A     -7.756296     9A     -7.729229
      10A     -7.729123    11A     -7.729062    12A     -2.652289
      13A     -1.375760    14A     -1.375747    15A     -1.373998
      16A     -0.804159    17A     -0.768116    18A     -0.233707
      19A     -0.218001    20A     -0.217069    21A     -0.188003
      22A     -0.183312    23A     -0.178874

  @DF-RHF Final Energy: -1081.05962110537575

   => Energetics <=

    Nuclear Repulsion Energy =            113.2105469537890485
    One-Electron Energy =               -1736.5133334001113781
    Two-Electron Energy =                 542.2431653409468026
    Total Energy =                      -1081.0596211053757543
 Dipole X            :       -104.1203133           98.9824901           -5.1378232
 Dipole Y            :        -79.8398802           76.1403745           -3.6995057
 Dipole Z            :         -0.0000000            0.0000000           -0.0000000
 Magnitude           :                                                    6.3311586
  Basis Set: (AUG-CC-PVTZ AUX)
    Blend: AUG-CC-PVTZ-RI + DEF2-QZVPP-RI
	 Reference Energy          =   -1081.0596211053757543 [Eh]
	 Singles Energy            =      -0.0000000000000000 [Eh]
	 Same-Spin Energy          =      -0.1294332507211465 [Eh]
	 Opposite-Spin Energy      =      -0.3711193019281580 [Eh]
	 Correlation Energy        =      -0.5005525526493045 [Eh]
	 Total Energy              =   -1081.5601736580249508 [Eh]

	 ================> DF-SCS-MP2 Energies <==================
	-----------------------------------------------------------
	 SCS Same-Spin Scale       =       0.3333333333333333 [-]
	 SCS Opposite-Spin Scale   =       1.2000000000000000 [-]
	 SCS Same-Spin Energy      =      -0.0431444169070488 [Eh]
	 SCS Opposite-Spin Energy  =      -0.4453431623137896 [Eh]
	 SCS Correlation Energy    =      -0.4884875792208385 [Eh]
	 SCS Total Energy          =   -1081.5481086845966274 [Eh]
	-----------------------------------------------------------

*** Psi4 exiting successfully. Buy a developer a beer!
