                               Psi4 1.9 release

  ==> Input File <==

--------------------------------------------------------------------------
MEMORY 60 GB

molecule dimer {
0 1
Na     0.000000     0.000000     0.000000
Cl     0.000000     2.370103     0.000000
--
-1 1
Cl     3.555154     0.000000     0.000000

units ang
no_reorient
no_com
symmetry c1
}

set {
basis        aug-cc-pVTZ
scf_type     df
}

energy("mp2", bsse_type="cp")
--------------------------------------------------------------------------

                               Psi4 1.9 release
    Molecular point group: c1
  Charge       = -1
  Multiplicity = 1
  Basis Set: AUG-CC-PVTZ
    Blend: AUG-CC-PVTZ
  Basis Set: (AUG-CC-PVTZ AUX)
    Blend: AUG-CC-PVTZ-JKFIT + DEF2-UNIVERSAL-JKFIT
  @DF-RHF Final Energy:  -459.57349549617987
    Total Energy =                       -459.5734954961798167
 Dipole X            :       -120.9290060          114.2105457           -6.7184603
 Dipole Y            :         -0.0000299            0.0000000           -0.0000299
 Dipole Z            :         -0.0000000            0.0000000           -0.0000000
 Magnitude           :                                                    6.7184603
  Basis Set: (AUG-CC-PVTZ AUX)
    Blend: AUG-CC-PVTZ-RI + DEF2-QZVPP-RI
	 Reference Energy          =    -459.5734954961798735 [Eh]
	 Singles Energy            =      -0.0000000000000000 [Eh]
	 Same-Spin Energy          =      -0.0624455039767011 [Eh]
	 Opposite-Spin Energy      =      -0.1792281736263052 [Eh]
	 Correlation Energy        =      -0.2416736776030064 [Eh]
	 Total Energy              =    -459.8151691737828628 [Eh]
	 SCS Total Energy          =    -459.8093844725236750 [Eh]
                               Psi4 1.9 release
    Molecular point group: c1
  Multiplicity = 1
  Basis Set: AUG-CC-PVTZ
    Blend: AUG-CC-PVTZ
  Basis Set: (AUG-CC-PVTZ AUX)
    Blend: AUG-CC-PVTZ-JKFIT + DEF2-UNIVERSAL-JKFIT
  @DF-RHF Final Energy:  -621.45482409847386
    Total Energy =                       -621.4548240984737504
  Basis Set: (AUG-CC-PVTZ AUX)
	 Singles Energy            =      -0.0000000000000000 [Eh]
	 Same-Spin Energy          =      -0.0655712399962558 [Eh]
	 Opposite-Spin Energy      =      -0.1898624498181883 [Eh]
	 Correlation Energy        =      -0.2554336898144441 [Eh]
	 Total Energy              =    -621.7102577882883452 [Eh]
	 SCS Total Energy          =    -621.7045161182544462 [Eh]
                               Psi4 1.9 release
    Molecular point group: c1

    Geometry (in Bohr), charge = -1, multiplicity = 1:

       Center              X                  Y                   Z               Mass
    ------------   -----------------  -----------------  -----------------  -----------------
         NA           0.000000000000     0.000000000000     0.000000000000    22.989769282000
         CL           0.000000000000     4.478845559126     0.000000000000    34.968852682000
         CL           6.718267393826     0.000000000000     0.000000000000    34.968852682000

  Charge       = -1
  Multiplicity = 1
  Basis Set: AUG-CC-PVTZ
    Blend: AUG-CC-PVTZ
  Basis Set: (AUG-CC-PVTZ AUX)
    Blend: AUG-CC-PVTZ-JKFIT + DEF2-UNIVERSAL-JKFIT

    Orbital Energies [Eh]
    ---------------------

    Doubly Occupied:

       1A   -104.577269     2A   -104.531766     3A    -40.353899
       4A    -10.302615     5A    -10.255359     6A     -7.768834
       7A     -7.768577     8A     -7.768518     9A     -7.721463
      10A     -7.721369    11A     -7.721324    12A     -2.675519
      13A     -1.398851    14A     -1.398747    15A     -1.397490
      16A     -0.816060    17A     -0.759053    18A     -0.244502
      19A     -0.228543    20A     -0.227322    21A     -0.177757
      22A     -0.175115    23A     -0.173506

  @DF-RHF Final Energy: -1081.05135422468902

   => Energetics <=

    Nuclear Repulsion Energy =            105.3787299175810119
    One-Electron Energy =               -1720.5332463024694789
    Two-Electron Energy =                 534.1031621601994175
    Total Energy =                      -1081.0513542246890211
 Dipole X            :       -120.3521102          114.2105457           -6.1415645
 Dipole Y            :        -79.8285888           76.1403745           -3.6882143
 Dipole Z            :         -0.0000000            0.0000000           -0.0000000
 Magnitude           :                                                    7.1639192
  Basis Set: (AUG-CC-PVTZ AUX)
    Blend: AUG-CC-PVTZ-RI + DEF2-QZVPP-RI
	 Reference Energy          =   -1081.0513542246890211 [Eh]
	 Singles Energy            =      -0.0000000000000000 [Eh]
	 Same-Spin Energy          =      -0.1287011314500264 [Eh]
	 Opposite-Spin Energy      =      -0.3698396589874425 [Eh]
	 Correlation Energy        =      -0.4985407904374690 [Eh]
	 Total Energy              =   -1081.5498950151265944 [Eh]

	 ================> DF-SCS-MP2 Energies <==================
	-----------------------------------------------------------
	 SCS Same-Spin Scale       =       0.3333333333333333 [-]
	 SCS Opposite-Spin Scale   =       1.2000000000000000 [-]
	 SCS Same-Spin Energy      =      -0.0429003771500088 [Eh]
	 SCS Opposite-Spin Energy  =      -0.4438075907849310 [Eh]
	 SCS Correlation Energy    =      -0.4867079679349399 [Eh]
	 SCS Total Energy          =   -1081.5380621926240110 [Eh]
	-----------------------------------------------------------

*** Psi4 exiting successfully. Buy a developer a beer!
