                               Psi4 1.8.2 release

  ==> Input File <==

--------------------------------------------------------------------------
MEMORY 60 GB

molecule dimer {
-1 1
Na         0.000000     0.000000     0.000000
Cl         0.000000     2.370103     0.000000
Cl         3.555154     0.000000     0.000000

units ang
no_reorient
no_com
symmetry c1
}

set {
basis        aug-cc-pVTZ
scf_type     df
}

energy("mp2")
--------------------------------------------------------------------------

    Molecular point group: c1

    Geometry (in Angstrom), charge = -1, multiplicity = 1:

       Center              X                  Y                   Z               Mass
    ------------   -----------------  -----------------  -----------------  -----------------
         NA           0.000000000000     0.000000000000     0.000000000000    22.989769282000
         CL           0.000000000000     2.370103000000     0.000000000000    34.968852682000
         CL           3.555154000000     0.000000000000     0.000000000000    34.968852682000

  Charge       = -1
  Multiplicity = 1
  Basis Set: AUG-CC-PVTZ
    Blend: AUG-CC-PVTZ
  Basis Set: (AUG-CC-PVTZ AUX)
    Blend: AUG-CC-PVTZ-JKFIT + DEF2-UNIVERSAL-JKFIT

    Orbital Energies [Eh]
    ---------------------

    Doubly Occupied:

       1A   -104.577269     2A   -104.531766     3A    -40.353899
       4A    -10.302615     5A    -10.255359     6A     -7.768834
       7A     -7.768577     8A     -7.768518     9A     -7.721463
      10A     -7.721369    11A     -7.721324    12A     -2.675519
      13A     -1.398851    14A     -1.398747    15A     -1.397490
      16A     -0.816060    17A     -0.759053    18A     -0.244502
      19A     -0.228543    20A     -0.227322    21A     -0.177757
      22A     -0.175115    23A     -0.173506

  @DF-RHF Final Energy: -1081.05135422460580

   => Energetics <=

    Nuclear Repulsion Energy =            105.3787299175810119
    One-Electron Energy =               -1720.5332463024058143
    Two-Electron Energy =                 534.1031621602189716
    Total Energy =                      -1081.0513542246058023
 Dipole X            :       -120.3521102          114.2105457           -6.1415645
 Dipole Y            :        -79.8285888           76.1403745           -3.6882143
 Dipole Z            :          0.0000000            0.0000000            0.0000000
 Magnitude           :                                                    7.1639192
  Basis Set: (AUG-CC-PVTZ AUX)
    Blend: AUG-CC-PVTZ-RI + DEF2-QZVPP-RI
	 Reference Energy          =   -1081.0513542246058023 [Eh]
	 Singles Energy            =      -0.0000000000000000 [Eh]
	 Same-Spin Energy          =      -0.1287011314500499 [Eh]
	 Opposite-Spin Energy      =      -0.3698396589874887 [Eh]
	 Correlation Energy        =      -0.4985407904375386 [Eh]
	 Total Energy              =   -1081.5498950150433757 [Eh]

	 ================> DF-SCS-MP2 Energies <==================
	-----------------------------------------------------------
	 SCS Same-Spin Scale       =       0.3333333333333333 [-]
	 SCS Opposite-Spin Scale   =       1.2000000000000000 [-]
	 SCS Same-Spin Energy      =      -0.0429003771500166 [Eh]
	 SCS Opposite-Spin Energy  =      -0.4438075907849864 [Eh]
	 SCS Correlation Energy    =      -0.4867079679350030 [Eh]
	 SCS Total Energy          =   -1081.5380621925407922 [Eh]
	-----------------------------------------------------------

*** Psi4 exiting successfully. Buy a developer a beer!
