                               Psi4 1.8.2 release

  ==> Input File <==

--------------------------------------------------------------------------
MEMORY 60 GB

molecule dimer {
-1 1
Gh(Na)     0.000000     0.000000     0.000000
Gh(Cl)     0.000000     2.370103     0.000000
Cl         3.555154     0.000000     0.000000

units ang
no_reorient
no_com
symmetry c1
}

set {
basis        aug-cc-pVTZ
scf_type     df
}

energy("mp2")
--------------------------------------------------------------------------

    Molecular point group: c1

    Geometry (in Angstrom), charge = -1, multiplicity = 1:

       Center              X                  Y                   Z               Mass
    ------------   -----------------  -----------------  -----------------  -----------------
      Gh(NA)          0.000000000000     0.000000000000     0.000000000000    22.989769282000
      Gh(CL)          0.000000000000     2.370103000000     0.000000000000    34.968852682000
         CL           3.555154000000     0.000000000000     0.000000000000    34.968852682000

  Charge       = -1
  Multiplicity = 1
  Basis Set: AUG-CC-PVTZ
    Blend: AUG-CC-PVTZ
  Basis Set: (AUG-CC-PVTZ AUX)
    Blend: AUG-CC-PVTZ-JKFIT + DEF2-UNIVERSAL-JKFIT

    Orbital Energies [Eh]
    ---------------------

    Doubly Occupied:

       1A   -104.506179     2A    -10.229796     3A     -7.695840
       4A     -7.695838     5A     -7.695824     6A     -0.733506
       7A     -0.150338     8A     -0.150331     9A     -0.150330

  @DF-RHF Final Energy:  -459.57349549615714

   => Energetics <=

    Nuclear Repulsion Energy =              0.0000000000000000
    One-Electron Energy =                -641.1310246436809166
    Two-Electron Energy =                 181.5575291475238373
    Total Energy =                       -459.5734954961570793
 Dipole X            :       -120.9290060          114.2105457           -6.7184603
 Dipole Y            :         -0.0000299            0.0000000           -0.0000299
 Dipole Z            :          0.0000000            0.0000000            0.0000000
 Magnitude           :                                                    6.7184603
  Basis Set: (AUG-CC-PVTZ AUX)
    Blend: AUG-CC-PVTZ-RI + DEF2-QZVPP-RI
	 Reference Energy          =    -459.5734954961571361 [Eh]
	 Singles Energy            =      -0.0000000000000000 [Eh]
	 Same-Spin Energy          =      -0.0624455039767073 [Eh]
	 Opposite-Spin Energy      =      -0.1792281736263177 [Eh]
	 Correlation Energy        =      -0.2416736776030249 [Eh]
	 Total Energy              =    -459.8151691737601823 [Eh]

	 ================> DF-SCS-MP2 Energies <==================
	-----------------------------------------------------------
	 SCS Same-Spin Scale       =       0.3333333333333333 [-]
	 SCS Opposite-Spin Scale   =       1.2000000000000000 [-]
	 SCS Same-Spin Energy      =      -0.0208151679922358 [Eh]
	 SCS Opposite-Spin Energy  =      -0.2150738083515812 [Eh]
	 SCS Correlation Energy    =      -0.2358889763438169 [Eh]
	 SCS Total Energy          =    -459.8093844725009376 [Eh]
	-----------------------------------------------------------

*** Psi4 exiting successfully. Buy a developer a beer!
