                               Psi4 1.9 release

  ==> Input File <==

--------------------------------------------------------------------------
MEMORY 60 GB

molecule dimer {
0 1
Na     0.000000     0.000000     0.000000
Cl     0.000000     2.370103     0.000000
--
-1 1
Cl     2.844124     0.000000     0.000000

units ang
no_reorient
no_com
symmetry c1
}

set {
basis        aug-cc-pVTZ
scf_type     df
}

energy("mp2", bsse_type="cp")
--------------------------------------------------------------------------

                               Psi4 1.9 release
    Molecular point group: c1
  Charge       = -1
  Multiplicity = 1
  Basis Set: AUG-CC-PVTZ
    Blend: AUG-CC-PVTZ
  Basis Set: (AUG-CC-PVTZ AUX)
    Blend: AUG-CC-PVTZ-JKFIT + DEF2-UNIVERSAL-JKFIT
  @DF-RHF Final Energy:  -459.57350447908732
    Total Energy =                       -459.5735044790873189
 Dipole X            :        -96.7434331           91.3684623           -5.3749708
 Dipole Y            :          0.0000217            0.0000000            0.0000217
 Dipole Z            :          0.0000000            0.0000000            0.0000000
 Magnitude           :                                                    5.3749708
  Basis Set: (AUG-CC-PVTZ AUX)
    Blend: AUG-CC-PVTZ-RI + DEF2-QZVPP-RI
	 Reference Energy          =    -459.5735044790873189 [Eh]
	 Singles Energy            =      -0.0000000000000000 [Eh]
	 Same-Spin Energy          =      -0.0625891017449125 [Eh]
	 Opposite-Spin Energy      =      -0.1797551426941834 [Eh]
	 Correlation Energy        =      -0.2423442444390959 [Eh]
	 Total Energy              =    -459.8158487235264147 [Eh]
	 SCS Total Energy          =    -459.8100736842353058 [Eh]
                               Psi4 1.9 release
    Molecular point group: c1
  Multiplicity = 1
  Basis Set: AUG-CC-PVTZ
    Blend: AUG-CC-PVTZ
  Basis Set: (AUG-CC-PVTZ AUX)
    Blend: AUG-CC-PVTZ-JKFIT + DEF2-UNIVERSAL-JKFIT
  @DF-RHF Final Energy:  -621.45486723794158
    Total Energy =                       -621.4548672379415848
  Basis Set: (AUG-CC-PVTZ AUX)
	 Singles Energy            =      -0.0000000000000000 [Eh]
	 Same-Spin Energy          =      -0.0658904967445702 [Eh]
	 Opposite-Spin Energy      =      -0.1907248962996961 [Eh]
	 Correlation Energy        =      -0.2566153930442663 [Eh]
	 Total Energy              =    -621.7114826309858699 [Eh]
	 SCS Total Energy          =    -621.7057006124160807 [Eh]
                               Psi4 1.9 release
    Molecular point group: c1

    Geometry (in Bohr), charge = -1, multiplicity = 1:

       Center              X                  Y                   Z               Mass
    ------------   -----------------  -----------------  -----------------  -----------------
         NA           0.000000000000     0.000000000000     0.000000000000    22.989769282000
         CL           0.000000000000     4.478845559126     0.000000000000    34.968852682000
         CL           5.374615426842     0.000000000000     0.000000000000    34.968852682000

  Charge       = -1
  Multiplicity = 1
  Basis Set: AUG-CC-PVTZ
    Blend: AUG-CC-PVTZ
  Basis Set: (AUG-CC-PVTZ AUX)
    Blend: AUG-CC-PVTZ-JKFIT + DEF2-UNIVERSAL-JKFIT

    Orbital Energies [Eh]
    ---------------------

    Doubly Occupied:

       1A   -104.558485     2A   -104.542868     3A    -40.315339
       4A    -10.283981     5A    -10.266806     6A     -7.750180
       7A     -7.749947     8A     -7.749884     9A     -7.732943
      10A     -7.732834    11A     -7.732767    12A     -2.638566
      13A     -1.362131    14A     -1.362040    15A     -1.360238
      16A     -0.798135    17A     -0.773415    18A     -0.229718
      19A     -0.214625    20A     -0.211430    21A     -0.193890
      22A     -0.187756    23A     -0.179582

  @DF-RHF Final Energy: -1081.06338422058025

   => Energetics <=

    Nuclear Repulsion Energy =            117.8532683467936408
    One-Electron Energy =               -1745.9781798244025595
    Two-Electron Energy =                 547.0615272570288425
    Total Energy =                      -1081.0633842205802466
 Dipole X            :        -96.0161178           91.3684623           -4.6476555
 Dipole Y            :        -79.8487837           76.1403745           -3.7084091
 Dipole Z            :          0.0000000            0.0000000            0.0000000
 Magnitude           :                                                    5.9458389
  Basis Set: (AUG-CC-PVTZ AUX)
    Blend: AUG-CC-PVTZ-RI + DEF2-QZVPP-RI
	 Reference Energy          =   -1081.0633842205802466 [Eh]
	 Singles Energy            =      -0.0000000000000000 [Eh]
	 Same-Spin Energy          =      -0.1298395346987092 [Eh]
	 Opposite-Spin Energy      =      -0.3717045204762041 [Eh]
	 Correlation Energy        =      -0.5015440551749133 [Eh]
	 Total Energy              =   -1081.5649282757551646 [Eh]

	 ================> DF-SCS-MP2 Energies <==================
	-----------------------------------------------------------
	 SCS Same-Spin Scale       =       0.3333333333333333 [-]
	 SCS Opposite-Spin Scale   =       1.2000000000000000 [-]
	 SCS Same-Spin Energy      =      -0.0432798448995697 [Eh]
	 SCS Opposite-Spin Energy  =      -0.4460454245714449 [Eh]
	 SCS Correlation Energy    =      -0.4893252694710146 [Eh]
	 SCS Total Energy          =   -1081.5527094900512566 [Eh]
	-----------------------------------------------------------

*** Psi4 exiting successfully. Buy a developer a beer!
