                               Psi4 1.8.2 release

  ==> Input File <==

--------------------------------------------------------------------------
MEMORY 60 GB

molecule dimer {
1 1
Na     0.000000     0.000000     0.000000
--
-1 1
Cl     0.000000     2.370103     0.000000
--
-1 1
Cl     3.555154     0.000000     0.000000

units ang
no_reorient
no_com
symmetry c1
}

set {
basis        aug-cc-pVTZ
scf_type     df
}

energy("mp2", bsse_type="cp")
--------------------------------------------------------------------------

                               Psi4 1.8.2 release
    Molecular point group: c1
  Charge       = 1
  Multiplicity = 1
  Basis Set: AUG-CC-PVTZ
    Blend: AUG-CC-PVTZ
  Basis Set: (AUG-CC-PVTZ AUX)
    Blend: AUG-CC-PVTZ-JKFIT + DEF2-UNIVERSAL-JKFIT
  @DF-RHF Final Energy:  -161.67604391916871
    Total Energy =                       -161.6760439191687055
 Dipole X            :          0.0003119            0.0000000            0.0003119
 Dipole Y            :          0.0005133            0.0000000            0.0005133
 Dipole Z            :          0.0000000            0.0000000            0.0000000
 Magnitude           :                                                    0.0006006
  Basis Set: (AUG-CC-PVTZ AUX)
    Blend: AUG-CC-PVTZ-RI + DEF2-QZVPP-RI
	 Reference Energy          =    -161.6760439191687055 [Eh]
	 Singles Energy            =      -0.0000000000000000 [Eh]
	 Same-Spin Energy          =      -0.0027802419898173 [Eh]
	 Opposite-Spin Energy      =      -0.0101321945736280 [Eh]
	 Correlation Energy        =      -0.0129124365634453 [Eh]
	 Total Energy              =    -161.6889563557321594 [Eh]
	 SCS Total Energy          =    -161.6891292999870018 [Eh]
                               Psi4 1.8.2 release
    Molecular point group: c1
  Basis Set: AUG-CC-PVTZ
    Blend: AUG-CC-PVTZ
  Basis Set: (AUG-CC-PVTZ AUX)
    Blend: AUG-CC-PVTZ-JKFIT + DEF2-UNIVERSAL-JKFIT
  @DF-RHF Final Energy:  -459.57351003361464
    Total Energy =                       -459.5735100336146957
  Basis Set: (AUG-CC-PVTZ AUX)
                               Psi4 1.8.2 release
  @DF-RHF Final Energy:  -919.02949529033413
    Total Energy =                       -919.0294952903341255
                               Psi4 1.8.2 release
  @DF-RHF Final Energy:  -621.40599542566440
    Total Energy =                       -621.4059954256645142
                               Psi4 1.8.2 release
  @DF-RHF Final Energy:  -621.45482409842555
    Total Energy =                       -621.4548240984256608
                               Psi4 1.8.2 release
  Multiplicity = 1
  @DF-RHF Final Energy:  -459.57349549615719
    Total Energy =                       -459.5734954961571930
	 Singles Energy            =      -0.0000000000000000 [Eh]
	 Same-Spin Energy          =      -0.0624455039767071 [Eh]
	 Opposite-Spin Energy      =      -0.1792281736263178 [Eh]
	 Correlation Energy        =      -0.2416736776030249 [Eh]
	 Total Energy              =    -459.8151691737602391 [Eh]
	 SCS Total Energy          =    -459.8093844725009944 [Eh]
                               Psi4 1.8.2 release
    Molecular point group: c1

    Geometry (in Bohr), charge = -1, multiplicity = 1:

       Center              X                  Y                   Z               Mass
    ------------   -----------------  -----------------  -----------------  -----------------
         NA           0.000000000000     0.000000000000     0.000000000000    22.989769282000
         CL           0.000000000000     4.478845559126     0.000000000000    34.968852682000
         CL           6.718267393826     0.000000000000     0.000000000000    34.968852682000

  Charge       = -1
  Multiplicity = 1
  Basis Set: AUG-CC-PVTZ
    Blend: AUG-CC-PVTZ
  Basis Set: (AUG-CC-PVTZ AUX)
    Blend: AUG-CC-PVTZ-JKFIT + DEF2-UNIVERSAL-JKFIT

    Orbital Energies [Eh]
    ---------------------

    Doubly Occupied:

       1A   -104.577269     2A   -104.531766     3A    -40.353899
       4A    -10.302615     5A    -10.255359     6A     -7.768834
       7A     -7.768577     8A     -7.768518     9A     -7.721463
      10A     -7.721369    11A     -7.721324    12A     -2.675519
      13A     -1.398851    14A     -1.398747    15A     -1.397490
      16A     -0.816060    17A     -0.759053    18A     -0.244502
      19A     -0.228543    20A     -0.227322    21A     -0.177757
      22A     -0.175115    23A     -0.173506

  @DF-RHF Final Energy: -1081.05135422460580

   => Energetics <=

    Nuclear Repulsion Energy =            105.3787299175810119
    One-Electron Energy =               -1720.5332463024060417
    Two-Electron Energy =                 534.1031621602191990
    Total Energy =                      -1081.0513542246058023
 Dipole X            :       -120.3521102          114.2105457           -6.1415645
 Dipole Y            :        -79.8285888           76.1403745           -3.6882143
 Dipole Z            :          0.0000000            0.0000000            0.0000000
 Magnitude           :                                                    7.1639192
  Basis Set: (AUG-CC-PVTZ AUX)
    Blend: AUG-CC-PVTZ-RI + DEF2-QZVPP-RI
	 Reference Energy          =   -1081.0513542246058023 [Eh]
	 Singles Energy            =      -0.0000000000000000 [Eh]
	 Same-Spin Energy          =      -0.1287011314500503 [Eh]
	 Opposite-Spin Energy      =      -0.3698396589874863 [Eh]
	 Correlation Energy        =      -0.4985407904375366 [Eh]
	 Total Energy              =   -1081.5498950150433757 [Eh]

	 ================> DF-SCS-MP2 Energies <==================
	-----------------------------------------------------------
	 SCS Same-Spin Scale       =       0.3333333333333333 [-]
	 SCS Opposite-Spin Scale   =       1.2000000000000000 [-]
	 SCS Same-Spin Energy      =      -0.0429003771500168 [Eh]
	 SCS Opposite-Spin Energy  =      -0.4438075907849836 [Eh]
	 SCS Correlation Energy    =      -0.4867079679350004 [Eh]
	 SCS Total Energy          =   -1081.5380621925407922 [Eh]
	-----------------------------------------------------------

*** Psi4 exiting successfully. Buy a developer a beer!
