                               Psi4 1.8.2 release

  ==> Input File <==

--------------------------------------------------------------------------
MEMORY 60 GB

molecule dimer {
-1 1
Gh(Na)     0.000000     0.000000     0.000000
Cl         0.000000     2.370103     0.000000
Gh(Cl)     3.555154     0.000000     0.000000

units ang
no_reorient
no_com
symmetry c1
}

set {
basis        aug-cc-pVTZ
scf_type     df
}

energy("mp2")
--------------------------------------------------------------------------

    Molecular point group: c1

    Geometry (in Angstrom), charge = -1, multiplicity = 1:

       Center              X                  Y                   Z               Mass
    ------------   -----------------  -----------------  -----------------  -----------------
      Gh(NA)          0.000000000000     0.000000000000     0.000000000000    22.989769282000
         CL           0.000000000000     2.370103000000     0.000000000000    34.968852682000
      Gh(CL)          3.555154000000     0.000000000000     0.000000000000    34.968852682000

  Charge       = -1
  Multiplicity = 1
  Basis Set: AUG-CC-PVTZ
    Blend: AUG-CC-PVTZ
  Basis Set: (AUG-CC-PVTZ AUX)
    Blend: AUG-CC-PVTZ-JKFIT + DEF2-UNIVERSAL-JKFIT

    Orbital Energies [Eh]
    ---------------------

    Doubly Occupied:

       1A   -104.506447     2A    -10.229853     3A     -7.695910
       4A     -7.695906     5A     -7.695891     6A     -0.733493
       7A     -0.150335     8A     -0.150320     9A     -0.150319

  @DF-RHF Final Energy:  -459.57351003361435

   => Energetics <=

    Nuclear Repulsion Energy =              0.0000000000000000
    One-Electron Energy =                -641.1300672768176128
    Two-Electron Energy =                 181.5565572432032013
    Total Energy =                       -459.5735100336144114
 Dipole X            :         -0.0000292            0.0000000           -0.0000292
 Dipole Y            :        -80.6196417           76.1403745           -4.4792672
 Dipole Z            :          0.0000000            0.0000000            0.0000000
 Magnitude           :                                                    4.4792672
  Basis Set: (AUG-CC-PVTZ AUX)
    Blend: AUG-CC-PVTZ-RI + DEF2-QZVPP-RI
	 Reference Energy          =    -459.5735100336143546 [Eh]
	 Singles Energy            =      -0.0000000000000000 [Eh]
	 Same-Spin Energy          =      -0.0627083161904887 [Eh]
	 Opposite-Spin Energy      =      -0.1801870935051205 [Eh]
	 Correlation Energy        =      -0.2428954096956092 [Eh]
	 Total Energy              =    -459.8164054433099750 [Eh]

	 ================> DF-SCS-MP2 Energies <==================
	-----------------------------------------------------------
	 SCS Same-Spin Scale       =       0.3333333333333333 [-]
	 SCS Opposite-Spin Scale   =       1.2000000000000000 [-]
	 SCS Same-Spin Energy      =      -0.0209027720634962 [Eh]
	 SCS Opposite-Spin Energy  =      -0.2162245122061447 [Eh]
	 SCS Correlation Energy    =      -0.2371272842696409 [Eh]
	 SCS Total Energy          =    -459.8106373178840158 [Eh]
	-----------------------------------------------------------

*** Psi4 exiting successfully. Buy a developer a beer!
