                               Psi4 1.8.2 release

  ==> Input File <==

--------------------------------------------------------------------------
MEMORY 60 GB

molecule dimer {
1 1
Na     0.000000     0.000000     0.000000
--
-1 1
Cl     0.000000     2.370103     0.000000
--
-1 1
Cl     4.740206     0.000000     0.000000

units ang
no_reorient
no_com
symmetry c1
}

set {
basis        aug-cc-pVTZ
scf_type     df
}

energy("mp2", bsse_type="cp")
--------------------------------------------------------------------------

                               Psi4 1.8.2 release
    Molecular point group: c1
  Charge       = 1
  Multiplicity = 1
  Basis Set: AUG-CC-PVTZ
    Blend: AUG-CC-PVTZ
  Basis Set: (AUG-CC-PVTZ AUX)
    Blend: AUG-CC-PVTZ-JKFIT + DEF2-UNIVERSAL-JKFIT
  @DF-RHF Final Energy:  -161.67603825853783
    Total Energy =                       -161.6760382585378295
 Dipole X            :          0.0001010            0.0000000            0.0001010
 Dipole Y            :          0.0005685            0.0000000            0.0005685
 Dipole Z            :         -0.0000000            0.0000000           -0.0000000
 Magnitude           :                                                    0.0005774
  Basis Set: (AUG-CC-PVTZ AUX)
    Blend: AUG-CC-PVTZ-RI + DEF2-QZVPP-RI
	 Reference Energy          =    -161.6760382585378295 [Eh]
	 Singles Energy            =      -0.0000000000000000 [Eh]
	 Same-Spin Energy          =      -0.0025883062133168 [Eh]
	 Opposite-Spin Energy      =      -0.0096526151622109 [Eh]
	 Correlation Energy        =      -0.0122409213755277 [Eh]
	 Total Energy              =    -161.6882791799133656 [Eh]
	 SCS Total Energy          =    -161.6884841654702427 [Eh]
                               Psi4 1.8.2 release
    Molecular point group: c1
  Basis Set: AUG-CC-PVTZ
    Blend: AUG-CC-PVTZ
  Basis Set: (AUG-CC-PVTZ AUX)
    Blend: AUG-CC-PVTZ-JKFIT + DEF2-UNIVERSAL-JKFIT
  @DF-RHF Final Energy:  -459.57350829067769
    Total Energy =                       -459.5735082906777507
  Basis Set: (AUG-CC-PVTZ AUX)
                               Psi4 1.8.2 release
  @DF-RHF Final Energy:  -919.05006658170396
    Total Energy =                       -919.0500665817039589
                               Psi4 1.8.2 release
  @DF-RHF Final Energy:  -621.36441053902274
    Total Energy =                       -621.3644105390228560
                               Psi4 1.8.2 release
  @DF-RHF Final Energy:  -621.45481571886876
    Total Energy =                       -621.4548157188687583
                               Psi4 1.8.2 release
  Multiplicity = 1
  @DF-RHF Final Energy:  -459.57348706851189
    Total Energy =                       -459.5734870685118949
	 Singles Energy            =      -0.0000000000000000 [Eh]
	 Same-Spin Energy          =      -0.0623470823380044 [Eh]
	 Opposite-Spin Energy      =      -0.1789016386729883 [Eh]
	 Correlation Energy        =      -0.2412487210109927 [Eh]
	 Total Energy              =    -459.8147357895228993 [Eh]
	 SCS Total Energy          =    -459.8089513956988412 [Eh]
                               Psi4 1.8.2 release
    Molecular point group: c1

    Geometry (in Bohr), charge = -1, multiplicity = 1:

       Center              X                  Y                   Z               Mass
    ------------   -----------------  -----------------  -----------------  -----------------
         NA           0.000000000000     0.000000000000     0.000000000000    22.989769282000
         CL           0.000000000000     4.478845559126     0.000000000000    34.968852682000
         CL           8.957691118252     0.000000000000     0.000000000000    34.968852682000

  Charge       = -1
  Multiplicity = 1
  Basis Set: AUG-CC-PVTZ
    Blend: AUG-CC-PVTZ
  Basis Set: (AUG-CC-PVTZ AUX)
    Blend: AUG-CC-PVTZ-JKFIT + DEF2-UNIVERSAL-JKFIT

    Orbital Energies [Eh]
    ---------------------

    Doubly Occupied:

       1A   -104.602185     2A   -104.518067     3A    -40.391599
       4A    -10.327462     5A    -10.241760     6A     -7.793683
       7A     -7.793403     8A     -7.793366     9A     -7.707825
      10A     -7.707781    11A     -7.707760    12A     -2.713083
      13A     -1.436169    14A     -1.435926    15A     -1.435558
      16A     -0.840697    17A     -0.745318    18A     -0.268799
      19A     -0.252634    20A     -0.251293    21A     -0.162687
      22A     -0.161969    23A     -0.161530

  @DF-RHF Final Energy: -1081.03865703285646

   => Energetics <=

    Nuclear Repulsion Energy =             91.4844514485664888
    One-Electron Energy =               -1692.1451088505973530
    Two-Electron Energy =                 519.6220003691743159
    Total Energy =                      -1081.0386570328564630
 Dipole X            :       -160.8995699          152.2807490           -8.6188209
 Dipole Y            :        -79.8252427           76.1403745           -3.6848682
 Dipole Z            :          0.0000000            0.0000000            0.0000000
 Magnitude           :                                                    9.3734906
  Basis Set: (AUG-CC-PVTZ AUX)
    Blend: AUG-CC-PVTZ-RI + DEF2-QZVPP-RI
	 Reference Energy          =   -1081.0386570328564630 [Eh]
	 Singles Energy            =      -0.0000000000000000 [Eh]
	 Same-Spin Energy          =      -0.1278897969221994 [Eh]
	 Opposite-Spin Energy      =      -0.3684165056315001 [Eh]
	 Correlation Energy        =      -0.4963063025536995 [Eh]
	 Total Energy              =   -1081.5349633354101115 [Eh]

	 ================> DF-SCS-MP2 Energies <==================
	-----------------------------------------------------------
	 SCS Same-Spin Scale       =       0.3333333333333333 [-]
	 SCS Opposite-Spin Scale   =       1.2000000000000000 [-]
	 SCS Same-Spin Energy      =      -0.0426299323073998 [Eh]
	 SCS Opposite-Spin Energy  =      -0.4420998067578001 [Eh]
	 SCS Correlation Energy    =      -0.4847297390651999 [Eh]
	 SCS Total Energy          =   -1081.5233867719216505 [Eh]
	-----------------------------------------------------------

*** Psi4 exiting successfully. Buy a developer a beer!
