                               Psi4 1.8.2 release

  ==> Input File <==

--------------------------------------------------------------------------
MEMORY 60 GB

molecule dimer {
-1 1
Na         0.000000     0.000000     0.000000
Cl         0.000000     2.370103     0.000000
Cl         2.844124     0.000000     0.000000

units ang
no_reorient
no_com
symmetry c1
}

set {
basis        aug-cc-pVTZ
scf_type     df
}

energy("mp2")
--------------------------------------------------------------------------

    Molecular point group: c1

    Geometry (in Angstrom), charge = -1, multiplicity = 1:

       Center              X                  Y                   Z               Mass
    ------------   -----------------  -----------------  -----------------  -----------------
         NA           0.000000000000     0.000000000000     0.000000000000    22.989769282000
         CL           0.000000000000     2.370103000000     0.000000000000    34.968852682000
         CL           2.844124000000     0.000000000000     0.000000000000    34.968852682000

  Charge       = -1
  Multiplicity = 1
  Basis Set: AUG-CC-PVTZ
    Blend: AUG-CC-PVTZ
  Basis Set: (AUG-CC-PVTZ AUX)
    Blend: AUG-CC-PVTZ-JKFIT + DEF2-UNIVERSAL-JKFIT

    Orbital Energies [Eh]
    ---------------------

    Doubly Occupied:

       1A   -104.558485     2A   -104.542868     3A    -40.315339
       4A    -10.283981     5A    -10.266806     6A     -7.750180
       7A     -7.749947     8A     -7.749884     9A     -7.732943
      10A     -7.732834    11A     -7.732767    12A     -2.638566
      13A     -1.362131    14A     -1.362040    15A     -1.360238
      16A     -0.798135    17A     -0.773415    18A     -0.229718
      19A     -0.214625    20A     -0.211430    21A     -0.193890
      22A     -0.187756    23A     -0.179582

  @DF-RHF Final Energy: -1081.06338422057001

   => Energetics <=

    Nuclear Repulsion Energy =            117.8532683467936408
    One-Electron Energy =               -1745.9781798244232505
    Two-Electron Energy =                 547.0615272570596517
    Total Energy =                      -1081.0633842205700148
 Dipole X            :        -96.0161178           91.3684623           -4.6476555
 Dipole Y            :        -79.8487837           76.1403745           -3.7084091
 Dipole Z            :         -0.0000000            0.0000000           -0.0000000
 Magnitude           :                                                    5.9458389
  Basis Set: (AUG-CC-PVTZ AUX)
    Blend: AUG-CC-PVTZ-RI + DEF2-QZVPP-RI
	 Reference Energy          =   -1081.0633842205700148 [Eh]
	 Singles Energy            =      -0.0000000000000000 [Eh]
	 Same-Spin Energy          =      -0.1298395346986702 [Eh]
	 Opposite-Spin Energy      =      -0.3717045204761105 [Eh]
	 Correlation Energy        =      -0.5015440551747806 [Eh]
	 Total Energy              =   -1081.5649282757447054 [Eh]

	 ================> DF-SCS-MP2 Energies <==================
	-----------------------------------------------------------
	 SCS Same-Spin Scale       =       0.3333333333333333 [-]
	 SCS Opposite-Spin Scale   =       1.2000000000000000 [-]
	 SCS Same-Spin Energy      =      -0.0432798448995567 [Eh]
	 SCS Opposite-Spin Energy  =      -0.4460454245713326 [Eh]
	 SCS Correlation Energy    =      -0.4893252694708893 [Eh]
	 SCS Total Energy          =   -1081.5527094900407974 [Eh]
	-----------------------------------------------------------

*** Psi4 exiting successfully. Buy a developer a beer!
