                               Psi4 1.8.2 release

  ==> Input File <==

--------------------------------------------------------------------------
MEMORY 60 GB

molecule dimer {
1 1
Na         0.000000     0.000000     0.000000
Gh(Cl)     0.000000     2.370103     0.000000
Gh(Cl)     2.607113     0.000000     0.000000

units ang
no_reorient
no_com
symmetry c1
}

set {
basis        aug-cc-pVTZ
scf_type     df
}

energy("mp2")
--------------------------------------------------------------------------

    Molecular point group: c1

    Geometry (in Angstrom), charge = 1, multiplicity = 1:

       Center              X                  Y                   Z               Mass
    ------------   -----------------  -----------------  -----------------  -----------------
         NA           0.000000000000     0.000000000000     0.000000000000    22.989769282000
      Gh(CL)          0.000000000000     2.370103000000     0.000000000000    34.968852682000
      Gh(CL)          2.607113000000     0.000000000000     0.000000000000    34.968852682000

  Charge       = 1
  Multiplicity = 1
  Basis Set: AUG-CC-PVTZ
    Blend: AUG-CC-PVTZ
  Basis Set: (AUG-CC-PVTZ AUX)
    Blend: AUG-CC-PVTZ-JKFIT + DEF2-UNIVERSAL-JKFIT

    Orbital Energies [Eh]
    ---------------------

    Doubly Occupied:

       1A    -40.762355     2A     -3.074705     3A     -1.798017
       4A     -1.797940     5A     -1.797840

  @DF-RHF Final Energy:  -161.67604984565961

   => Energetics <=

    Nuclear Repulsion Energy =              0.0000000000000000
    One-Electron Energy =                -224.8903835756818523
    Two-Electron Energy =                  63.2143337300222683
    Total Energy =                       -161.6760498456595769
 Dipole X            :          0.0004190            0.0000000            0.0004190
 Dipole Y            :          0.0004384            0.0000000            0.0004384
 Dipole Z            :         -0.0000000            0.0000000           -0.0000000
 Magnitude           :                                                    0.0006064
  Basis Set: (AUG-CC-PVTZ AUX)
    Blend: AUG-CC-PVTZ-RI + DEF2-QZVPP-RI
	 Reference Energy          =    -161.6760498456596054 [Eh]
	 Singles Energy            =      -0.0000000000000000 [Eh]
	 Same-Spin Energy          =      -0.0030835474071293 [Eh]
	 Opposite-Spin Energy      =      -0.0109478980076806 [Eh]
	 Correlation Energy        =      -0.0140314454148099 [Eh]
	 Total Energy              =    -161.6900812910744207 [Eh]

	 ================> DF-SCS-MP2 Energies <==================
	-----------------------------------------------------------
	 SCS Same-Spin Scale       =       0.3333333333333333 [-]
	 SCS Opposite-Spin Scale   =       1.2000000000000000 [-]
	 SCS Same-Spin Energy      =      -0.0010278491357098 [Eh]
	 SCS Opposite-Spin Energy  =      -0.0131374776092168 [Eh]
	 SCS Correlation Energy    =      -0.0141653267449265 [Eh]
	 SCS Total Energy          =    -161.6902151724045211 [Eh]
	-----------------------------------------------------------

*** Psi4 exiting successfully. Buy a developer a beer!
