                               Psi4 1.8.2 release

  ==> Input File <==

--------------------------------------------------------------------------
MEMORY 60 GB

molecule dimer {
-1 1
Gh(Na)     0.000000     0.000000     0.000000
Cl         0.000000     2.370103     0.000000
Gh(Cl)     2.370103     0.000000     0.000000

units ang
no_reorient
no_com
symmetry c1
}

set {
basis        aug-cc-pVTZ
scf_type     df
}

energy("mp2")
--------------------------------------------------------------------------

    Molecular point group: c1

    Geometry (in Angstrom), charge = -1, multiplicity = 1:

       Center              X                  Y                   Z               Mass
    ------------   -----------------  -----------------  -----------------  -----------------
      Gh(NA)          0.000000000000     0.000000000000     0.000000000000    22.989769282000
         CL           0.000000000000     2.370103000000     0.000000000000    34.968852682000
      Gh(CL)          2.370103000000     0.000000000000     0.000000000000    34.968852682000

  Charge       = -1
  Multiplicity = 1
  Basis Set: AUG-CC-PVTZ
    Blend: AUG-CC-PVTZ
  Basis Set: (AUG-CC-PVTZ AUX)
    Blend: AUG-CC-PVTZ-JKFIT + DEF2-UNIVERSAL-JKFIT

    Orbital Energies [Eh]
    ---------------------

    Doubly Occupied:

       1A   -104.506484     2A    -10.229863     3A     -7.695923
       4A     -7.695917     5A     -7.695899     6A     -0.733493
       7A     -0.150334     8A     -0.150321     9A     -0.150319

  @DF-RHF Final Energy:  -459.57351445957448

   => Energetics <=

    Nuclear Repulsion Energy =              0.0000000000000000
    One-Electron Energy =                -641.1299217829629242
    Two-Electron Energy =                 181.5564073233884415
    Total Energy =                       -459.5735144595744828
 Dipole X            :          0.0000111            0.0000000            0.0000111
 Dipole Y            :        -80.6198010           76.1403745           -4.4794265
 Dipole Z            :         -0.0000000            0.0000000           -0.0000000
 Magnitude           :                                                    4.4794265
  Basis Set: (AUG-CC-PVTZ AUX)
    Blend: AUG-CC-PVTZ-RI + DEF2-QZVPP-RI
	 Reference Energy          =    -459.5735144595744828 [Eh]
	 Singles Energy            =      -0.0000000000000000 [Eh]
	 Same-Spin Energy          =      -0.0627440531322660 [Eh]
	 Opposite-Spin Energy      =      -0.1803369400807025 [Eh]
	 Correlation Energy        =      -0.2430809932129686 [Eh]
	 Total Energy              =    -459.8165954527874533 [Eh]

	 ================> DF-SCS-MP2 Energies <==================
	-----------------------------------------------------------
	 SCS Same-Spin Scale       =       0.3333333333333333 [-]
	 SCS Opposite-Spin Scale   =       1.2000000000000000 [-]
	 SCS Same-Spin Energy      =      -0.0209146843774220 [Eh]
	 SCS Opposite-Spin Energy  =      -0.2164043280968430 [Eh]
	 SCS Correlation Energy    =      -0.2373190124742650 [Eh]
	 SCS Total Energy          =    -459.8108334720487278 [Eh]
	-----------------------------------------------------------

*** Psi4 exiting successfully. Buy a developer a beer!
