                               Psi4 1.8.2 release

  ==> Input File <==

--------------------------------------------------------------------------
MEMORY 60 GB

molecule dimer {
-1 1
Na         0.000000     0.000000     0.000000
Cl         0.000000     2.370103     0.000000
Cl         3.318144     0.000000     0.000000

units ang
no_reorient
no_com
symmetry c1
}

set {
basis        aug-cc-pVTZ
scf_type     df
}

energy("mp2")
--------------------------------------------------------------------------

    Molecular point group: c1

    Geometry (in Angstrom), charge = -1, multiplicity = 1:

       Center              X                  Y                   Z               Mass
    ------------   -----------------  -----------------  -----------------  -----------------
         NA           0.000000000000     0.000000000000     0.000000000000    22.989769282000
         CL           0.000000000000     2.370103000000     0.000000000000    34.968852682000
         CL           3.318144000000     0.000000000000     0.000000000000    34.968852682000

  Charge       = -1
  Multiplicity = 1
  Basis Set: AUG-CC-PVTZ
    Blend: AUG-CC-PVTZ
  Basis Set: (AUG-CC-PVTZ AUX)
    Blend: AUG-CC-PVTZ-JKFIT + DEF2-UNIVERSAL-JKFIT

    Orbital Energies [Eh]
    ---------------------

    Doubly Occupied:

       1A   -104.571258     2A   -104.535565     3A    -40.342722
       4A    -10.296637     5A    -10.259175     6A     -7.762852
       7A     -7.762602     8A     -7.762540     9A     -7.725290
      10A     -7.725188    11A     -7.725135    12A     -2.664616
      13A     -1.388014    14A     -1.387963    15A     -1.386451
      16A     -0.810200    17A     -0.763305    18A     -0.238967
      19A     -0.222866    20A     -0.222349    21A     -0.182576
      22A     -0.179029    23A     -0.176486

  @DF-RHF Final Energy: -1081.05536442348739

   => Energetics <=

    Nuclear Repulsion Energy =            109.0792872542856173
    One-Electron Energy =               -1728.0857264241285520
    Two-Electron Energy =                 537.9510747463554026
    Total Energy =                      -1081.0553644234873900
 Dipole X            :       -112.2342672          106.5965179           -5.6377493
 Dipole Y            :        -79.8331436           76.1403745           -3.6927691
 Dipole Z            :          0.0000000            0.0000000            0.0000000
 Magnitude           :                                                    6.7394926
  Basis Set: (AUG-CC-PVTZ AUX)
    Blend: AUG-CC-PVTZ-RI + DEF2-QZVPP-RI
	 Reference Energy          =   -1081.0553644234873900 [Eh]
	 Singles Energy            =      -0.0000000000000000 [Eh]
	 Same-Spin Energy          =      -0.1290423200327718 [Eh]
	 Opposite-Spin Energy      =      -0.3704550412229567 [Eh]
	 Correlation Energy        =      -0.4994973612557285 [Eh]
	 Total Energy              =   -1081.5548617847430251 [Eh]

	 ================> DF-SCS-MP2 Energies <==================
	-----------------------------------------------------------
	 SCS Same-Spin Scale       =       0.3333333333333333 [-]
	 SCS Opposite-Spin Scale   =       1.2000000000000000 [-]
	 SCS Same-Spin Energy      =      -0.0430141066775906 [Eh]
	 SCS Opposite-Spin Energy  =      -0.4445460494675480 [Eh]
	 SCS Correlation Energy    =      -0.4875601561451386 [Eh]
	 SCS Total Energy          =   -1081.5429245796324267 [Eh]
	-----------------------------------------------------------

*** Psi4 exiting successfully. Buy a developer a beer!
