                               Psi4 1.8.2 release

  ==> Input File <==

--------------------------------------------------------------------------
MEMORY 60 GB

molecule dimer {
1 1
Na     0.000000     0.000000     0.000000
--
-1 1
Cl     0.000000     2.370103     0.000000
--
-1 1
Cl     3.318144     0.000000     0.000000

units ang
no_reorient
no_com
symmetry c1
}

set {
basis        aug-cc-pVTZ
scf_type     df
}

energy("mp2", bsse_type="cp")
--------------------------------------------------------------------------

                               Psi4 1.8.2 release
    Molecular point group: c1
  Charge       = 1
  Multiplicity = 1
  Basis Set: AUG-CC-PVTZ
    Blend: AUG-CC-PVTZ
  Basis Set: (AUG-CC-PVTZ AUX)
    Blend: AUG-CC-PVTZ-JKFIT + DEF2-UNIVERSAL-JKFIT
  @DF-RHF Final Energy:  -161.67604529801037
    Total Energy =                       -161.6760452980103651
 Dipole X            :          0.0004384            0.0000000            0.0004384
 Dipole Y            :          0.0004963            0.0000000            0.0004963
 Dipole Z            :         -0.0000000            0.0000000           -0.0000000
 Magnitude           :                                                    0.0006622
  Basis Set: (AUG-CC-PVTZ AUX)
    Blend: AUG-CC-PVTZ-RI + DEF2-QZVPP-RI
	 Reference Energy          =    -161.6760452980103651 [Eh]
	 Singles Energy            =      -0.0000000000000000 [Eh]
	 Same-Spin Energy          =      -0.0028944691953122 [Eh]
	 Opposite-Spin Energy      =      -0.0104331726109305 [Eh]
	 Correlation Energy        =      -0.0133276418062427 [Eh]
	 Total Energy              =    -161.6893729398166215 [Eh]
	 SCS Total Energy          =    -161.6895299282085716 [Eh]
                               Psi4 1.8.2 release
    Molecular point group: c1
  Basis Set: AUG-CC-PVTZ
    Blend: AUG-CC-PVTZ
  Basis Set: (AUG-CC-PVTZ AUX)
    Blend: AUG-CC-PVTZ-JKFIT + DEF2-UNIVERSAL-JKFIT
  @DF-RHF Final Energy:  -459.57351043640307
    Total Energy =                       -459.5735104364030121
  Basis Set: (AUG-CC-PVTZ AUX)
                               Psi4 1.8.2 release
  @DF-RHF Final Energy:  -919.02456564103807
    Total Energy =                       -919.0245656410379524
                               Psi4 1.8.2 release
  @DF-RHF Final Energy:  -621.41720513231166
    Total Energy =                       -621.4172051323115511
                               Psi4 1.8.2 release
  @DF-RHF Final Energy:  -621.45483115725142
    Total Energy =                       -621.4548311572514194
                               Psi4 1.8.2 release
  Multiplicity = 1
  @DF-RHF Final Energy:  -459.57349812074176
    Total Energy =                       -459.5734981207417604
	 Singles Energy            =      -0.0000000000000000 [Eh]
	 Same-Spin Energy          =      -0.0624799566415711 [Eh]
	 Opposite-Spin Energy      =      -0.1793538336466929 [Eh]
	 Correlation Energy        =      -0.2418337902882640 [Eh]
	 Total Energy              =    -459.8153319110300004 [Eh]
	 SCS Total Energy          =    -459.8095493733316630 [Eh]
                               Psi4 1.8.2 release
    Molecular point group: c1

    Geometry (in Bohr), charge = -1, multiplicity = 1:

       Center              X                  Y                   Z               Mass
    ------------   -----------------  -----------------  -----------------  -----------------
         NA           0.000000000000     0.000000000000     0.000000000000    22.989769282000
         CL           0.000000000000     4.478845559126     0.000000000000    34.968852682000
         CL           6.270383404831     0.000000000000     0.000000000000    34.968852682000

  Charge       = -1
  Multiplicity = 1
  Basis Set: AUG-CC-PVTZ
    Blend: AUG-CC-PVTZ
  Basis Set: (AUG-CC-PVTZ AUX)
    Blend: AUG-CC-PVTZ-JKFIT + DEF2-UNIVERSAL-JKFIT

    Orbital Energies [Eh]
    ---------------------

    Doubly Occupied:

       1A   -104.571258     2A   -104.535565     3A    -40.342722
       4A    -10.296637     5A    -10.259175     6A     -7.762852
       7A     -7.762602     8A     -7.762540     9A     -7.725290
      10A     -7.725188    11A     -7.725135    12A     -2.664616
      13A     -1.388014    14A     -1.387963    15A     -1.386451
      16A     -0.810200    17A     -0.763305    18A     -0.238967
      19A     -0.222866    20A     -0.222349    21A     -0.182576
      22A     -0.179029    23A     -0.176486

  @DF-RHF Final Energy: -1081.05536442348648

   => Energetics <=

    Nuclear Repulsion Energy =            109.0792872542856173
    One-Electron Energy =               -1728.0857264241260509
    Two-Electron Energy =                 537.9510747463540383
    Total Energy =                      -1081.0553644234864805
 Dipole X            :       -112.2342672          106.5965179           -5.6377493
 Dipole Y            :        -79.8331436           76.1403745           -3.6927691
 Dipole Z            :          0.0000000            0.0000000            0.0000000
 Magnitude           :                                                    6.7394926
  Basis Set: (AUG-CC-PVTZ AUX)
    Blend: AUG-CC-PVTZ-RI + DEF2-QZVPP-RI
	 Reference Energy          =   -1081.0553644234864805 [Eh]
	 Singles Energy            =      -0.0000000000000000 [Eh]
	 Same-Spin Energy          =      -0.1290423200327716 [Eh]
	 Opposite-Spin Energy      =      -0.3704550412229551 [Eh]
	 Correlation Energy        =      -0.4994973612557267 [Eh]
	 Total Energy              =   -1081.5548617847421156 [Eh]

	 ================> DF-SCS-MP2 Energies <==================
	-----------------------------------------------------------
	 SCS Same-Spin Scale       =       0.3333333333333333 [-]
	 SCS Opposite-Spin Scale   =       1.2000000000000000 [-]
	 SCS Same-Spin Energy      =      -0.0430141066775905 [Eh]
	 SCS Opposite-Spin Energy  =      -0.4445460494675461 [Eh]
	 SCS Correlation Energy    =      -0.4875601561451366 [Eh]
	 SCS Total Energy          =   -1081.5429245796315172 [Eh]
	-----------------------------------------------------------

*** Psi4 exiting successfully. Buy a developer a beer!
