                               Psi4 1.8.2 release

  ==> Input File <==

--------------------------------------------------------------------------
MEMORY 60 GB

molecule dimer {
-1 1
Gh(Na)     0.000000     0.000000     0.000000
Cl         0.000000     2.370103     0.000000
Gh(Cl)     4.740206     0.000000     0.000000

units ang
no_reorient
no_com
symmetry c1
}

set {
basis        aug-cc-pVTZ
scf_type     df
}

energy("mp2")
--------------------------------------------------------------------------

    Molecular point group: c1

    Geometry (in Angstrom), charge = -1, multiplicity = 1:

       Center              X                  Y                   Z               Mass
    ------------   -----------------  -----------------  -----------------  -----------------
      Gh(NA)          0.000000000000     0.000000000000     0.000000000000    22.989769282000
         CL           0.000000000000     2.370103000000     0.000000000000    34.968852682000
      Gh(CL)          4.740206000000     0.000000000000     0.000000000000    34.968852682000

  Charge       = -1
  Multiplicity = 1
  Basis Set: AUG-CC-PVTZ
    Blend: AUG-CC-PVTZ
  Basis Set: (AUG-CC-PVTZ AUX)
    Blend: AUG-CC-PVTZ-JKFIT + DEF2-UNIVERSAL-JKFIT

    Orbital Energies [Eh]
    ---------------------

    Doubly Occupied:

       1A   -104.506437     2A    -10.229852     3A     -7.695908
       4A     -7.695906     5A     -7.695888     6A     -0.733494
       7A     -0.150337     8A     -0.150320     9A     -0.150320

  @DF-RHF Final Energy:  -459.57350829067821

   => Energetics <=

    Nuclear Repulsion Energy =              0.0000000000000000
    One-Electron Energy =                -641.1300939256537958
    Two-Electron Energy =                 181.5565856349756189
    Total Energy =                       -459.5735082906782054
 Dipole X            :         -0.0000727            0.0000000           -0.0000727
 Dipole Y            :        -80.6195713           76.1403745           -4.4791968
 Dipole Z            :          0.0000000            0.0000000            0.0000000
 Magnitude           :                                                    4.4791968
  Basis Set: (AUG-CC-PVTZ AUX)
    Blend: AUG-CC-PVTZ-RI + DEF2-QZVPP-RI
	 Reference Energy          =    -459.5735082906782054 [Eh]
	 Singles Energy            =      -0.0000000000000000 [Eh]
	 Same-Spin Energy          =      -0.0626966192063143 [Eh]
	 Opposite-Spin Energy      =      -0.1801476495249582 [Eh]
	 Correlation Energy        =      -0.2428442687312725 [Eh]
	 Total Energy              =    -459.8163525594094949 [Eh]

	 ================> DF-SCS-MP2 Energies <==================
	-----------------------------------------------------------
	 SCS Same-Spin Scale       =       0.3333333333333333 [-]
	 SCS Opposite-Spin Scale   =       1.2000000000000000 [-]
	 SCS Same-Spin Energy      =      -0.0208988730687714 [Eh]
	 SCS Opposite-Spin Energy  =      -0.2161771794299498 [Eh]
	 SCS Correlation Energy    =      -0.2370760524987212 [Eh]
	 SCS Total Energy          =    -459.8105843431769131 [Eh]
	-----------------------------------------------------------

*** Psi4 exiting successfully. Buy a developer a beer!
