                               Psi4 1.9 release

  ==> Input File <==

--------------------------------------------------------------------------
MEMORY 60 GB

molecule dimer {
0 1
Na     0.000000     0.000000     0.000000
Cl     0.000000     2.370103     0.000000
--
-1 1
Cl     2.370103     0.000000     0.000000

units ang
no_reorient
no_com
symmetry c1
}

set {
basis        aug-cc-pVTZ
scf_type     df
}

energy("mp2", bsse_type="cp")
--------------------------------------------------------------------------

                               Psi4 1.9 release
    Molecular point group: c1
  Charge       = -1
  Multiplicity = 1
  Basis Set: AUG-CC-PVTZ
    Blend: AUG-CC-PVTZ
  Basis Set: (AUG-CC-PVTZ AUX)
    Blend: AUG-CC-PVTZ-JKFIT + DEF2-UNIVERSAL-JKFIT
  @DF-RHF Final Energy:  -459.57351445957346
    Total Energy =                       -459.5735144595734596
 Dipole X            :        -80.6198010           76.1403745           -4.4794265
 Dipole Y            :          0.0000111            0.0000000            0.0000111
 Dipole Z            :         -0.0000000            0.0000000           -0.0000000
 Magnitude           :                                                    4.4794265
  Basis Set: (AUG-CC-PVTZ AUX)
    Blend: AUG-CC-PVTZ-RI + DEF2-QZVPP-RI
	 Reference Energy          =    -459.5735144595734596 [Eh]
	 Singles Energy            =      -0.0000000000000000 [Eh]
	 Same-Spin Energy          =      -0.0627440531322916 [Eh]
	 Opposite-Spin Energy      =      -0.1803369400807552 [Eh]
	 Correlation Energy        =      -0.2430809932130467 [Eh]
	 Total Energy              =    -459.8165954527864869 [Eh]
	 SCS Total Energy          =    -459.8108334720478183 [Eh]
                               Psi4 1.9 release
    Molecular point group: c1
  Multiplicity = 1
  Basis Set: AUG-CC-PVTZ
    Blend: AUG-CC-PVTZ
  Basis Set: (AUG-CC-PVTZ AUX)
    Blend: AUG-CC-PVTZ-JKFIT + DEF2-UNIVERSAL-JKFIT
  @DF-RHF Final Energy:  -621.45491054339811
    Total Energy =                       -621.4549105433980003
  Basis Set: (AUG-CC-PVTZ AUX)
	 Singles Energy            =      -0.0000000000000000 [Eh]
	 Same-Spin Energy          =      -0.0662937598895177 [Eh]
	 Opposite-Spin Energy      =      -0.1917450660662178 [Eh]
	 Correlation Energy        =      -0.2580388259557355 [Eh]
	 Total Energy              =    -621.7129493693538507 [Eh]
	 SCS Total Energy          =    -621.7071025426407687 [Eh]
                               Psi4 1.9 release
    Molecular point group: c1

    Geometry (in Bohr), charge = -1, multiplicity = 1:

       Center              X                  Y                   Z               Mass
    ------------   -----------------  -----------------  -----------------  -----------------
         NA           0.000000000000     0.000000000000     0.000000000000    22.989769282000
         CL           0.000000000000     4.478845559126     0.000000000000    34.968852682000
         CL           4.478845559126     0.000000000000     0.000000000000    34.968852682000

  Charge       = -1
  Multiplicity = 1
  Basis Set: AUG-CC-PVTZ
    Blend: AUG-CC-PVTZ
  Basis Set: (AUG-CC-PVTZ AUX)
    Blend: AUG-CC-PVTZ-JKFIT + DEF2-UNIVERSAL-JKFIT

    Orbital Energies [Eh]
    ---------------------

    Doubly Occupied:

       1A   -104.545574     2A   -104.545574     3A    -40.280011
       4A    -10.271300     5A    -10.271297     6A     -7.737464
       7A     -7.737462     8A     -7.737249     9A     -7.737248
      10A     -7.737200    11A     -7.737200    12A     -2.608306
      13A     -1.331720    14A     -1.331360    15A     -1.331274
      16A     -0.790930    17A     -0.781237    18A     -0.231984
      19A     -0.210085    20A     -0.205789    21A     -0.203614
      22A     -0.192616    23A     -0.172772

  @DF-RHF Final Energy: -1081.05980562573905

   => Energetics <=

    Nuclear Repulsion Energy =            129.1301189397955511
    One-Electron Energy =               -1768.9213134919189088
    Two-Electron Energy =                 558.7313889263843976
    Total Energy =                      -1081.0598056257390454
 Dipole X            :        -79.8693545           76.1403745           -3.7289800
 Dipole Y            :        -79.8693545           76.1403745           -3.7289800
 Dipole Z            :         -0.0000000            0.0000000           -0.0000000
 Magnitude           :                                                    5.2735741
  Basis Set: (AUG-CC-PVTZ AUX)
    Blend: AUG-CC-PVTZ-RI + DEF2-QZVPP-RI
	 Reference Energy          =   -1081.0598056257390454 [Eh]
	 Singles Energy            =      -0.0000000000000000 [Eh]
	 Same-Spin Energy          =      -0.1311795689665491 [Eh]
	 Opposite-Spin Energy      =      -0.3736055036946389 [Eh]
	 Correlation Energy        =      -0.5047850726611880 [Eh]
	 Total Energy              =   -1081.5645906984002522 [Eh]

	 ================> DF-SCS-MP2 Energies <==================
	-----------------------------------------------------------
	 SCS Same-Spin Scale       =       0.3333333333333333 [-]
	 SCS Opposite-Spin Scale   =       1.2000000000000000 [-]
	 SCS Same-Spin Energy      =      -0.0437265229888497 [Eh]
	 SCS Opposite-Spin Energy  =      -0.4483266044335667 [Eh]
	 SCS Correlation Energy    =      -0.4920531274224164 [Eh]
	 SCS Total Energy          =   -1081.5518587531614685 [Eh]
	-----------------------------------------------------------

*** Psi4 exiting successfully. Buy a developer a beer!
