                               Psi4 1.8.2 release

  ==> Input File <==

--------------------------------------------------------------------------
MEMORY 60 GB

molecule dimer {
-1 1
Na         0.000000     0.000000     0.000000
Cl         0.000000     2.370103     0.000000
Cl         2.370103     0.000000     0.000000

units ang
no_reorient
no_com
symmetry c1
}

set {
basis        aug-cc-pVTZ
scf_type     df
}

energy("mp2")
--------------------------------------------------------------------------

    Molecular point group: c1

    Geometry (in Angstrom), charge = -1, multiplicity = 1:

       Center              X                  Y                   Z               Mass
    ------------   -----------------  -----------------  -----------------  -----------------
         NA           0.000000000000     0.000000000000     0.000000000000    22.989769282000
         CL           0.000000000000     2.370103000000     0.000000000000    34.968852682000
         CL           2.370103000000     0.000000000000     0.000000000000    34.968852682000

  Charge       = -1
  Multiplicity = 1
  Basis Set: AUG-CC-PVTZ
    Blend: AUG-CC-PVTZ
  Basis Set: (AUG-CC-PVTZ AUX)
    Blend: AUG-CC-PVTZ-JKFIT + DEF2-UNIVERSAL-JKFIT

    Orbital Energies [Eh]
    ---------------------

    Doubly Occupied:

       1A   -104.545574     2A   -104.545574     3A    -40.280011
       4A    -10.271300     5A    -10.271297     6A     -7.737464
       7A     -7.737462     8A     -7.737249     9A     -7.737248
      10A     -7.737200    11A     -7.737200    12A     -2.608306
      13A     -1.331720    14A     -1.331360    15A     -1.331274
      16A     -0.790930    17A     -0.781237    18A     -0.231984
      19A     -0.210085    20A     -0.205789    21A     -0.203614
      22A     -0.192616    23A     -0.172772

  @DF-RHF Final Energy: -1081.05980562579998

   => Energetics <=

    Nuclear Repulsion Energy =            129.1301189397955511
    One-Electron Energy =               -1768.9213134919054937
    Two-Electron Energy =                 558.7313889263100464
    Total Energy =                      -1081.0598056257999815
 Dipole X            :        -79.8693545           76.1403745           -3.7289800
 Dipole Y            :        -79.8693545           76.1403745           -3.7289800
 Dipole Z            :          0.0000000            0.0000000            0.0000000
 Magnitude           :                                                    5.2735741
  Basis Set: (AUG-CC-PVTZ AUX)
    Blend: AUG-CC-PVTZ-RI + DEF2-QZVPP-RI
	 Reference Energy          =   -1081.0598056257999815 [Eh]
	 Singles Energy            =      -0.0000000000000000 [Eh]
	 Same-Spin Energy          =      -0.1311795689665874 [Eh]
	 Opposite-Spin Energy      =      -0.3736055036947353 [Eh]
	 Correlation Energy        =      -0.5047850726613228 [Eh]
	 Total Energy              =   -1081.5645906984614157 [Eh]

	 ================> DF-SCS-MP2 Energies <==================
	-----------------------------------------------------------
	 SCS Same-Spin Scale       =       0.3333333333333333 [-]
	 SCS Opposite-Spin Scale   =       1.2000000000000000 [-]
	 SCS Same-Spin Energy      =      -0.0437265229888625 [Eh]
	 SCS Opposite-Spin Energy  =      -0.4483266044336824 [Eh]
	 SCS Correlation Energy    =      -0.4920531274225449 [Eh]
	 SCS Total Energy          =   -1081.5518587532226320 [Eh]
	-----------------------------------------------------------

*** Psi4 exiting successfully. Buy a developer a beer!
