                               Psi4 1.8.2 release

  ==> Input File <==

--------------------------------------------------------------------------
MEMORY 60 GB

molecule dimer {
1 1
Br         0.000000     0.000000     0.000000
Na         0.000000     2.514159     0.000000
Na         2.765575     0.000000     0.000000

units ang
no_reorient
no_com
symmetry c1
}

set {
basis        aug-cc-pVTZ
scf_type     df
}

energy("mp2")
--------------------------------------------------------------------------

    Molecular point group: c1

    Geometry (in Angstrom), charge = 1, multiplicity = 1:

       Center              X                  Y                   Z               Mass
    ------------   -----------------  -----------------  -----------------  -----------------
         BR           0.000000000000     0.000000000000     0.000000000000    78.918337600000
         NA           0.000000000000     2.514159000000     0.000000000000    22.989769282000
         NA           2.765575000000     0.000000000000     0.000000000000    22.989769282000

  Charge       = 1
  Multiplicity = 1
  Basis Set: AUG-CC-PVTZ
    Blend: AUG-CC-PVTZ
  Basis Set: (AUG-CC-PVTZ AUX)
    Blend: AUG-CC-PVTZ-JKFIT + DEF2-UNIVERSAL-JKFIT

    Orbital Energies [Eh]
    ---------------------

    Doubly Occupied:

       1A   -490.093198     2A    -65.233705     3A    -58.588248
       4A    -58.588108     5A    -58.588074     6A    -40.677128
       7A    -40.654855     8A     -9.906358     9A     -7.514227
      10A     -7.513851    11A     -7.513177    12A     -3.256086
      13A     -3.256012    14A     -3.255311    15A     -3.254715
      16A     -3.254638    17A     -2.993899    18A     -2.975446
      19A     -1.717520    20A     -1.717014    21A     -1.716096
      22A     -1.698759    23A     -1.698394    24A     -1.698057
      25A     -1.069433    26A     -0.529737    27A     -0.526766
      28A     -0.511497

  @DF-RHF Final Energy: -2896.13140682323092

   => Energetics <=

    Nuclear Repulsion Energy =            171.8335152804503423
    One-Electron Energy =               -4375.9292296323183109
    Two-Electron Energy =                1307.9643075286369367
    Total Energy =                      -2896.1314068232313730
 Dipole X            :        -53.1817427           57.4879726            4.3062299
 Dipole Y            :        -48.4315916           52.2617914            3.8301998
 Dipole Z            :          0.0000000            0.0000000            0.0000000
 Magnitude           :                                                    5.7631629
  Basis Set: (AUG-CC-PVTZ AUX)
    Blend: AUG-CC-PVTZ-RI + DEF2-QZVPP-RI
	 Reference Energy          =   -2896.1314068232309182 [Eh]
	 Singles Energy            =      -0.0000000000000000 [Eh]
	 Same-Spin Energy          =      -0.0946780512965444 [Eh]
	 Opposite-Spin Energy      =      -0.2257708273794997 [Eh]
	 Correlation Energy        =      -0.3204488786760441 [Eh]
	 Total Energy              =   -2896.4518557019068794 [Eh]

	 ================> DF-SCS-MP2 Energies <==================
	-----------------------------------------------------------
	 SCS Same-Spin Scale       =       0.3333333333333333 [-]
	 SCS Opposite-Spin Scale   =       1.2000000000000000 [-]
	 SCS Same-Spin Energy      =      -0.0315593504321815 [Eh]
	 SCS Opposite-Spin Energy  =      -0.2709249928553996 [Eh]
	 SCS Correlation Energy    =      -0.3024843432875811 [Eh]
	 SCS Total Energy          =   -2896.4338911665186060 [Eh]
	-----------------------------------------------------------

*** Psi4 exiting successfully. Buy a developer a beer!
