                               Psi4 1.8.2 release

  ==> Input File <==

--------------------------------------------------------------------------
MEMORY 60 GB

molecule dimer {
1 1
Gh(Br)     0.000000     0.000000     0.000000
Na         0.000000     2.514159     0.000000
Gh(Na)     3.016991     0.000000     0.000000

units ang
no_reorient
no_com
symmetry c1
}

set {
basis        aug-cc-pVTZ
scf_type     df
}

energy("mp2")
--------------------------------------------------------------------------

    Molecular point group: c1

    Geometry (in Angstrom), charge = 1, multiplicity = 1:

       Center              X                  Y                   Z               Mass
    ------------   -----------------  -----------------  -----------------  -----------------
      Gh(BR)          0.000000000000     0.000000000000     0.000000000000    78.918337600000
         NA           0.000000000000     2.514159000000     0.000000000000    22.989769282000
      Gh(NA)          3.016991000000     0.000000000000     0.000000000000    22.989769282000

  Charge       = 1
  Multiplicity = 1
  Basis Set: AUG-CC-PVTZ
    Blend: AUG-CC-PVTZ
  Basis Set: (AUG-CC-PVTZ AUX)
    Blend: AUG-CC-PVTZ-JKFIT + DEF2-UNIVERSAL-JKFIT

    Orbital Energies [Eh]
    ---------------------

    Doubly Occupied:

       1A    -40.762866     2A     -3.074930     3A     -1.798194
       4A     -1.798117     5A     -1.798073

  @DF-RHF Final Energy:  -161.67604081229879

   => Energetics <=

    Nuclear Repulsion Energy =              0.0000000000000000
    One-Electron Energy =                -224.8877207525576694
    Two-Electron Energy =                  63.2116799402588541
    Total Energy =                       -161.6760408122988224
 Dipole X            :          0.0000860            0.0000000            0.0000860
 Dipole Y            :        -47.5113375           52.2617914            4.7504539
 Dipole Z            :          0.0000000            0.0000000            0.0000000
 Magnitude           :                                                    4.7504539
  Basis Set: (AUG-CC-PVTZ AUX)
    Blend: AUG-CC-PVTZ-RI + DEF2-QZVPP-RI
	 Reference Energy          =    -161.6760408122987940 [Eh]
	 Singles Energy            =      -0.0000000000000000 [Eh]
	 Same-Spin Energy          =      -0.0025975388355920 [Eh]
	 Opposite-Spin Energy      =      -0.0096606466248656 [Eh]
	 Correlation Energy        =      -0.0122581854604576 [Eh]
	 Total Energy              =    -161.6882989977592615 [Eh]

	 ================> DF-SCS-MP2 Energies <==================
	-----------------------------------------------------------
	 SCS Same-Spin Scale       =       0.3333333333333333 [-]
	 SCS Opposite-Spin Scale   =       1.2000000000000000 [-]
	 SCS Same-Spin Energy      =      -0.0008658462785307 [Eh]
	 SCS Opposite-Spin Energy  =      -0.0115927759498387 [Eh]
	 SCS Correlation Energy    =      -0.0124586222283694 [Eh]
	 SCS Total Energy          =    -161.6884994345271593 [Eh]
	-----------------------------------------------------------

*** Psi4 exiting successfully. Buy a developer a beer!
