                               Psi4 1.8.2 release

  ==> Input File <==

--------------------------------------------------------------------------
MEMORY 60 GB

molecule dimer {
1 1
Br         0.000000     0.000000     0.000000
Na         0.000000     2.514159     0.000000
Na         5.028318     0.000000     0.000000

units ang
no_reorient
no_com
symmetry c1
}

set {
basis        aug-cc-pVTZ
scf_type     df
}

energy("mp2")
--------------------------------------------------------------------------

    Molecular point group: c1

    Geometry (in Angstrom), charge = 1, multiplicity = 1:

       Center              X                  Y                   Z               Mass
    ------------   -----------------  -----------------  -----------------  -----------------
         BR           0.000000000000     0.000000000000     0.000000000000    78.918337600000
         NA           0.000000000000     2.514159000000     0.000000000000    22.989769282000
         NA           5.028318000000     0.000000000000     0.000000000000    22.989769282000

  Charge       = 1
  Multiplicity = 1
  Basis Set: AUG-CC-PVTZ
    Blend: AUG-CC-PVTZ
  Basis Set: (AUG-CC-PVTZ AUX)
    Blend: AUG-CC-PVTZ-JKFIT + DEF2-UNIVERSAL-JKFIT

    Orbital Energies [Eh]
    ---------------------

    Doubly Occupied:

       1A   -490.017627     2A    -65.158035     3A    -58.512538
       4A    -58.512471     5A    -58.512428     6A    -40.747518
       7A    -40.604393     8A     -9.830637     9A     -7.438454
      10A     -7.437986    11A     -7.437604    12A     -3.180179
      13A     -3.180081    14A     -3.179609    15A     -3.179181
      16A     -3.179114    17A     -3.059204    18A     -2.925392
      19A     -1.782514    20A     -1.782412    21A     -1.782134
      22A     -1.648321    23A     -1.648072    24A     -1.648045
      25A     -0.990318    26A     -0.454446    27A     -0.438639
      28A     -0.436599

  @DF-RHF Final Energy: -2896.09492731069531

   => Energetics <=

    Nuclear Repulsion Energy =            132.9411240775980048
    One-Electron Energy =               -4300.6642017470585415
    Two-Electron Energy =                1271.6281503587649695
    Total Energy =                      -2896.0949273106953115
 Dipole X            :        -95.4458532          104.5235828            9.0777296
 Dipole Y            :        -48.4936554           52.2617914            3.7681360
 Dipole Z            :          0.0000000            0.0000000            0.0000000
 Magnitude           :                                                    9.8287346
  Basis Set: (AUG-CC-PVTZ AUX)
    Blend: AUG-CC-PVTZ-RI + DEF2-QZVPP-RI
	 Reference Energy          =   -2896.0949273106953115 [Eh]
	 Singles Energy            =      -0.0000000000000000 [Eh]
	 Same-Spin Energy          =      -0.0931983872500354 [Eh]
	 Opposite-Spin Energy      =      -0.2223470806723599 [Eh]
	 Correlation Energy        =      -0.3155454679223954 [Eh]
	 Total Energy              =   -2896.4104727786175317 [Eh]

	 ================> DF-SCS-MP2 Energies <==================
	-----------------------------------------------------------
	 SCS Same-Spin Scale       =       0.3333333333333333 [-]
	 SCS Opposite-Spin Scale   =       1.2000000000000000 [-]
	 SCS Same-Spin Energy      =      -0.0310661290833451 [Eh]
	 SCS Opposite-Spin Energy  =      -0.2668164968068319 [Eh]
	 SCS Correlation Energy    =      -0.2978826258901771 [Eh]
	 SCS Total Energy          =   -2896.3928099365853086 [Eh]
	-----------------------------------------------------------

*** Psi4 exiting successfully. Buy a developer a beer!
