                               Psi4 1.8.2 release

  ==> Input File <==

--------------------------------------------------------------------------
MEMORY 60 GB

molecule dimer {
-1 1
Br         0.000000     0.000000     0.000000
Gh(Na)     0.000000     2.514159     0.000000
Gh(Na)     2.514159     0.000000     0.000000

units ang
no_reorient
no_com
symmetry c1
}

set {
basis        aug-cc-pVTZ
scf_type     df
}

energy("mp2")
--------------------------------------------------------------------------

    Molecular point group: c1

    Geometry (in Angstrom), charge = -1, multiplicity = 1:

       Center              X                  Y                   Z               Mass
    ------------   -----------------  -----------------  -----------------  -----------------
         BR           0.000000000000     0.000000000000     0.000000000000    78.918337600000
      Gh(NA)          0.000000000000     2.514159000000     0.000000000000    22.989769282000
      Gh(NA)          2.514159000000     0.000000000000     0.000000000000    22.989769282000

  Charge       = -1
  Multiplicity = 1
  Basis Set: AUG-CC-PVTZ
    Blend: AUG-CC-PVTZ
  Basis Set: (AUG-CC-PVTZ AUX)
    Blend: AUG-CC-PVTZ-JKFIT + DEF2-UNIVERSAL-JKFIT

    Orbital Energies [Eh]
    ---------------------

    Doubly Occupied:

       1A   -489.721414     2A    -64.861201     3A    -58.215716
       4A    -58.215711     5A    -58.215711     6A     -9.533079
       7A     -7.140427     8A     -7.140415     9A     -7.140412
      10A     -2.882113    11A     -2.882112    12A     -2.882109
      13A     -2.882106    14A     -2.882090    15A     -0.685992
      16A     -0.139335    17A     -0.139335    18A     -0.139334

  @DF-RHF Final Energy: -2572.53370184809592

   => Energetics <=

    Nuclear Repulsion Energy =              0.0000000000000000
    One-Electron Energy =               -3593.6701765201628405
    Two-Electron Energy =                1021.1364746720669245
    Total Energy =                      -2572.5337018480959159
 Dipole X            :          0.0003272            0.0000000            0.0003272
 Dipole Y            :          0.0003272            0.0000000            0.0003272
 Dipole Z            :          0.0000000            0.0000000            0.0000000
 Magnitude           :                                                    0.0004628
  Basis Set: (AUG-CC-PVTZ AUX)
    Blend: AUG-CC-PVTZ-RI + DEF2-QZVPP-RI
	 Reference Energy          =   -2572.5337018480959159 [Eh]
	 Singles Energy            =      -0.0000000000000000 [Eh]
	 Same-Spin Energy          =      -0.0893257575249508 [Eh]
	 Opposite-Spin Energy      =      -0.2071167812800971 [Eh]
	 Correlation Energy        =      -0.2964425388050478 [Eh]
	 Total Energy              =   -2572.8301443869008835 [Eh]

	 ================> DF-SCS-MP2 Energies <==================
	-----------------------------------------------------------
	 SCS Same-Spin Scale       =       0.3333333333333333 [-]
	 SCS Opposite-Spin Scale   =       1.2000000000000000 [-]
	 SCS Same-Spin Energy      =      -0.0297752525083169 [Eh]
	 SCS Opposite-Spin Energy  =      -0.2485401375361165 [Eh]
	 SCS Correlation Energy    =      -0.2783153900444334 [Eh]
	 SCS Total Energy          =   -2572.8120172381404700 [Eh]
	-----------------------------------------------------------

*** Psi4 exiting successfully. Buy a developer a beer!
