                               Psi4 1.8.2 release

  ==> Input File <==

--------------------------------------------------------------------------
MEMORY 60 GB

molecule dimer {
-1 1
Br         0.000000     0.000000     0.000000
Gh(Na)     0.000000     2.514159     0.000000
Gh(Na)     2.765575     0.000000     0.000000

units ang
no_reorient
no_com
symmetry c1
}

set {
basis        aug-cc-pVTZ
scf_type     df
}

energy("mp2")
--------------------------------------------------------------------------

    Molecular point group: c1

    Geometry (in Angstrom), charge = -1, multiplicity = 1:

       Center              X                  Y                   Z               Mass
    ------------   -----------------  -----------------  -----------------  -----------------
         BR           0.000000000000     0.000000000000     0.000000000000    78.918337600000
      Gh(NA)          0.000000000000     2.514159000000     0.000000000000    22.989769282000
      Gh(NA)          2.765575000000     0.000000000000     0.000000000000    22.989769282000

  Charge       = -1
  Multiplicity = 1
  Basis Set: AUG-CC-PVTZ
    Blend: AUG-CC-PVTZ
  Basis Set: (AUG-CC-PVTZ AUX)
    Blend: AUG-CC-PVTZ-JKFIT + DEF2-UNIVERSAL-JKFIT

    Orbital Energies [Eh]
    ---------------------

    Doubly Occupied:

       1A   -489.721325     2A    -64.861135     3A    -58.215646
       4A    -58.215643     5A    -58.215641     6A     -9.533058
       7A     -7.140407     8A     -7.140396     9A     -7.140391
      10A     -2.882091    11A     -2.882089    12A     -2.882087
      13A     -2.882084    14A     -2.882071    15A     -0.685992
      16A     -0.139335    17A     -0.139335    18A     -0.139334

  @DF-RHF Final Energy: -2572.53369940919583

   => Energetics <=

    Nuclear Repulsion Energy =              0.0000000000000000
    One-Electron Energy =               -3593.6712783001539719
    Two-Electron Energy =                1021.1375788909579114
    Total Energy =                      -2572.5336994091958331
 Dipole X            :          0.0002579            0.0000000            0.0002579
 Dipole Y            :          0.0003318            0.0000000            0.0003318
 Dipole Z            :          0.0000000            0.0000000            0.0000000
 Magnitude           :                                                    0.0004202
  Basis Set: (AUG-CC-PVTZ AUX)
    Blend: AUG-CC-PVTZ-RI + DEF2-QZVPP-RI
	 Reference Energy          =   -2572.5336994091958331 [Eh]
	 Singles Energy            =      -0.0000000000000000 [Eh]
	 Same-Spin Energy          =      -0.0890793152616819 [Eh]
	 Opposite-Spin Energy      =      -0.2065513434837559 [Eh]
	 Correlation Energy        =      -0.2956306587454378 [Eh]
	 Total Energy              =   -2572.8293300679411004 [Eh]

	 ================> DF-SCS-MP2 Energies <==================
	-----------------------------------------------------------
	 SCS Same-Spin Scale       =       0.3333333333333333 [-]
	 SCS Opposite-Spin Scale   =       1.2000000000000000 [-]
	 SCS Same-Spin Energy      =      -0.0296931050872273 [Eh]
	 SCS Opposite-Spin Energy  =      -0.2478616121805071 [Eh]
	 SCS Correlation Energy    =      -0.2775547172677344 [Eh]
	 SCS Total Energy          =   -2572.8112541264636093 [Eh]
	-----------------------------------------------------------

*** Psi4 exiting successfully. Buy a developer a beer!
