                               Psi4 1.8.2 release

  ==> Input File <==

--------------------------------------------------------------------------
MEMORY 60 GB

molecule dimer {
-1 1
Br         0.000000     0.000000     0.000000
Gh(Na)     0.000000     2.514159     0.000000
Gh(Na)     3.771238     0.000000     0.000000

units ang
no_reorient
no_com
symmetry c1
}

set {
basis        aug-cc-pVTZ
scf_type     df
}

energy("mp2")
--------------------------------------------------------------------------

    Molecular point group: c1

    Geometry (in Angstrom), charge = -1, multiplicity = 1:

       Center              X                  Y                   Z               Mass
    ------------   -----------------  -----------------  -----------------  -----------------
         BR           0.000000000000     0.000000000000     0.000000000000    78.918337600000
      Gh(NA)          0.000000000000     2.514159000000     0.000000000000    22.989769282000
      Gh(NA)          3.771238000000     0.000000000000     0.000000000000    22.989769282000

  Charge       = -1
  Multiplicity = 1
  Basis Set: AUG-CC-PVTZ
    Blend: AUG-CC-PVTZ
  Basis Set: (AUG-CC-PVTZ AUX)
    Blend: AUG-CC-PVTZ-JKFIT + DEF2-UNIVERSAL-JKFIT

    Orbital Energies [Eh]
    ---------------------

    Doubly Occupied:

       1A   -489.721147     2A    -64.861007     3A    -58.215510
       4A    -58.215509     5A    -58.215505     6A     -9.533019
       7A     -7.140366     8A     -7.140361     9A     -7.140353
      10A     -2.882051    11A     -2.882047    12A     -2.882043
      13A     -2.882043    14A     -2.882032    15A     -0.685994
      16A     -0.139338    17A     -0.139337    18A     -0.139334

  @DF-RHF Final Energy: -2572.53369311588176

   => Energetics <=

    Nuclear Repulsion Energy =              0.0000000000000000
    One-Electron Energy =               -3593.6733921064123933
    Two-Electron Energy =                1021.1396989905306327
    Total Energy =                      -2572.5336931158817606
 Dipole X            :          0.0001088            0.0000000            0.0001088
 Dipole Y            :          0.0003997            0.0000000            0.0003997
 Dipole Z            :          0.0000000            0.0000000            0.0000000
 Magnitude           :                                                    0.0004142
  Basis Set: (AUG-CC-PVTZ AUX)
    Blend: AUG-CC-PVTZ-RI + DEF2-QZVPP-RI
	 Reference Energy          =   -2572.5336931158817606 [Eh]
	 Singles Energy            =      -0.0000000000000000 [Eh]
	 Same-Spin Energy          =      -0.0885718350873572 [Eh]
	 Opposite-Spin Energy      =      -0.2052894168658941 [Eh]
	 Correlation Energy        =      -0.2938612519532513 [Eh]
	 Total Energy              =   -2572.8275543678350914 [Eh]

	 ================> DF-SCS-MP2 Energies <==================
	-----------------------------------------------------------
	 SCS Same-Spin Scale       =       0.3333333333333333 [-]
	 SCS Opposite-Spin Scale   =       1.2000000000000000 [-]
	 SCS Same-Spin Energy      =      -0.0295239450291191 [Eh]
	 SCS Opposite-Spin Energy  =      -0.2463473002390729 [Eh]
	 SCS Correlation Energy    =      -0.2758712452681920 [Eh]
	 SCS Total Energy          =   -2572.8095643611500236 [Eh]
	-----------------------------------------------------------

*** Psi4 exiting successfully. Buy a developer a beer!
