                               Psi4 1.8.2 release

  ==> Input File <==

--------------------------------------------------------------------------
MEMORY 60 GB

molecule dimer {
-1 1
Br     0.000000     0.000000     0.000000
--
1 1
Na     0.000000     2.514159     0.000000
--
1 1
Na     3.519823     0.000000     0.000000

units ang
no_reorient
no_com
symmetry c1
}

set {
basis        aug-cc-pVTZ
scf_type     df
}

energy("mp2", bsse_type="cp")
--------------------------------------------------------------------------

                               Psi4 1.8.2 release
    Molecular point group: c1
  Charge       = -1
  Multiplicity = 1
  Basis Set: AUG-CC-PVTZ
    Blend: AUG-CC-PVTZ
  Basis Set: (AUG-CC-PVTZ AUX)
    Blend: AUG-CC-PVTZ-JKFIT + DEF2-UNIVERSAL-JKFIT
  @DF-RHF Final Energy: -2572.53369396006701
    Total Energy =                      -2572.5336939600665573
 Dipole X            :          0.0001359            0.0000000            0.0001359
 Dipole Y            :          0.0003811            0.0000000            0.0003811
 Dipole Z            :         -0.0000000            0.0000000           -0.0000000
 Magnitude           :                                                    0.0004046
  Basis Set: (AUG-CC-PVTZ AUX)
    Blend: AUG-CC-PVTZ-RI + DEF2-QZVPP-RI
	 Reference Energy          =   -2572.5336939600670121 [Eh]
	 Singles Energy            =      -0.0000000000000000 [Eh]
	 Same-Spin Energy          =      -0.0886480903511406 [Eh]
	 Opposite-Spin Energy      =      -0.2054795993221161 [Eh]
	 Correlation Energy        =      -0.2941276896732568 [Eh]
	 Total Energy              =   -2572.8278216497401445 [Eh]
	 SCS Total Energy          =   -2572.8098188427038622 [Eh]
                               Psi4 1.8.2 release
    Molecular point group: c1
  Basis Set: AUG-CC-PVTZ
    Blend: AUG-CC-PVTZ
  Basis Set: (AUG-CC-PVTZ AUX)
    Blend: AUG-CC-PVTZ-JKFIT + DEF2-UNIVERSAL-JKFIT
  @DF-RHF Final Energy:  -161.67603953671767
    Total Energy =                       -161.6760395367176670
  Basis Set: (AUG-CC-PVTZ AUX)
                               Psi4 1.8.2 release
  @DF-RHF Final Energy:  -323.22982293680849
    Total Energy =                       -323.2298229368084890
                               Psi4 1.8.2 release
  @DF-RHF Final Energy: -2734.36972754457884
    Total Energy =                      -2734.3697275445783816
                               Psi4 1.8.2 release
  @DF-RHF Final Energy: -2734.40590021759408
    Total Energy =                      -2734.4059002175945352
                               Psi4 1.8.2 release
  Multiplicity = 1
  @DF-RHF Final Energy:  -161.67603353025865
    Total Energy =                       -161.6760335302586213
	 Singles Energy            =      -0.0000000000000000 [Eh]
	 Same-Spin Energy          =      -0.0021915131430139 [Eh]
	 Opposite-Spin Energy      =      -0.0085721060085890 [Eh]
	 Correlation Energy        =      -0.0107636191516029 [Eh]
	 Total Energy              =    -161.6867971494102392 [Eh]
	 SCS Total Energy          =    -161.6870505618499578 [Eh]
                               Psi4 1.8.2 release
    Molecular point group: c1

    Geometry (in Bohr), charge = 1, multiplicity = 1:

       Center              X                  Y                   Z               Mass
    ------------   -----------------  -----------------  -----------------  -----------------
         BR           0.000000000000     0.000000000000     0.000000000000    78.918337600000
         NA           0.000000000000     4.751071945855     0.000000000000    22.989769282000
         NA           6.651501480087     0.000000000000     0.000000000000    22.989769282000

  Charge       = 1
  Multiplicity = 1
  Basis Set: AUG-CC-PVTZ
    Blend: AUG-CC-PVTZ
  Basis Set: (AUG-CC-PVTZ AUX)
    Blend: AUG-CC-PVTZ-JKFIT + DEF2-UNIVERSAL-JKFIT

    Orbital Energies [Eh]
    ---------------------

    Doubly Occupied:

       1A   -490.064801     2A    -65.205085     3A    -58.559658
       4A    -58.559489     5A    -58.559440     6A    -40.713791
       7A    -40.635393     8A     -9.877562     9A     -7.485385
      10A     -7.485008    11A     -7.484306    12A     -3.227329
      13A     -3.227235    14A     -3.226504    15A     -3.225854
      16A     -3.225768    17A     -3.026635    18A     -2.956161
      19A     -1.750260    20A     -1.749995    21A     -1.748941
      22A     -1.679256    23A     -1.679037    24A     -1.678811
      25A     -1.036576    26A     -0.499060    27A     -0.488428
      28A     -0.481161

  @DF-RHF Final Energy: -2896.11662145102309

   => Energetics <=

    Nuclear Repulsion Energy =            153.7189487381542108
    One-Electron Energy =               -4340.5972905029038884
    Two-Electron Energy =                1290.7617203137269826
    Total Energy =                      -2896.1166214510230930
 Dipole X            :        -67.3139638           73.1665163            5.8525525
 Dipole Y            :        -48.4638881           52.2617914            3.7979033
 Dipole Z            :         -0.0000000            0.0000000           -0.0000000
 Magnitude           :                                                    6.9768503
  Basis Set: (AUG-CC-PVTZ AUX)
    Blend: AUG-CC-PVTZ-RI + DEF2-QZVPP-RI
	 Reference Energy          =   -2896.1166214510230930 [Eh]
	 Singles Energy            =      -0.0000000000000000 [Eh]
	 Same-Spin Energy          =      -0.0938203284491307 [Eh]
	 Opposite-Spin Energy      =      -0.2240407474827444 [Eh]
	 Correlation Energy        =      -0.3178610759318752 [Eh]
	 Total Energy              =   -2896.4344825269549801 [Eh]

	 ================> DF-SCS-MP2 Energies <==================
	-----------------------------------------------------------
	 SCS Same-Spin Scale       =       0.3333333333333333 [-]
	 SCS Opposite-Spin Scale   =       1.2000000000000000 [-]
	 SCS Same-Spin Energy      =      -0.0312734428163769 [Eh]
	 SCS Opposite-Spin Energy  =      -0.2688488969792933 [Eh]
	 SCS Correlation Energy    =      -0.3001223397956702 [Eh]
	 SCS Total Energy          =   -2896.4167437908186002 [Eh]
	-----------------------------------------------------------

*** Psi4 exiting successfully. Buy a developer a beer!
