                               Psi4 1.8.2 release

  ==> Input File <==

--------------------------------------------------------------------------
MEMORY 60 GB

molecule dimer {
-1 1
Br         0.000000     0.000000     0.000000
Gh(Na)     0.000000     2.514159     0.000000
Gh(Na)     5.028318     0.000000     0.000000

units ang
no_reorient
no_com
symmetry c1
}

set {
basis        aug-cc-pVTZ
scf_type     df
}

energy("mp2")
--------------------------------------------------------------------------

    Molecular point group: c1

    Geometry (in Angstrom), charge = -1, multiplicity = 1:

       Center              X                  Y                   Z               Mass
    ------------   -----------------  -----------------  -----------------  -----------------
         BR           0.000000000000     0.000000000000     0.000000000000    78.918337600000
      Gh(NA)          0.000000000000     2.514159000000     0.000000000000    22.989769282000
      Gh(NA)          5.028318000000     0.000000000000     0.000000000000    22.989769282000

  Charge       = -1
  Multiplicity = 1
  Basis Set: AUG-CC-PVTZ
    Blend: AUG-CC-PVTZ
  Basis Set: (AUG-CC-PVTZ AUX)
    Blend: AUG-CC-PVTZ-JKFIT + DEF2-UNIVERSAL-JKFIT

    Orbital Energies [Eh]
    ---------------------

    Doubly Occupied:

       1A   -489.721063     2A    -64.860948     3A    -58.215448
       4A    -58.215448     5A    -58.215443     6A     -9.533003
       7A     -7.140350     8A     -7.140348     9A     -7.140337
      10A     -2.882034    11A     -2.882030    12A     -2.882025
      13A     -2.882025    14A     -2.882014    15A     -0.685997
      16A     -0.139339    17A     -0.139338    18A     -0.139337

  @DF-RHF Final Energy: -2572.53368977101672

   => Energetics <=

    Nuclear Repulsion Energy =              0.0000000000000000
    One-Electron Energy =               -3593.6743234369891979
    Two-Electron Energy =                1021.1406336659722456
    Total Energy =                      -2572.5336897710167250
 Dipole X            :          0.0000710            0.0000000            0.0000710
 Dipole Y            :          0.0004788            0.0000000            0.0004788
 Dipole Z            :         -0.0000000            0.0000000           -0.0000000
 Magnitude           :                                                    0.0004841
  Basis Set: (AUG-CC-PVTZ AUX)
    Blend: AUG-CC-PVTZ-RI + DEF2-QZVPP-RI
	 Reference Energy          =   -2572.5336897710167250 [Eh]
	 Singles Energy            =      -0.0000000000000000 [Eh]
	 Same-Spin Energy          =      -0.0883824816105007 [Eh]
	 Opposite-Spin Energy      =      -0.2048523954496975 [Eh]
	 Correlation Energy        =      -0.2932348770601982 [Eh]
	 Total Energy              =   -2572.8269246480767833 [Eh]

	 ================> DF-SCS-MP2 Energies <==================
	-----------------------------------------------------------
	 SCS Same-Spin Scale       =       0.3333333333333333 [-]
	 SCS Opposite-Spin Scale   =       1.2000000000000000 [-]
	 SCS Same-Spin Energy      =      -0.0294608272035002 [Eh]
	 SCS Opposite-Spin Energy  =      -0.2458228745396370 [Eh]
	 SCS Correlation Energy    =      -0.2752837017431372 [Eh]
	 SCS Total Energy          =   -2572.8089734727600444 [Eh]
	-----------------------------------------------------------

*** Psi4 exiting successfully. Buy a developer a beer!
