                               Psi4 1.8.2 release

  ==> Input File <==

--------------------------------------------------------------------------
MEMORY 60 GB

molecule dimer {
1 1
Gh(Br)     0.000000     0.000000     0.000000
Gh(Na)     0.000000     2.514159     0.000000
Na         2.514159     0.000000     0.000000

units ang
no_reorient
no_com
symmetry c1
}

set {
basis        aug-cc-pVTZ
scf_type     df
}

energy("mp2")
--------------------------------------------------------------------------

    Molecular point group: c1

    Geometry (in Angstrom), charge = 1, multiplicity = 1:

       Center              X                  Y                   Z               Mass
    ------------   -----------------  -----------------  -----------------  -----------------
      Gh(BR)          0.000000000000     0.000000000000     0.000000000000    78.918337600000
      Gh(NA)          0.000000000000     2.514159000000     0.000000000000    22.989769282000
         NA           2.514159000000     0.000000000000     0.000000000000    22.989769282000

  Charge       = 1
  Multiplicity = 1
  Basis Set: AUG-CC-PVTZ
    Blend: AUG-CC-PVTZ
  Basis Set: (AUG-CC-PVTZ AUX)
    Blend: AUG-CC-PVTZ-JKFIT + DEF2-UNIVERSAL-JKFIT

    Orbital Energies [Eh]
    ---------------------

    Doubly Occupied:

       1A    -40.762737     2A     -3.074868     3A     -1.798135
       4A     -1.798073     5A     -1.798013

  @DF-RHF Final Energy:  -161.67604282911256

   => Energetics <=

    Nuclear Repulsion Energy =              0.0000000000000000
    One-Electron Energy =                -224.8884358349810668
    Two-Electron Energy =                  63.2123930058684920
    Total Energy =                       -161.6760428291125891
 Dipole X            :        -47.5113447           52.2617914            4.7504467
 Dipole Y            :          0.0001143            0.0000000            0.0001143
 Dipole Z            :         -0.0000000            0.0000000           -0.0000000
 Magnitude           :                                                    4.7504468
  Basis Set: (AUG-CC-PVTZ AUX)
    Blend: AUG-CC-PVTZ-RI + DEF2-QZVPP-RI
	 Reference Energy          =    -161.6760428291125606 [Eh]
	 Singles Energy            =      -0.0000000000000000 [Eh]
	 Same-Spin Energy          =      -0.0026727078452388 [Eh]
	 Opposite-Spin Energy      =      -0.0098522173908332 [Eh]
	 Correlation Energy        =      -0.0125249252360721 [Eh]
	 Total Energy              =    -161.6885677543486395 [Eh]

	 ================> DF-SCS-MP2 Energies <==================
	-----------------------------------------------------------
	 SCS Same-Spin Scale       =       0.3333333333333333 [-]
	 SCS Opposite-Spin Scale   =       1.2000000000000000 [-]
	 SCS Same-Spin Energy      =      -0.0008909026150796 [Eh]
	 SCS Opposite-Spin Energy  =      -0.0118226608689999 [Eh]
	 SCS Correlation Energy    =      -0.0127135634840795 [Eh]
	 SCS Total Energy          =    -161.6887563925966447 [Eh]
	-----------------------------------------------------------

*** Psi4 exiting successfully. Buy a developer a beer!
