                               Psi4 1.8.2 release

  ==> Input File <==

--------------------------------------------------------------------------
MEMORY 60 GB

molecule dimer {
1 1
Gh(Br)     0.000000     0.000000     0.000000
Na         0.000000     2.514159     0.000000
Gh(Na)     3.519823     0.000000     0.000000

units ang
no_reorient
no_com
symmetry c1
}

set {
basis        aug-cc-pVTZ
scf_type     df
}

energy("mp2")
--------------------------------------------------------------------------

    Molecular point group: c1

    Geometry (in Angstrom), charge = 1, multiplicity = 1:

       Center              X                  Y                   Z               Mass
    ------------   -----------------  -----------------  -----------------  -----------------
      Gh(BR)          0.000000000000     0.000000000000     0.000000000000    78.918337600000
         NA           0.000000000000     2.514159000000     0.000000000000    22.989769282000
      Gh(NA)          3.519823000000     0.000000000000     0.000000000000    22.989769282000

  Charge       = 1
  Multiplicity = 1
  Basis Set: AUG-CC-PVTZ
    Blend: AUG-CC-PVTZ
  Basis Set: (AUG-CC-PVTZ AUX)
    Blend: AUG-CC-PVTZ-JKFIT + DEF2-UNIVERSAL-JKFIT

    Orbital Energies [Eh]
    ---------------------

    Doubly Occupied:

       1A    -40.762953     2A     -3.074970     3A     -1.798232
       4A     -1.798145     5A     -1.798114

  @DF-RHF Final Energy:  -161.67603953671752

   => Energetics <=

    Nuclear Repulsion Energy =              0.0000000000000000
    One-Electron Energy =                -224.8872518496061161
    Two-Electron Energy =                  63.2112123128885912
    Total Energy =                       -161.6760395367175249
 Dipole X            :          0.0000745            0.0000000            0.0000745
 Dipole Y            :        -47.5113332           52.2617914            4.7504582
 Dipole Z            :          0.0000000            0.0000000            0.0000000
 Magnitude           :                                                    4.7504582
  Basis Set: (AUG-CC-PVTZ AUX)
    Blend: AUG-CC-PVTZ-RI + DEF2-QZVPP-RI
	 Reference Energy          =    -161.6760395367175249 [Eh]
	 Singles Energy            =      -0.0000000000000000 [Eh]
	 Same-Spin Energy          =      -0.0025478515248048 [Eh]
	 Opposite-Spin Energy      =      -0.0095328397323061 [Eh]
	 Correlation Energy        =      -0.0120806912571109 [Eh]
	 Total Energy              =    -161.6881202279746219 [Eh]

	 ================> DF-SCS-MP2 Energies <==================
	-----------------------------------------------------------
	 SCS Same-Spin Scale       =       0.3333333333333333 [-]
	 SCS Opposite-Spin Scale   =       1.2000000000000000 [-]
	 SCS Same-Spin Energy      =      -0.0008492838416016 [Eh]
	 SCS Opposite-Spin Energy  =      -0.0114394076787674 [Eh]
	 SCS Correlation Energy    =      -0.0122886915203690 [Eh]
	 SCS Total Energy          =    -161.6883282282379071 [Eh]
	-----------------------------------------------------------

*** Psi4 exiting successfully. Buy a developer a beer!
