                               Psi4 1.8.2 release

  ==> Input File <==

--------------------------------------------------------------------------
MEMORY 60 GB

molecule dimer {
-1 1
Br         0.000000     0.000000     0.000000
Gh(Na)     0.000000     2.514159     0.000000
Gh(Na)     3.016991     0.000000     0.000000

units ang
no_reorient
no_com
symmetry c1
}

set {
basis        aug-cc-pVTZ
scf_type     df
}

energy("mp2")
--------------------------------------------------------------------------

    Molecular point group: c1

    Geometry (in Angstrom), charge = -1, multiplicity = 1:

       Center              X                  Y                   Z               Mass
    ------------   -----------------  -----------------  -----------------  -----------------
         BR           0.000000000000     0.000000000000     0.000000000000    78.918337600000
      Gh(NA)          0.000000000000     2.514159000000     0.000000000000    22.989769282000
      Gh(NA)          3.016991000000     0.000000000000     0.000000000000    22.989769282000

  Charge       = -1
  Multiplicity = 1
  Basis Set: AUG-CC-PVTZ
    Blend: AUG-CC-PVTZ
  Basis Set: (AUG-CC-PVTZ AUX)
    Blend: AUG-CC-PVTZ-JKFIT + DEF2-UNIVERSAL-JKFIT

    Orbital Energies [Eh]
    ---------------------

    Doubly Occupied:

       1A   -489.721260     2A    -64.861086     3A    -58.215594
       4A    -58.215592     5A    -58.215588     6A     -9.533043
       7A     -7.140390     8A     -7.140381     9A     -7.140375
      10A     -2.882075    11A     -2.882073    12A     -2.882069
      13A     -2.882068    14A     -2.882057    15A     -0.685992
      16A     -0.139336    17A     -0.139335    18A     -0.139334

  @DF-RHF Final Energy: -2572.53369682999073

   => Energetics <=

    Nuclear Repulsion Energy =              0.0000000000000000
    One-Electron Energy =               -3593.6720987206936115
    Two-Electron Energy =                1021.1384018907024256
    Total Energy =                      -2572.5336968299911860
 Dipole X            :          0.0002162            0.0000000            0.0002162
 Dipole Y            :          0.0003488            0.0000000            0.0003488
 Dipole Z            :          0.0000000            0.0000000            0.0000000
 Magnitude           :                                                    0.0004104
  Basis Set: (AUG-CC-PVTZ AUX)
    Blend: AUG-CC-PVTZ-RI + DEF2-QZVPP-RI
	 Reference Energy          =   -2572.5336968299907312 [Eh]
	 Singles Energy            =      -0.0000000000000000 [Eh]
	 Same-Spin Energy          =      -0.0888826136070813 [Eh]
	 Opposite-Spin Energy      =      -0.2060750813145326 [Eh]
	 Correlation Energy        =      -0.2949576949216139 [Eh]
	 Total Energy              =   -2572.8286545249125084 [Eh]

	 ================> DF-SCS-MP2 Energies <==================
	-----------------------------------------------------------
	 SCS Same-Spin Scale       =       0.3333333333333333 [-]
	 SCS Opposite-Spin Scale   =       1.2000000000000000 [-]
	 SCS Same-Spin Energy      =      -0.0296275378690271 [Eh]
	 SCS Opposite-Spin Energy  =      -0.2472900975774392 [Eh]
	 SCS Correlation Energy    =      -0.2769176354464662 [Eh]
	 SCS Total Energy          =   -2572.8106144654370837 [Eh]
	-----------------------------------------------------------

*** Psi4 exiting successfully. Buy a developer a beer!
