                               Psi4 1.8.2 release

  ==> Input File <==

--------------------------------------------------------------------------
MEMORY 60 GB

molecule dimer {
1 1
Br         0.000000     0.000000     0.000000
Na         0.000000     2.514159     0.000000
Na         3.268407     0.000000     0.000000

units ang
no_reorient
no_com
symmetry c1
}

set {
basis        aug-cc-pVTZ
scf_type     df
}

energy("mp2")
--------------------------------------------------------------------------

    Molecular point group: c1

    Geometry (in Angstrom), charge = 1, multiplicity = 1:

       Center              X                  Y                   Z               Mass
    ------------   -----------------  -----------------  -----------------  -----------------
         BR           0.000000000000     0.000000000000     0.000000000000    78.918337600000
         NA           0.000000000000     2.514159000000     0.000000000000    22.989769282000
         NA           3.268407000000     0.000000000000     0.000000000000    22.989769282000

  Charge       = 1
  Multiplicity = 1
  Basis Set: AUG-CC-PVTZ
    Blend: AUG-CC-PVTZ
  Basis Set: (AUG-CC-PVTZ AUX)
    Blend: AUG-CC-PVTZ-JKFIT + DEF2-UNIVERSAL-JKFIT

    Orbital Energies [Eh]
    ---------------------

    Doubly Occupied:

       1A   -490.074539     2A    -65.214823     3A    -58.569401
       4A    -58.569226     5A    -58.569179     6A    -40.703239
       7A    -40.641685     8A     -9.887291     9A     -7.495139
      10A     -7.494734    11A     -7.494026    12A     -3.237094
      13A     -3.236982    14A     -3.236252    15A     -3.235550
      16A     -3.235471    17A     -3.016831    18A     -2.962398
      19A     -1.740520    20A     -1.740195    21A     -1.738983
      22A     -1.685550    23A     -1.685311    24A     -1.685038
      25A     -1.046841    26A     -0.508728    27A     -0.500381
      28A     -0.490800

  @DF-RHF Final Energy: -2896.12239016438434

   => Energetics <=

    Nuclear Repulsion Energy =            158.8965238545102636
    One-Electron Energy =               -4350.6454161632827891
    Two-Electron Energy =                1295.6265021443875867
    Total Energy =                      -2896.1223901643843419
 Dipole X            :        -62.6212149           67.9403351            5.3191202
 Dipole Y            :        -48.4546623           52.2617914            3.8071292
 Dipole Z            :          0.0000000            0.0000000            0.0000000
 Magnitude           :                                                    6.5411980
  Basis Set: (AUG-CC-PVTZ AUX)
    Blend: AUG-CC-PVTZ-RI + DEF2-QZVPP-RI
	 Reference Energy          =   -2896.1223901643843419 [Eh]
	 Singles Energy            =      -0.0000000000000000 [Eh]
	 Same-Spin Energy          =      -0.0940579393042522 [Eh]
	 Opposite-Spin Energy      =      -0.2246194257034749 [Eh]
	 Correlation Energy        =      -0.3186773650077270 [Eh]
	 Total Energy              =   -2896.4410675293920576 [Eh]

	 ================> DF-SCS-MP2 Energies <==================
	-----------------------------------------------------------
	 SCS Same-Spin Scale       =       0.3333333333333333 [-]
	 SCS Opposite-Spin Scale   =       1.2000000000000000 [-]
	 SCS Same-Spin Energy      =      -0.0313526464347507 [Eh]
	 SCS Opposite-Spin Energy  =      -0.2695433108441698 [Eh]
	 SCS Correlation Energy    =      -0.3008959572789205 [Eh]
	 SCS Total Energy          =   -2896.4232861216632955 [Eh]
	-----------------------------------------------------------

*** Psi4 exiting successfully. Buy a developer a beer!
