                               Psi4 1.8.2 release

  ==> Input File <==

--------------------------------------------------------------------------
MEMORY 60 GB

molecule dimer {
1 1
Gh(Br)     0.000000     0.000000     0.000000
Gh(Na)     0.000000     2.514159     0.000000
Na         3.016991     0.000000     0.000000

units ang
no_reorient
no_com
symmetry c1
}

set {
basis        aug-cc-pVTZ
scf_type     df
}

energy("mp2")
--------------------------------------------------------------------------

    Molecular point group: c1

    Geometry (in Angstrom), charge = 1, multiplicity = 1:

       Center              X                  Y                   Z               Mass
    ------------   -----------------  -----------------  -----------------  -----------------
      Gh(BR)          0.000000000000     0.000000000000     0.000000000000    78.918337600000
      Gh(NA)          0.000000000000     2.514159000000     0.000000000000    22.989769282000
         NA           3.016991000000     0.000000000000     0.000000000000    22.989769282000

  Charge       = 1
  Multiplicity = 1
  Basis Set: AUG-CC-PVTZ
    Blend: AUG-CC-PVTZ
  Basis Set: (AUG-CC-PVTZ AUX)
    Blend: AUG-CC-PVTZ-JKFIT + DEF2-UNIVERSAL-JKFIT

    Orbital Energies [Eh]
    ---------------------

    Doubly Occupied:

       1A    -40.762962     2A     -3.074976     3A     -1.798242
       4A     -1.798151     5A     -1.798113

  @DF-RHF Final Energy:  -161.67603653822664

   => Energetics <=

    Nuclear Repulsion Energy =              0.0000000000000000
    One-Electron Energy =                -224.8871867728115319
    Two-Electron Energy =                  63.2111502345849132
    Total Energy =                       -161.6760365382266116
 Dipole X            :        -57.0135291           62.7141538            5.7006247
 Dipole Y            :          0.0000914            0.0000000            0.0000914
 Dipole Z            :         -0.0000000            0.0000000           -0.0000000
 Magnitude           :                                                    5.7006247
  Basis Set: (AUG-CC-PVTZ AUX)
    Blend: AUG-CC-PVTZ-RI + DEF2-QZVPP-RI
	 Reference Energy          =    -161.6760365382266400 [Eh]
	 Singles Energy            =      -0.0000000000000000 [Eh]
	 Same-Spin Energy          =      -0.0023826251399347 [Eh]
	 Opposite-Spin Energy      =      -0.0091209758204435 [Eh]
	 Correlation Energy        =      -0.0115036009603781 [Eh]
	 Total Energy              =    -161.6875401391870071 [Eh]

	 ================> DF-SCS-MP2 Energies <==================
	-----------------------------------------------------------
	 SCS Same-Spin Scale       =       0.3333333333333333 [-]
	 SCS Opposite-Spin Scale   =       1.2000000000000000 [-]
	 SCS Same-Spin Energy      =      -0.0007942083799782 [Eh]
	 SCS Opposite-Spin Energy  =      -0.0109451709845322 [Eh]
	 SCS Correlation Energy    =      -0.0117393793645104 [Eh]
	 SCS Total Energy          =    -161.6877759175911535 [Eh]
	-----------------------------------------------------------

*** Psi4 exiting successfully. Buy a developer a beer!
