                               Psi4 1.8.2 release

  ==> Input File <==

--------------------------------------------------------------------------
MEMORY 60 GB

molecule dimer {
1 1
Gh(Br)     0.000000     0.000000     0.000000
Gh(Na)     0.000000     2.514159     0.000000
Na         5.028318     0.000000     0.000000

units ang
no_reorient
no_com
symmetry c1
}

set {
basis        aug-cc-pVTZ
scf_type     df
}

energy("mp2")
--------------------------------------------------------------------------

    Molecular point group: c1

    Geometry (in Angstrom), charge = 1, multiplicity = 1:

       Center              X                  Y                   Z               Mass
    ------------   -----------------  -----------------  -----------------  -----------------
      Gh(BR)          0.000000000000     0.000000000000     0.000000000000    78.918337600000
      Gh(NA)          0.000000000000     2.514159000000     0.000000000000    22.989769282000
         NA           5.028318000000     0.000000000000     0.000000000000    22.989769282000

  Charge       = 1
  Multiplicity = 1
  Basis Set: AUG-CC-PVTZ
    Blend: AUG-CC-PVTZ
  Basis Set: (AUG-CC-PVTZ AUX)
    Blend: AUG-CC-PVTZ-JKFIT + DEF2-UNIVERSAL-JKFIT

    Orbital Energies [Eh]
    ---------------------

    Doubly Occupied:

       1A    -40.763644     2A     -3.075290     3A     -1.798472
       4A     -1.798433     5A     -1.798430

  @DF-RHF Final Energy:  -161.67602710727343

   => Energetics <=

    Nuclear Repulsion Energy =              0.0000000000000000
    One-Electron Energy =                -224.8835155175106024
    Two-Electron Energy =                  63.2074884102371897
    Total Energy =                       -161.6760271072733985
 Dipole X            :        -95.0216448          104.5235828            9.5019380
 Dipole Y            :          0.0000632            0.0000000            0.0000632
 Dipole Z            :          0.0000000            0.0000000            0.0000000
 Magnitude           :                                                    9.5019380
  Basis Set: (AUG-CC-PVTZ AUX)
    Blend: AUG-CC-PVTZ-RI + DEF2-QZVPP-RI
	 Reference Energy          =    -161.6760271072734270 [Eh]
	 Singles Energy            =      -0.0000000000000000 [Eh]
	 Same-Spin Energy          =      -0.0019783071449644 [Eh]
	 Opposite-Spin Energy      =      -0.0079735387681696 [Eh]
	 Correlation Energy        =      -0.0099518459131341 [Eh]
	 Total Energy              =    -161.6859789531865488 [Eh]

	 ================> DF-SCS-MP2 Energies <==================
	-----------------------------------------------------------
	 SCS Same-Spin Scale       =       0.3333333333333333 [-]
	 SCS Opposite-Spin Scale   =       1.2000000000000000 [-]
	 SCS Same-Spin Energy      =      -0.0006594357149881 [Eh]
	 SCS Opposite-Spin Energy  =      -0.0095682465218035 [Eh]
	 SCS Correlation Energy    =      -0.0102276822367917 [Eh]
	 SCS Total Energy          =    -161.6862547895102296 [Eh]
	-----------------------------------------------------------

*** Psi4 exiting successfully. Buy a developer a beer!
