                               Psi4 1.9 release

  ==> Input File <==

--------------------------------------------------------------------------
MEMORY 60 GB

molecule dimer {
0 1
Br     0.000000     0.000000     0.000000
Na     0.000000     2.514159     0.000000
--
1 1
Na     3.268407     0.000000     0.000000

units ang
no_reorient
no_com
symmetry c1
}

set {
basis        aug-cc-pVTZ
scf_type     df
}

energy("mp2", bsse_type="cp")
--------------------------------------------------------------------------

                               Psi4 1.9 release
    Molecular point group: c1
  Charge       = 1
  Multiplicity = 1
  Basis Set: AUG-CC-PVTZ
    Blend: AUG-CC-PVTZ
  Basis Set: (AUG-CC-PVTZ AUX)
    Blend: AUG-CC-PVTZ-JKFIT + DEF2-UNIVERSAL-JKFIT
  @DF-RHF Final Energy:  -161.67603502184824
    Total Energy =                       -161.6760350218482074
 Dipole X            :        -61.7645618           67.9403351            6.1757732
 Dipole Y            :          0.0000877            0.0000000            0.0000877
 Dipole Z            :         -0.0000000            0.0000000           -0.0000000
 Magnitude           :                                                    6.1757732
  Basis Set: (AUG-CC-PVTZ AUX)
    Blend: AUG-CC-PVTZ-RI + DEF2-QZVPP-RI
	 Reference Energy          =    -161.6760350218482358 [Eh]
	 Singles Energy            =      -0.0000000000000000 [Eh]
	 Same-Spin Energy          =      -0.0022917982134020 [Eh]
	 Opposite-Spin Energy      =      -0.0088596370343676 [Eh]
	 Correlation Energy        =      -0.0111514352477696 [Eh]
	 Total Energy              =    -161.6871864570960042 [Eh]
	 SCS Total Energy          =    -161.6874305190272878 [Eh]
                               Psi4 1.9 release
    Molecular point group: c1
  Multiplicity = 1
  Basis Set: AUG-CC-PVTZ
    Blend: AUG-CC-PVTZ
  Basis Set: (AUG-CC-PVTZ AUX)
    Blend: AUG-CC-PVTZ-JKFIT + DEF2-UNIVERSAL-JKFIT
  @DF-RHF Final Energy: -2734.40590622174886
    Total Energy =                      -2734.4059062217488645
  Basis Set: (AUG-CC-PVTZ AUX)
	 Singles Energy            =      -0.0000000000000000 [Eh]
	 Same-Spin Energy          =      -0.0916321544506370 [Eh]
	 Opposite-Spin Energy      =      -0.2153116039378063 [Eh]
	 Correlation Energy        =      -0.3069437583884432 [Eh]
	 Total Energy              =   -2734.7128499801374346 [Eh]
	 SCS Total Energy          =   -2734.6948241979575869 [Eh]
                               Psi4 1.9 release
    Molecular point group: c1

    Geometry (in Bohr), charge = 1, multiplicity = 1:

       Center              X                  Y                   Z               Mass
    ------------   -----------------  -----------------  -----------------  -----------------
         BR           0.000000000000     0.000000000000     0.000000000000    78.918337600000
         NA           0.000000000000     4.751071945855     0.000000000000    22.989769282000
         NA           6.176394096529     0.000000000000     0.000000000000    22.989769282000

  Charge       = 1
  Multiplicity = 1
  Basis Set: AUG-CC-PVTZ
    Blend: AUG-CC-PVTZ
  Basis Set: (AUG-CC-PVTZ AUX)
    Blend: AUG-CC-PVTZ-JKFIT + DEF2-UNIVERSAL-JKFIT

    Orbital Energies [Eh]
    ---------------------

    Doubly Occupied:

       1A   -490.074539     2A    -65.214823     3A    -58.569401
       4A    -58.569226     5A    -58.569179     6A    -40.703239
       7A    -40.641685     8A     -9.887291     9A     -7.495139
      10A     -7.494734    11A     -7.494026    12A     -3.237094
      13A     -3.236982    14A     -3.236252    15A     -3.235550
      16A     -3.235471    17A     -3.016831    18A     -2.962398
      19A     -1.740520    20A     -1.740195    21A     -1.738983
      22A     -1.685550    23A     -1.685311    24A     -1.685038
      25A     -1.046841    26A     -0.508728    27A     -0.500381
      28A     -0.490800

  @DF-RHF Final Energy: -2896.12239016432068

   => Energetics <=

    Nuclear Repulsion Energy =            158.8965238545102636
    One-Electron Energy =               -4350.6454161631654642
    Two-Electron Energy =                1295.6265021443341539
    Total Energy =                      -2896.1223901643206773
 Dipole X            :        -62.6212149           67.9403351            5.3191202
 Dipole Y            :        -48.4546623           52.2617914            3.8071292
 Dipole Z            :         -0.0000000            0.0000000           -0.0000000
 Magnitude           :                                                    6.5411980
  Basis Set: (AUG-CC-PVTZ AUX)
    Blend: AUG-CC-PVTZ-RI + DEF2-QZVPP-RI
	 Reference Energy          =   -2896.1223901643206773 [Eh]
	 Singles Energy            =      -0.0000000000000000 [Eh]
	 Same-Spin Energy          =      -0.0940579393042969 [Eh]
	 Opposite-Spin Energy      =      -0.2246194257036009 [Eh]
	 Correlation Energy        =      -0.3186773650078978 [Eh]
	 Total Energy              =   -2896.4410675293283930 [Eh]

	 ================> DF-SCS-MP2 Energies <==================
	-----------------------------------------------------------
	 SCS Same-Spin Scale       =       0.3333333333333333 [-]
	 SCS Opposite-Spin Scale   =       1.2000000000000000 [-]
	 SCS Same-Spin Energy      =      -0.0313526464347656 [Eh]
	 SCS Opposite-Spin Energy  =      -0.2695433108443211 [Eh]
	 SCS Correlation Energy    =      -0.3008959572790867 [Eh]
	 SCS Total Energy          =   -2896.4232861215996309 [Eh]
	-----------------------------------------------------------

*** Psi4 exiting successfully. Buy a developer a beer!
