                               Psi4 1.8.2 release

  ==> Input File <==

--------------------------------------------------------------------------
MEMORY 60 GB

molecule dimer {
-1 1
Br         0.000000     0.000000     0.000000
Gh(Na)     0.000000     2.514159     0.000000
Gh(Na)     3.268407     0.000000     0.000000

units ang
no_reorient
no_com
symmetry c1
}

set {
basis        aug-cc-pVTZ
scf_type     df
}

energy("mp2")
--------------------------------------------------------------------------

    Molecular point group: c1

    Geometry (in Angstrom), charge = -1, multiplicity = 1:

       Center              X                  Y                   Z               Mass
    ------------   -----------------  -----------------  -----------------  -----------------
         BR           0.000000000000     0.000000000000     0.000000000000    78.918337600000
      Gh(NA)          0.000000000000     2.514159000000     0.000000000000    22.989769282000
      Gh(NA)          3.268407000000     0.000000000000     0.000000000000    22.989769282000

  Charge       = -1
  Multiplicity = 1
  Basis Set: AUG-CC-PVTZ
    Blend: AUG-CC-PVTZ
  Basis Set: (AUG-CC-PVTZ AUX)
    Blend: AUG-CC-PVTZ-JKFIT + DEF2-UNIVERSAL-JKFIT

    Orbital Energies [Eh]
    ---------------------

    Doubly Occupied:

       1A   -489.721213     2A    -64.861052     3A    -58.215558
       4A    -58.215556     5A    -58.215552     6A     -9.533032
       7A     -7.140379     8A     -7.140372     9A     -7.140365
      10A     -2.882065    11A     -2.882062    12A     -2.882057
      13A     -2.882057    14A     -2.882046    15A     -0.685993
      16A     -0.139337    17A     -0.139336    18A     -0.139333

  @DF-RHF Final Energy: -2572.53369505218643

   => Energetics <=

    Nuclear Repulsion Energy =              0.0000000000000000
    One-Electron Energy =               -3593.6726613077885304
    Two-Electron Energy =                1021.1389662556020994
    Total Energy =                      -2572.5336950521864310
 Dipole X            :          0.0001736            0.0000000            0.0001736
 Dipole Y            :          0.0003644            0.0000000            0.0003644
 Dipole Z            :          0.0000000            0.0000000            0.0000000
 Magnitude           :                                                    0.0004037
  Basis Set: (AUG-CC-PVTZ AUX)
    Blend: AUG-CC-PVTZ-RI + DEF2-QZVPP-RI
	 Reference Energy          =   -2572.5336950521864310 [Eh]
	 Singles Energy            =      -0.0000000000000000 [Eh]
	 Same-Spin Energy          =      -0.0887471024133308 [Eh]
	 Opposite-Spin Energy      =      -0.2057319774773691 [Eh]
	 Correlation Energy        =      -0.2944790798906999 [Eh]
	 Total Energy              =   -2572.8281741320770379 [Eh]

	 ================> DF-SCS-MP2 Energies <==================
	-----------------------------------------------------------
	 SCS Same-Spin Scale       =       0.3333333333333333 [-]
	 SCS Opposite-Spin Scale   =       1.2000000000000000 [-]
	 SCS Same-Spin Energy      =      -0.0295823674711103 [Eh]
	 SCS Opposite-Spin Energy  =      -0.2468783729728429 [Eh]
	 SCS Correlation Energy    =      -0.2764607404439531 [Eh]
	 SCS Total Energy          =   -2572.8101557926302121 [Eh]
	-----------------------------------------------------------

*** Psi4 exiting successfully. Buy a developer a beer!
