                               Psi4 1.8.2 release

  ==> Input File <==

--------------------------------------------------------------------------
MEMORY 60 GB

molecule dimer {
1 1
Gh(Br)     0.000000     0.000000     0.000000
Na         0.000000     2.514159     0.000000
Gh(Na)     5.028318     0.000000     0.000000

units ang
no_reorient
no_com
symmetry c1
}

set {
basis        aug-cc-pVTZ
scf_type     df
}

energy("mp2")
--------------------------------------------------------------------------

    Molecular point group: c1

    Geometry (in Angstrom), charge = 1, multiplicity = 1:

       Center              X                  Y                   Z               Mass
    ------------   -----------------  -----------------  -----------------  -----------------
      Gh(BR)          0.000000000000     0.000000000000     0.000000000000    78.918337600000
         NA           0.000000000000     2.514159000000     0.000000000000    22.989769282000
      Gh(NA)          5.028318000000     0.000000000000     0.000000000000    22.989769282000

  Charge       = 1
  Multiplicity = 1
  Basis Set: AUG-CC-PVTZ
    Blend: AUG-CC-PVTZ
  Basis Set: (AUG-CC-PVTZ AUX)
    Blend: AUG-CC-PVTZ-JKFIT + DEF2-UNIVERSAL-JKFIT

    Orbital Energies [Eh]
    ---------------------

    Doubly Occupied:

       1A    -40.763040     2A     -3.075008     3A     -1.798267
       4A     -1.798170     5A     -1.798153

  @DF-RHF Final Energy:  -161.67603840016602

   => Energetics <=

    Nuclear Repulsion Energy =              0.0000000000000000
    One-Electron Energy =                -224.8868025479426649
    Two-Electron Energy =                  63.2107641477766435
    Total Energy =                       -161.6760384001660213
 Dipole X            :          0.0000850            0.0000000            0.0000850
 Dipole Y            :        -47.5113447           52.2617914            4.7504467
 Dipole Z            :          0.0000000            0.0000000            0.0000000
 Magnitude           :                                                    4.7504467
  Basis Set: (AUG-CC-PVTZ AUX)
    Blend: AUG-CC-PVTZ-RI + DEF2-QZVPP-RI
	 Reference Energy          =    -161.6760384001660213 [Eh]
	 Singles Energy            =      -0.0000000000000000 [Eh]
	 Same-Spin Energy          =      -0.0024918851572568 [Eh]
	 Opposite-Spin Energy      =      -0.0093868382295835 [Eh]
	 Correlation Energy        =      -0.0118787233868403 [Eh]
	 Total Energy              =    -161.6879171235528645 [Eh]

	 ================> DF-SCS-MP2 Energies <==================
	-----------------------------------------------------------
	 SCS Same-Spin Scale       =       0.3333333333333333 [-]
	 SCS Opposite-Spin Scale   =       1.2000000000000000 [-]
	 SCS Same-Spin Energy      =      -0.0008306283857523 [Eh]
	 SCS Opposite-Spin Energy  =      -0.0112642058755002 [Eh]
	 SCS Correlation Energy    =      -0.0120948342612525 [Eh]
	 SCS Total Energy          =    -161.6881332344272835 [Eh]
	-----------------------------------------------------------

*** Psi4 exiting successfully. Buy a developer a beer!
