                               Psi4 1.8.2 release

  ==> Input File <==

--------------------------------------------------------------------------
MEMORY 60 GB

molecule dimer {
-1 1
Br         0.000000     0.000000     0.000000
Gh(Na)     0.000000     2.514159     0.000000
Gh(Na)     3.519823     0.000000     0.000000

units ang
no_reorient
no_com
symmetry c1
}

set {
basis        aug-cc-pVTZ
scf_type     df
}

energy("mp2")
--------------------------------------------------------------------------

    Molecular point group: c1

    Geometry (in Angstrom), charge = -1, multiplicity = 1:

       Center              X                  Y                   Z               Mass
    ------------   -----------------  -----------------  -----------------  -----------------
         BR           0.000000000000     0.000000000000     0.000000000000    78.918337600000
      Gh(NA)          0.000000000000     2.514159000000     0.000000000000    22.989769282000
      Gh(NA)          3.519823000000     0.000000000000     0.000000000000    22.989769282000

  Charge       = -1
  Multiplicity = 1
  Basis Set: AUG-CC-PVTZ
    Blend: AUG-CC-PVTZ
  Basis Set: (AUG-CC-PVTZ AUX)
    Blend: AUG-CC-PVTZ-JKFIT + DEF2-UNIVERSAL-JKFIT

    Orbital Energies [Eh]
    ---------------------

    Doubly Occupied:

       1A   -489.721176     2A    -64.861027     3A    -58.215531
       4A    -58.215530     5A    -58.215526     6A     -9.533025
       7A     -7.140372     8A     -7.140366     9A     -7.140358
      10A     -2.882057    11A     -2.882054    12A     -2.882049
      13A     -2.882049    14A     -2.882038    15A     -0.685994
      16A     -0.139338    17A     -0.139336    18A     -0.139334

  @DF-RHF Final Energy: -2572.53369396006701

   => Energetics <=

    Nuclear Repulsion Energy =              0.0000000000000000
    One-Electron Energy =               -3593.6730748187837889
    Two-Electron Energy =                1021.1393808587168905
    Total Energy =                      -2572.5336939600670121
 Dipole X            :          0.0001359            0.0000000            0.0001359
 Dipole Y            :          0.0003811            0.0000000            0.0003811
 Dipole Z            :         -0.0000000            0.0000000           -0.0000000
 Magnitude           :                                                    0.0004046
  Basis Set: (AUG-CC-PVTZ AUX)
    Blend: AUG-CC-PVTZ-RI + DEF2-QZVPP-RI
	 Reference Energy          =   -2572.5336939600670121 [Eh]
	 Singles Energy            =      -0.0000000000000000 [Eh]
	 Same-Spin Energy          =      -0.0886480903511278 [Eh]
	 Opposite-Spin Energy      =      -0.2054795993221132 [Eh]
	 Correlation Energy        =      -0.2941276896732409 [Eh]
	 Total Energy              =   -2572.8278216497401445 [Eh]

	 ================> DF-SCS-MP2 Energies <==================
	-----------------------------------------------------------
	 SCS Same-Spin Scale       =       0.3333333333333333 [-]
	 SCS Opposite-Spin Scale   =       1.2000000000000000 [-]
	 SCS Same-Spin Energy      =      -0.0295493634503759 [Eh]
	 SCS Opposite-Spin Energy  =      -0.2465755191865358 [Eh]
	 SCS Correlation Energy    =      -0.2761248826369117 [Eh]
	 SCS Total Energy          =   -2572.8098188427038622 [Eh]
	-----------------------------------------------------------

*** Psi4 exiting successfully. Buy a developer a beer!
