                               Psi4 1.9 release

  ==> Input File <==

--------------------------------------------------------------------------
MEMORY 60 GB

molecule dimer {
0 1
Br     0.000000     0.000000     0.000000
Na     0.000000     2.514159     0.000000
--
1 1
Na     3.771238     0.000000     0.000000

units ang
no_reorient
no_com
symmetry c1
}

set {
basis        aug-cc-pVTZ
scf_type     df
}

energy("mp2", bsse_type="cp")
--------------------------------------------------------------------------

                               Psi4 1.9 release
    Molecular point group: c1
  Charge       = 1
  Multiplicity = 1
  Basis Set: AUG-CC-PVTZ
    Blend: AUG-CC-PVTZ
  Basis Set: (AUG-CC-PVTZ AUX)
    Blend: AUG-CC-PVTZ-JKFIT + DEF2-UNIVERSAL-JKFIT
  @DF-RHF Final Energy:  -161.67603163104727
    Total Energy =                       -161.6760316310472660
 Dipole X            :        -71.2664596           78.3926767            7.1262171
 Dipole Y            :          0.0000784            0.0000000            0.0000784
 Dipole Z            :          0.0000000            0.0000000            0.0000000
 Magnitude           :                                                    7.1262171
  Basis Set: (AUG-CC-PVTZ AUX)
    Blend: AUG-CC-PVTZ-RI + DEF2-QZVPP-RI
	 Reference Energy          =    -161.6760316310472660 [Eh]
	 Singles Energy            =      -0.0000000000000000 [Eh]
	 Same-Spin Energy          =      -0.0021035203277663 [Eh]
	 Opposite-Spin Energy      =      -0.0083235299071062 [Eh]
	 Correlation Energy        =      -0.0104270502348724 [Eh]
	 Total Energy              =    -161.6864586812821472 [Eh]
	 SCS Total Energy          =    -161.6867210403783872 [Eh]
                               Psi4 1.9 release
    Molecular point group: c1
  Multiplicity = 1
  Basis Set: AUG-CC-PVTZ
    Blend: AUG-CC-PVTZ
  Basis Set: (AUG-CC-PVTZ AUX)
    Blend: AUG-CC-PVTZ-JKFIT + DEF2-UNIVERSAL-JKFIT
  @DF-RHF Final Energy: -2734.40589491766377
    Total Energy =                      -2734.4058949176633178
  Basis Set: (AUG-CC-PVTZ AUX)
	 Singles Energy            =      -0.0000000000000000 [Eh]
	 Same-Spin Energy          =      -0.0914141413548701 [Eh]
	 Opposite-Spin Energy      =      -0.2147673253579244 [Eh]
	 Correlation Energy        =      -0.3061814667127944 [Eh]
	 Total Energy              =   -2734.7120763843763598 [Eh]
	 SCS Total Energy          =   -2734.6940870885450749 [Eh]
                               Psi4 1.9 release
    Molecular point group: c1

    Geometry (in Bohr), charge = 1, multiplicity = 1:

       Center              X                  Y                   Z               Mass
    ------------   -----------------  -----------------  -----------------  -----------------
         BR           0.000000000000     0.000000000000     0.000000000000    78.918337600000
         NA           0.000000000000     4.751071945855     0.000000000000    22.989769282000
         NA           7.126606973919     0.000000000000     0.000000000000    22.989769282000

  Charge       = 1
  Multiplicity = 1
  Basis Set: AUG-CC-PVTZ
    Blend: AUG-CC-PVTZ
  Basis Set: (AUG-CC-PVTZ AUX)
    Blend: AUG-CC-PVTZ-JKFIT + DEF2-UNIVERSAL-JKFIT

    Orbital Energies [Eh]
    ---------------------

    Doubly Occupied:

       1A   -490.055339     2A    -65.195646     3A    -58.550206
       4A    -58.550053     5A    -58.550004     6A    -40.722682
       7A    -40.629378     8A     -9.868148     9A     -7.475942
      10A     -7.475604    11A     -7.474922    12A     -3.217857
      13A     -3.217791    14A     -3.217065    15A     -3.216504
      16A     -3.216409    17A     -3.035036    18A     -2.950193
      19A     -1.758591    20A     -1.758372    21A     -1.757487
      22A     -1.673246    23A     -1.673026    24A     -1.672851
      25A     -1.027029    26A     -0.489973    27A     -0.477620
      28A     -0.472088

  @DF-RHF Final Energy: -2896.11132574561725

   => Energetics <=

    Nuclear Repulsion Energy =            149.1843185448875033
    One-Electron Energy =               -4331.8331750394181654
    Two-Electron Energy =                1286.5375307489130137
    Total Energy =                      -2896.1113257456172505
 Dipole X            :        -71.9983391           78.3926767            6.3943376
 Dipole Y            :        -48.4715994           52.2617914            3.7901920
 Dipole Z            :          0.0000000            0.0000000            0.0000000
 Magnitude           :                                                    7.4332435
  Basis Set: (AUG-CC-PVTZ AUX)
    Blend: AUG-CC-PVTZ-RI + DEF2-QZVPP-RI
	 Reference Energy          =   -2896.1113257456172505 [Eh]
	 Singles Energy            =      -0.0000000000000000 [Eh]
	 Same-Spin Energy          =      -0.0936238235378404 [Eh]
	 Opposite-Spin Energy      =      -0.2235229125716889 [Eh]
	 Correlation Energy        =      -0.3171467361095293 [Eh]
	 Total Energy              =   -2896.4284724817266579 [Eh]

	 ================> DF-SCS-MP2 Energies <==================
	-----------------------------------------------------------
	 SCS Same-Spin Scale       =       0.3333333333333333 [-]
	 SCS Opposite-Spin Scale   =       1.2000000000000000 [-]
	 SCS Same-Spin Energy      =      -0.0312079411792801 [Eh]
	 SCS Opposite-Spin Energy  =      -0.2682274950860267 [Eh]
	 SCS Correlation Energy    =      -0.2994354362653068 [Eh]
	 SCS Total Energy          =   -2896.4107611818826626 [Eh]
	-----------------------------------------------------------

*** Psi4 exiting successfully. Buy a developer a beer!
