                               Psi4 1.8.2 release

  ==> Input File <==

--------------------------------------------------------------------------
MEMORY 60 GB

molecule dimer {
1 1
Br         0.000000     0.000000     0.000000
Na         0.000000     2.514159     0.000000
Na         2.514159     0.000000     0.000000

units ang
no_reorient
no_com
symmetry c1
}

set {
basis        aug-cc-pVTZ
scf_type     df
}

energy("mp2")
--------------------------------------------------------------------------

    Molecular point group: c1

    Geometry (in Angstrom), charge = 1, multiplicity = 1:

       Center              X                  Y                   Z               Mass
    ------------   -----------------  -----------------  -----------------  -----------------
         BR           0.000000000000     0.000000000000     0.000000000000    78.918337600000
         NA           0.000000000000     2.514159000000     0.000000000000    22.989769282000
         NA           2.514159000000     0.000000000000     0.000000000000    22.989769282000

  Charge       = 1
  Multiplicity = 1
  Basis Set: AUG-CC-PVTZ
    Blend: AUG-CC-PVTZ
  Basis Set: (AUG-CC-PVTZ AUX)
    Blend: AUG-CC-PVTZ-JKFIT + DEF2-UNIVERSAL-JKFIT

    Orbital Energies [Eh]
    ---------------------

    Doubly Occupied:

       1A   -490.100988     2A    -65.241876     3A    -58.596369
       4A    -58.596247     5A    -58.596241     6A    -40.661601
       7A    -40.661600     8A     -9.914881     9A     -7.522780
      10A     -7.522419    11A     -7.521788    12A     -3.264491
      13A     -3.264476    14A     -3.263844    15A     -3.263316
      16A     -3.263265    17A     -2.982135    18A     -2.982109
      19A     -1.705904    20A     -1.705238    21A     -1.705131
      22A     -1.704958    23A     -1.704741    24A     -1.704689
      25A     -1.081682    26A     -0.541553    27A     -0.539281
      28A     -0.522565

  @DF-RHF Final Energy: -2896.12878056079353

   => Energetics <=

    Nuclear Repulsion Energy =            180.0772394680332127
    One-Electron Energy =               -4392.1397126266238047
    Two-Electron Energy =                1315.9336925977970623
    Total Energy =                      -2896.1287805607935297
 Dipole X            :        -48.4182274           52.2617914            3.8435640
 Dipole Y            :        -48.4182274           52.2617914            3.8435640
 Dipole Z            :         -0.0000000            0.0000000           -0.0000000
 Magnitude           :                                                    5.4356203
  Basis Set: (AUG-CC-PVTZ AUX)
    Blend: AUG-CC-PVTZ-RI + DEF2-QZVPP-RI
	 Reference Energy          =   -2896.1287805607935297 [Eh]
	 Singles Energy            =      -0.0000000000000000 [Eh]
	 Same-Spin Energy          =      -0.0952887604852081 [Eh]
	 Opposite-Spin Energy      =      -0.2267904251178556 [Eh]
	 Correlation Energy        =      -0.3220791856030637 [Eh]
	 Total Energy              =   -2896.4508597463964179 [Eh]

	 ================> DF-SCS-MP2 Energies <==================
	-----------------------------------------------------------
	 SCS Same-Spin Scale       =       0.3333333333333333 [-]
	 SCS Opposite-Spin Scale   =       1.2000000000000000 [-]
	 SCS Same-Spin Energy      =      -0.0317629201617360 [Eh]
	 SCS Opposite-Spin Energy  =      -0.2721485101414267 [Eh]
	 SCS Correlation Energy    =      -0.3039114303031628 [Eh]
	 SCS Total Energy          =   -2896.4326919910968172 [Eh]
	-----------------------------------------------------------

*** Psi4 exiting successfully. Buy a developer a beer!
