                               Psi4 1.8.2 release

  ==> Input File <==

--------------------------------------------------------------------------
MEMORY 60 GB

molecule dimer {
-1 1
Br     0.000000     0.000000     0.000000
--
1 1
Na     0.000000     2.514159     0.000000
--
1 1
Na     2.765575     0.000000     0.000000

units ang
no_reorient
no_com
symmetry c1
}

set {
basis        aug-cc-pVTZ
scf_type     df
}

energy("mp2", bsse_type="cp")
--------------------------------------------------------------------------

                               Psi4 1.8.2 release
    Molecular point group: c1
  Charge       = -1
  Multiplicity = 1
  Basis Set: AUG-CC-PVTZ
    Blend: AUG-CC-PVTZ
  Basis Set: (AUG-CC-PVTZ AUX)
    Blend: AUG-CC-PVTZ-JKFIT + DEF2-UNIVERSAL-JKFIT
  @DF-RHF Final Energy: -2572.53369940919583
    Total Energy =                      -2572.5336994091958331
 Dipole X            :          0.0002579            0.0000000            0.0002579
 Dipole Y            :          0.0003318            0.0000000            0.0003318
 Dipole Z            :          0.0000000            0.0000000            0.0000000
 Magnitude           :                                                    0.0004202
  Basis Set: (AUG-CC-PVTZ AUX)
    Blend: AUG-CC-PVTZ-RI + DEF2-QZVPP-RI
	 Reference Energy          =   -2572.5336994091958331 [Eh]
	 Singles Energy            =      -0.0000000000000000 [Eh]
	 Same-Spin Energy          =      -0.0890793152616752 [Eh]
	 Opposite-Spin Energy      =      -0.2065513434837527 [Eh]
	 Correlation Energy        =      -0.2956306587454279 [Eh]
	 Total Energy              =   -2572.8293300679411004 [Eh]
	 SCS Total Energy          =   -2572.8112541264636093 [Eh]
                               Psi4 1.8.2 release
    Molecular point group: c1
  Basis Set: AUG-CC-PVTZ
    Blend: AUG-CC-PVTZ
  Basis Set: (AUG-CC-PVTZ AUX)
    Blend: AUG-CC-PVTZ-JKFIT + DEF2-UNIVERSAL-JKFIT
  @DF-RHF Final Energy:  -161.67604170912816
    Total Energy =                       -161.6760417091281283
  Basis Set: (AUG-CC-PVTZ AUX)
                               Psi4 1.8.2 release
  @DF-RHF Final Energy:  -323.21066639910168
    Total Energy =                       -323.2106663991016831
                               Psi4 1.8.2 release
  @DF-RHF Final Energy: -2734.40238618986587
    Total Energy =                      -2734.4023861898658652
                               Psi4 1.8.2 release
  @DF-RHF Final Energy: -2734.40592120270958
    Total Energy =                      -2734.4059212027095782
                               Psi4 1.8.2 release
  Multiplicity = 1
  @DF-RHF Final Energy:  -161.67603890947296
    Total Energy =                       -161.6760389094729646
	 Singles Energy            =      -0.0000000000000000 [Eh]
	 Same-Spin Energy          =      -0.0024494265232695 [Eh]
	 Opposite-Spin Energy      =      -0.0092980462960513 [Eh]
	 Correlation Energy        =      -0.0117474728193208 [Eh]
	 Total Energy              =    -161.6877863822922734 [Eh]
	 SCS Total Energy          =    -161.6880130405359921 [Eh]
                               Psi4 1.8.2 release
    Molecular point group: c1

    Geometry (in Bohr), charge = 1, multiplicity = 1:

       Center              X                  Y                   Z               Mass
    ------------   -----------------  -----------------  -----------------  -----------------
         BR           0.000000000000     0.000000000000     0.000000000000    78.918337600000
         NA           0.000000000000     4.751071945855     0.000000000000    22.989769282000
         NA           5.226179329413     0.000000000000     0.000000000000    22.989769282000

  Charge       = 1
  Multiplicity = 1
  Basis Set: AUG-CC-PVTZ
    Blend: AUG-CC-PVTZ
  Basis Set: (AUG-CC-PVTZ AUX)
    Blend: AUG-CC-PVTZ-JKFIT + DEF2-UNIVERSAL-JKFIT

    Orbital Energies [Eh]
    ---------------------

    Doubly Occupied:

       1A   -490.093198     2A    -65.233705     3A    -58.588248
       4A    -58.588108     5A    -58.588074     6A    -40.677128
       7A    -40.654855     8A     -9.906358     9A     -7.514227
      10A     -7.513851    11A     -7.513177    12A     -3.256086
      13A     -3.256012    14A     -3.255311    15A     -3.254715
      16A     -3.254638    17A     -2.993899    18A     -2.975446
      19A     -1.717520    20A     -1.717014    21A     -1.716096
      22A     -1.698759    23A     -1.698394    24A     -1.698057
      25A     -1.069433    26A     -0.529737    27A     -0.526766
      28A     -0.511497

  @DF-RHF Final Energy: -2896.13140682323228

   => Energetics <=

    Nuclear Repulsion Energy =            171.8335152804503423
    One-Electron Energy =               -4375.9292296323183109
    Two-Electron Energy =                1307.9643075286362546
    Total Energy =                      -2896.1314068232318277
 Dipole X            :        -53.1817427           57.4879726            4.3062299
 Dipole Y            :        -48.4315916           52.2617914            3.8301998
 Dipole Z            :         -0.0000000            0.0000000           -0.0000000
 Magnitude           :                                                    5.7631629
  Basis Set: (AUG-CC-PVTZ AUX)
    Blend: AUG-CC-PVTZ-RI + DEF2-QZVPP-RI
	 Reference Energy          =   -2896.1314068232322825 [Eh]
	 Singles Energy            =      -0.0000000000000000 [Eh]
	 Same-Spin Energy          =      -0.0946780512965413 [Eh]
	 Opposite-Spin Energy      =      -0.2257708273794909 [Eh]
	 Correlation Energy        =      -0.3204488786760322 [Eh]
	 Total Energy              =   -2896.4518557019082436 [Eh]

	 ================> DF-SCS-MP2 Energies <==================
	-----------------------------------------------------------
	 SCS Same-Spin Scale       =       0.3333333333333333 [-]
	 SCS Opposite-Spin Scale   =       1.2000000000000000 [-]
	 SCS Same-Spin Energy      =      -0.0315593504321804 [Eh]
	 SCS Opposite-Spin Energy  =      -0.2709249928553891 [Eh]
	 SCS Correlation Energy    =      -0.3024843432875695 [Eh]
	 SCS Total Energy          =   -2896.4338911665199703 [Eh]
	-----------------------------------------------------------

*** Psi4 exiting successfully. Buy a developer a beer!
