                               Psi4 1.8.2 release

  ==> Input File <==

--------------------------------------------------------------------------
MEMORY 60 GB

molecule dimer {
-1 1
Br     0.000000     0.000000     0.000000
--
1 1
Na     0.000000     2.514159     0.000000
--
1 1
Na     3.016991     0.000000     0.000000

units ang
no_reorient
no_com
symmetry c1
}

set {
basis        aug-cc-pVTZ
scf_type     df
}

energy("mp2", bsse_type="cp")
--------------------------------------------------------------------------

                               Psi4 1.8.2 release
    Molecular point group: c1
  Charge       = -1
  Multiplicity = 1
  Basis Set: AUG-CC-PVTZ
    Blend: AUG-CC-PVTZ
  Basis Set: (AUG-CC-PVTZ AUX)
    Blend: AUG-CC-PVTZ-JKFIT + DEF2-UNIVERSAL-JKFIT
  @DF-RHF Final Energy: -2572.53369682999028
    Total Energy =                      -2572.5336968299907312
 Dipole X            :          0.0002162            0.0000000            0.0002162
 Dipole Y            :          0.0003488            0.0000000            0.0003488
 Dipole Z            :          0.0000000            0.0000000            0.0000000
 Magnitude           :                                                    0.0004104
  Basis Set: (AUG-CC-PVTZ AUX)
    Blend: AUG-CC-PVTZ-RI + DEF2-QZVPP-RI
	 Reference Energy          =   -2572.5336968299902765 [Eh]
	 Singles Energy            =      -0.0000000000000000 [Eh]
	 Same-Spin Energy          =      -0.0888826136070923 [Eh]
	 Opposite-Spin Energy      =      -0.2060750813145421 [Eh]
	 Correlation Energy        =      -0.2949576949216344 [Eh]
	 Total Energy              =   -2572.8286545249120536 [Eh]
	 SCS Total Energy          =   -2572.8106144654366290 [Eh]
                               Psi4 1.8.2 release
    Molecular point group: c1
  Basis Set: AUG-CC-PVTZ
    Blend: AUG-CC-PVTZ
  Basis Set: (AUG-CC-PVTZ AUX)
    Blend: AUG-CC-PVTZ-JKFIT + DEF2-UNIVERSAL-JKFIT
  @DF-RHF Final Energy:  -161.67604081229877
    Total Energy =                       -161.6760408122987656
  Basis Set: (AUG-CC-PVTZ AUX)
                               Psi4 1.8.2 release
  @DF-RHF Final Energy:  -323.21746702024967
    Total Energy =                       -323.2174670202496145
                               Psi4 1.8.2 release
  @DF-RHF Final Energy: -2734.39279335818901
    Total Energy =                      -2734.3927933581890102
                               Psi4 1.8.2 release
  @DF-RHF Final Energy: -2734.40591332623490
    Total Energy =                      -2734.4059133262353498
                               Psi4 1.8.2 release
  Multiplicity = 1
  @DF-RHF Final Energy:  -161.67603653822681
    Total Energy =                       -161.6760365382268105
	 Singles Energy            =      -0.0000000000000000 [Eh]
	 Same-Spin Energy          =      -0.0023826251399347 [Eh]
	 Opposite-Spin Energy      =      -0.0091209758204437 [Eh]
	 Correlation Energy        =      -0.0115036009603784 [Eh]
	 Total Energy              =    -161.6875401391871776 [Eh]
	 SCS Total Energy          =    -161.6877759175913241 [Eh]
                               Psi4 1.8.2 release
    Molecular point group: c1

    Geometry (in Bohr), charge = 1, multiplicity = 1:

       Center              X                  Y                   Z               Mass
    ------------   -----------------  -----------------  -----------------  -----------------
         BR           0.000000000000     0.000000000000     0.000000000000    78.918337600000
         NA           0.000000000000     4.751071945855     0.000000000000    22.989769282000
         NA           5.701286712971     0.000000000000     0.000000000000    22.989769282000

  Charge       = 1
  Multiplicity = 1
  Basis Set: AUG-CC-PVTZ
    Blend: AUG-CC-PVTZ
  Basis Set: (AUG-CC-PVTZ AUX)
    Blend: AUG-CC-PVTZ-JKFIT + DEF2-UNIVERSAL-JKFIT

    Orbital Energies [Eh]
    ---------------------

    Doubly Occupied:

       1A   -490.084177     2A    -65.224515     3A    -58.579085
       4A    -58.578920     5A    -58.578877     6A    -40.690999
       7A    -40.648193     8A     -9.897023     9A     -7.504883
      10A     -7.504481    11A     -7.503780    12A     -3.246818
      13A     -3.246710    14A     -3.245987    15A     -3.245302
      16A     -3.245224    17A     -3.005771    18A     -2.968848
      19A     -1.729482    20A     -1.729081    21A     -1.727821
      22A     -1.692073    23A     -1.691786    24A     -1.691474
      25A     -1.057798    26A     -0.518925    27A     -0.513341
      28A     -0.500928

  @DF-RHF Final Energy: -2896.12791163176144

   => Energetics <=

    Nuclear Repulsion Energy =            164.8671353160955846
    One-Electron Energy =               -4362.2854887255962240
    Two-Electron Energy =                1301.2904417777397157
    Total Energy =                      -2896.1279116317609805
 Dipole X            :        -57.9131458           62.7141538            4.8010081
 Dipole Y            :        -48.4438599           52.2617914            3.8179315
 Dipole Z            :          0.0000000            0.0000000            0.0000000
 Magnitude           :                                                    6.1340264
  Basis Set: (AUG-CC-PVTZ AUX)
    Blend: AUG-CC-PVTZ-RI + DEF2-QZVPP-RI
	 Reference Energy          =   -2896.1279116317614353 [Eh]
	 Singles Energy            =      -0.0000000000000000 [Eh]
	 Same-Spin Energy          =      -0.0943366552722341 [Eh]
	 Opposite-Spin Energy      =      -0.2252040463576065 [Eh]
	 Correlation Energy        =      -0.3195407016298407 [Eh]
	 Total Energy              =   -2896.4474523333910838 [Eh]

	 ================> DF-SCS-MP2 Energies <==================
	-----------------------------------------------------------
	 SCS Same-Spin Scale       =       0.3333333333333333 [-]
	 SCS Opposite-Spin Scale   =       1.2000000000000000 [-]
	 SCS Same-Spin Energy      =      -0.0314455517574114 [Eh]
	 SCS Opposite-Spin Energy  =      -0.2702448556291278 [Eh]
	 SCS Correlation Energy    =      -0.3016904073865392 [Eh]
	 SCS Total Energy          =   -2896.4296020391479942 [Eh]
	-----------------------------------------------------------

*** Psi4 exiting successfully. Buy a developer a beer!
