                               Psi4 1.8.2 release

  ==> Input File <==

--------------------------------------------------------------------------
MEMORY 60 GB

molecule dimer {
1 1
Br         0.000000     0.000000     0.000000
Na         0.000000     2.514159     0.000000
Na         3.016991     0.000000     0.000000

units ang
no_reorient
no_com
symmetry c1
}

set {
basis        aug-cc-pVTZ
scf_type     df
}

energy("mp2")
--------------------------------------------------------------------------

    Molecular point group: c1

    Geometry (in Angstrom), charge = 1, multiplicity = 1:

       Center              X                  Y                   Z               Mass
    ------------   -----------------  -----------------  -----------------  -----------------
         BR           0.000000000000     0.000000000000     0.000000000000    78.918337600000
         NA           0.000000000000     2.514159000000     0.000000000000    22.989769282000
         NA           3.016991000000     0.000000000000     0.000000000000    22.989769282000

  Charge       = 1
  Multiplicity = 1
  Basis Set: AUG-CC-PVTZ
    Blend: AUG-CC-PVTZ
  Basis Set: (AUG-CC-PVTZ AUX)
    Blend: AUG-CC-PVTZ-JKFIT + DEF2-UNIVERSAL-JKFIT

    Orbital Energies [Eh]
    ---------------------

    Doubly Occupied:

       1A   -490.084177     2A    -65.224515     3A    -58.579085
       4A    -58.578920     5A    -58.578877     6A    -40.690999
       7A    -40.648193     8A     -9.897023     9A     -7.504883
      10A     -7.504481    11A     -7.503780    12A     -3.246818
      13A     -3.246710    14A     -3.245987    15A     -3.245302
      16A     -3.245224    17A     -3.005771    18A     -2.968848
      19A     -1.729482    20A     -1.729081    21A     -1.727821
      22A     -1.692073    23A     -1.691786    24A     -1.691474
      25A     -1.057798    26A     -0.518925    27A     -0.513341
      28A     -0.500928

  @DF-RHF Final Energy: -2896.12791163176189

   => Energetics <=

    Nuclear Repulsion Energy =            164.8671353160955846
    One-Electron Energy =               -4362.2854887255971335
    Two-Electron Energy =                1301.2904417777401704
    Total Energy =                      -2896.1279116317618900
 Dipole X            :        -57.9131458           62.7141538            4.8010081
 Dipole Y            :        -48.4438599           52.2617914            3.8179315
 Dipole Z            :          0.0000000            0.0000000            0.0000000
 Magnitude           :                                                    6.1340264
  Basis Set: (AUG-CC-PVTZ AUX)
    Blend: AUG-CC-PVTZ-RI + DEF2-QZVPP-RI
	 Reference Energy          =   -2896.1279116317618900 [Eh]
	 Singles Energy            =      -0.0000000000000000 [Eh]
	 Same-Spin Energy          =      -0.0943366552722308 [Eh]
	 Opposite-Spin Energy      =      -0.2252040463576016 [Eh]
	 Correlation Energy        =      -0.3195407016298324 [Eh]
	 Total Energy              =   -2896.4474523333915386 [Eh]

	 ================> DF-SCS-MP2 Energies <==================
	-----------------------------------------------------------
	 SCS Same-Spin Scale       =       0.3333333333333333 [-]
	 SCS Opposite-Spin Scale   =       1.2000000000000000 [-]
	 SCS Same-Spin Energy      =      -0.0314455517574103 [Eh]
	 SCS Opposite-Spin Energy  =      -0.2702448556291219 [Eh]
	 SCS Correlation Energy    =      -0.3016904073865321 [Eh]
	 SCS Total Energy          =   -2896.4296020391484490 [Eh]
	-----------------------------------------------------------

*** Psi4 exiting successfully. Buy a developer a beer!
