                               Psi4 1.9 release

  ==> Input File <==

--------------------------------------------------------------------------
MEMORY 60 GB

molecule dimer {
0 1
Br     0.000000     0.000000     0.000000
Na     0.000000     2.514159     0.000000
--
1 1
Na     5.028318     0.000000     0.000000

units ang
no_reorient
no_com
symmetry c1
}

set {
basis        aug-cc-pVTZ
scf_type     df
}

energy("mp2", bsse_type="cp")
--------------------------------------------------------------------------

                               Psi4 1.9 release
    Molecular point group: c1
  Charge       = 1
  Multiplicity = 1
  Basis Set: AUG-CC-PVTZ
    Blend: AUG-CC-PVTZ
  Basis Set: (AUG-CC-PVTZ AUX)
    Blend: AUG-CC-PVTZ-JKFIT + DEF2-UNIVERSAL-JKFIT
  @DF-RHF Final Energy:  -161.67602710727226
    Total Energy =                       -161.6760271072722617
 Dipole X            :        -95.0216448          104.5235828            9.5019380
 Dipole Y            :          0.0000632            0.0000000            0.0000632
 Dipole Z            :         -0.0000000            0.0000000           -0.0000000
 Magnitude           :                                                    9.5019380
  Basis Set: (AUG-CC-PVTZ AUX)
    Blend: AUG-CC-PVTZ-RI + DEF2-QZVPP-RI
	 Reference Energy          =    -161.6760271072722617 [Eh]
	 Singles Energy            =      -0.0000000000000000 [Eh]
	 Same-Spin Energy          =      -0.0019783071449625 [Eh]
	 Opposite-Spin Energy      =      -0.0079735387681644 [Eh]
	 Correlation Energy        =      -0.0099518459131269 [Eh]
	 Total Energy              =    -161.6859789531853835 [Eh]
	 SCS Total Energy          =    -161.6862547895090358 [Eh]
                               Psi4 1.9 release
    Molecular point group: c1
  Multiplicity = 1
  Basis Set: AUG-CC-PVTZ
    Blend: AUG-CC-PVTZ
  Basis Set: (AUG-CC-PVTZ AUX)
    Blend: AUG-CC-PVTZ-JKFIT + DEF2-UNIVERSAL-JKFIT
  @DF-RHF Final Energy: -2734.40587642708215
    Total Energy =                      -2734.4058764270821484
  Basis Set: (AUG-CC-PVTZ AUX)
	 Singles Energy            =      -0.0000000000000000 [Eh]
	 Same-Spin Energy          =      -0.0911825657970138 [Eh]
	 Opposite-Spin Energy      =      -0.2142314544862305 [Eh]
	 Correlation Energy        =      -0.3054140202832443 [Eh]
	 Total Energy              =   -2734.7112904473651724 [Eh]
	 SCS Total Energy          =   -2734.6933483610646363 [Eh]
                               Psi4 1.9 release
    Molecular point group: c1

    Geometry (in Bohr), charge = 1, multiplicity = 1:

       Center              X                  Y                   Z               Mass
    ------------   -----------------  -----------------  -----------------  -----------------
         BR           0.000000000000     0.000000000000     0.000000000000    78.918337600000
         NA           0.000000000000     4.751071945855     0.000000000000    22.989769282000
         NA           9.502143891710     0.000000000000     0.000000000000    22.989769282000

  Charge       = 1
  Multiplicity = 1
  Basis Set: AUG-CC-PVTZ
    Blend: AUG-CC-PVTZ
  Basis Set: (AUG-CC-PVTZ AUX)
    Blend: AUG-CC-PVTZ-JKFIT + DEF2-UNIVERSAL-JKFIT

    Orbital Energies [Eh]
    ---------------------

    Doubly Occupied:

       1A   -490.017627     2A    -65.158035     3A    -58.512538
       4A    -58.512471     5A    -58.512428     6A    -40.747518
       7A    -40.604393     8A     -9.830637     9A     -7.438454
      10A     -7.437986    11A     -7.437604    12A     -3.180179
      13A     -3.180081    14A     -3.179609    15A     -3.179181
      16A     -3.179114    17A     -3.059204    18A     -2.925392
      19A     -1.782514    20A     -1.782412    21A     -1.782134
      22A     -1.648321    23A     -1.648072    24A     -1.648045
      25A     -0.990318    26A     -0.454446    27A     -0.438639
      28A     -0.436599

  @DF-RHF Final Energy: -2896.09492731082946

   => Energetics <=

    Nuclear Repulsion Energy =            132.9411240775980048
    One-Electron Energy =               -4300.6642017469675920
    Two-Electron Energy =                1271.6281503585398696
    Total Energy =                      -2896.0949273108299167
 Dipole X            :        -95.4458532          104.5235828            9.0777296
 Dipole Y            :        -48.4936554           52.2617914            3.7681360
 Dipole Z            :         -0.0000000            0.0000000           -0.0000000
 Magnitude           :                                                    9.8287346
  Basis Set: (AUG-CC-PVTZ AUX)
    Blend: AUG-CC-PVTZ-RI + DEF2-QZVPP-RI
	 Reference Energy          =   -2896.0949273108294619 [Eh]
	 Singles Energy            =      -0.0000000000000000 [Eh]
	 Same-Spin Energy          =      -0.0931983872499090 [Eh]
	 Opposite-Spin Energy      =      -0.2223470806719911 [Eh]
	 Correlation Energy        =      -0.3155454679219001 [Eh]
	 Total Energy              =   -2896.4104727787512275 [Eh]

	 ================> DF-SCS-MP2 Energies <==================
	-----------------------------------------------------------
	 SCS Same-Spin Scale       =       0.3333333333333333 [-]
	 SCS Opposite-Spin Scale   =       1.2000000000000000 [-]
	 SCS Same-Spin Energy      =      -0.0310661290833030 [Eh]
	 SCS Opposite-Spin Energy  =      -0.2668164968063893 [Eh]
	 SCS Correlation Energy    =      -0.2978826258896923 [Eh]
	 SCS Total Energy          =   -2896.3928099367190043 [Eh]
	-----------------------------------------------------------

*** Psi4 exiting successfully. Buy a developer a beer!
