                               Psi4 1.8.2 release

  ==> Input File <==

--------------------------------------------------------------------------
MEMORY 60 GB

molecule dimer {
1 1
Gh(Br)     0.000000     0.000000     0.000000
Gh(Na)     0.000000     2.514159     0.000000
Na         3.268407     0.000000     0.000000

units ang
no_reorient
no_com
symmetry c1
}

set {
basis        aug-cc-pVTZ
scf_type     df
}

energy("mp2")
--------------------------------------------------------------------------

    Molecular point group: c1

    Geometry (in Angstrom), charge = 1, multiplicity = 1:

       Center              X                  Y                   Z               Mass
    ------------   -----------------  -----------------  -----------------  -----------------
      Gh(BR)          0.000000000000     0.000000000000     0.000000000000    78.918337600000
      Gh(NA)          0.000000000000     2.514159000000     0.000000000000    22.989769282000
         NA           3.268407000000     0.000000000000     0.000000000000    22.989769282000

  Charge       = 1
  Multiplicity = 1
  Basis Set: AUG-CC-PVTZ
    Blend: AUG-CC-PVTZ
  Basis Set: (AUG-CC-PVTZ AUX)
    Blend: AUG-CC-PVTZ-JKFIT + DEF2-UNIVERSAL-JKFIT

    Orbital Energies [Eh]
    ---------------------

    Doubly Occupied:

       1A    -40.763038     2A     -3.075017     3A     -1.798286
       4A     -1.798177     5A     -1.798148

  @DF-RHF Final Energy:  -161.67603502183510

   => Energetics <=

    Nuclear Repulsion Energy =              0.0000000000000000
    One-Electron Energy =                -224.8867393600362163
    Two-Electron Energy =                  63.2107043382010971
    Total Energy =                       -161.6760350218351050
 Dipole X            :        -61.7645618           67.9403351            6.1757732
 Dipole Y            :          0.0000877            0.0000000            0.0000877
 Dipole Z            :          0.0000000            0.0000000            0.0000000
 Magnitude           :                                                    6.1757732
  Basis Set: (AUG-CC-PVTZ AUX)
    Blend: AUG-CC-PVTZ-RI + DEF2-QZVPP-RI
	 Reference Energy          =    -161.6760350218351050 [Eh]
	 Singles Energy            =      -0.0000000000000000 [Eh]
	 Same-Spin Energy          =      -0.0022917982134129 [Eh]
	 Opposite-Spin Energy      =      -0.0088596370343971 [Eh]
	 Correlation Energy        =      -0.0111514352478100 [Eh]
	 Total Energy              =    -161.6871864570829018 [Eh]

	 ================> DF-SCS-MP2 Energies <==================
	-----------------------------------------------------------
	 SCS Same-Spin Scale       =       0.3333333333333333 [-]
	 SCS Opposite-Spin Scale   =       1.2000000000000000 [-]
	 SCS Same-Spin Energy      =      -0.0007639327378043 [Eh]
	 SCS Opposite-Spin Energy  =      -0.0106315644412765 [Eh]
	 SCS Correlation Energy    =      -0.0113954971790808 [Eh]
	 SCS Total Energy          =    -161.6874305190141854 [Eh]
	-----------------------------------------------------------

*** Psi4 exiting successfully. Buy a developer a beer!
