                               Psi4 1.8.2 release

  ==> Input File <==

--------------------------------------------------------------------------
MEMORY 60 GB

molecule dimer {
-1 1
Na         0.000000     0.000000     0.000000
Br         0.000000     2.514159     0.000000
Br         2.765575     0.000000     0.000000

units ang
no_reorient
no_com
symmetry c1
}

set {
basis        aug-cc-pVTZ
scf_type     df
}

energy("mp2")
--------------------------------------------------------------------------

    Molecular point group: c1

    Geometry (in Angstrom), charge = -1, multiplicity = 1:

       Center              X                  Y                   Z               Mass
    ------------   -----------------  -----------------  -----------------  -----------------
         NA           0.000000000000     0.000000000000     0.000000000000    22.989769282000
         BR           0.000000000000     2.514159000000     0.000000000000    78.918337600000
         BR           2.765575000000     0.000000000000     0.000000000000    78.918337600000

  Charge       = -1
  Multiplicity = 1
  Basis Set: AUG-CC-PVTZ
    Blend: AUG-CC-PVTZ
  Basis Set: (AUG-CC-PVTZ AUX)
    Blend: AUG-CC-PVTZ-JKFIT + DEF2-UNIVERSAL-JKFIT

    Orbital Energies [Eh]
    ---------------------

    Doubly Occupied:

       1A   -489.766579     2A   -489.759027     3A    -64.907201
       4A    -64.899305     5A    -58.261707     6A    -58.261666
       7A    -58.261554     8A    -58.253850     9A    -58.253779
      10A    -58.253692    11A    -40.318705    12A     -9.579983
      13A     -9.571774    14A     -7.187904    15A     -7.187376
      16A     -7.186991    17A     -7.179643    18A     -7.179113
      19A     -7.178755    20A     -2.929646    21A     -2.929542
      22A     -2.929006    23A     -2.928462    24A     -2.928369
      25A     -2.921459    26A     -2.921334    27A     -2.920850
      28A     -2.920207    29A     -2.920142    30A     -2.642747
      31A     -1.366208    32A     -1.365862    33A     -1.364744
      34A     -0.742752    35A     -0.728978    36A     -0.217576
      37A     -0.198272    38A     -0.193095    39A     -0.186715
      40A     -0.177858    41A     -0.161793

  @DF-RHF Final Energy: -5306.97281236758317

   => Energetics <=

    Nuclear Repulsion Energy =            328.1415565673636365
    One-Electron Energy =               -8070.1402866817070390
    Two-Electron Energy =                2435.0259177467596601
    Total Energy =                      -5306.9728123675840834
 Dipole X            :       -187.2247687          182.9162765           -4.3084922
 Dipole Y            :       -170.1056350          166.2875181           -3.8181169
 Dipole Z            :         -0.0000000            0.0000000           -0.0000000
 Magnitude           :                                                    5.7568326
  Basis Set: (AUG-CC-PVTZ AUX)
    Blend: AUG-CC-PVTZ-RI + DEF2-QZVPP-RI
	 Reference Energy          =   -5306.9728123675831739 [Eh]
	 Singles Energy            =      -0.0000000000000000 [Eh]
	 Same-Spin Energy          =      -0.1820800030515977 [Eh]
	 Opposite-Spin Energy      =      -0.4218978101285091 [Eh]
	 Correlation Energy        =      -0.6039778131801068 [Eh]
	 Total Energy              =   -5307.5767901807630551 [Eh]

	 ================> DF-SCS-MP2 Energies <==================
	-----------------------------------------------------------
	 SCS Same-Spin Scale       =       0.3333333333333333 [-]
	 SCS Opposite-Spin Scale   =       1.2000000000000000 [-]
	 SCS Same-Spin Energy      =      -0.0606933343505326 [Eh]
	 SCS Opposite-Spin Energy  =      -0.5062773721542109 [Eh]
	 SCS Correlation Energy    =      -0.5669707065047435 [Eh]
	 SCS Total Energy          =   -5307.5397830740876088 [Eh]
	-----------------------------------------------------------

*** Psi4 exiting successfully. Buy a developer a beer!
