                               Psi4 1.8.2 release

  ==> Input File <==

--------------------------------------------------------------------------
MEMORY 60 GB

molecule dimer {
-1 1
Gh(Na)     0.000000     0.000000     0.000000
Gh(Br)     0.000000     2.514159     0.000000
Br         3.268407     0.000000     0.000000

units ang
no_reorient
no_com
symmetry c1
}

set {
basis        aug-cc-pVTZ
scf_type     df
}

energy("mp2")
--------------------------------------------------------------------------

    Molecular point group: c1

    Geometry (in Angstrom), charge = -1, multiplicity = 1:

       Center              X                  Y                   Z               Mass
    ------------   -----------------  -----------------  -----------------  -----------------
      Gh(NA)          0.000000000000     0.000000000000     0.000000000000    22.989769282000
      Gh(BR)          0.000000000000     2.514159000000     0.000000000000    78.918337600000
         BR           3.268407000000     0.000000000000     0.000000000000    78.918337600000

  Charge       = -1
  Multiplicity = 1
  Basis Set: AUG-CC-PVTZ
    Blend: AUG-CC-PVTZ
  Basis Set: (AUG-CC-PVTZ AUX)
    Blend: AUG-CC-PVTZ-JKFIT + DEF2-UNIVERSAL-JKFIT

    Orbital Energies [Eh]
    ---------------------

    Doubly Occupied:

       1A   -489.720734     2A    -64.860710     3A    -58.215195
       4A    -58.215195     5A    -58.215194     6A     -9.532929
       7A     -7.140275     8A     -7.140274     9A     -7.140266
      10A     -2.881950    11A     -2.881949    12A     -2.881947
      13A     -2.881945    14A     -2.881944    15A     -0.685998
      16A     -0.139341    17A     -0.139337    18A     -0.139337

  @DF-RHF Final Energy: -2572.53368001591298

   => Energetics <=

    Nuclear Repulsion Energy =              0.0000000000000000
    One-Electron Energy =               -3593.6783190110741089
    Two-Electron Energy =                1021.1446389951607898
    Total Energy =                      -2572.5336800159134327
 Dipole X            :       -222.3505069          216.1737934           -6.1767135
 Dipole Y            :         -0.0000478            0.0000000           -0.0000478
 Dipole Z            :          0.0000000            0.0000000            0.0000000
 Magnitude           :                                                    6.1767135
  Basis Set: (AUG-CC-PVTZ AUX)
    Blend: AUG-CC-PVTZ-RI + DEF2-QZVPP-RI
	 Reference Energy          =   -2572.5336800159129780 [Eh]
	 Singles Energy            =      -0.0000000000000000 [Eh]
	 Same-Spin Energy          =      -0.0875529214896334 [Eh]
	 Opposite-Spin Energy      =      -0.2029726080073619 [Eh]
	 Correlation Energy        =      -0.2905255294969952 [Eh]
	 Total Energy              =   -2572.8242055454097681 [Eh]

	 ================> DF-SCS-MP2 Energies <==================
	-----------------------------------------------------------
	 SCS Same-Spin Scale       =       0.3333333333333333 [-]
	 SCS Opposite-Spin Scale   =       1.2000000000000000 [-]
	 SCS Same-Spin Energy      =      -0.0291843071632111 [Eh]
	 SCS Opposite-Spin Energy  =      -0.2435671296088343 [Eh]
	 SCS Correlation Energy    =      -0.2727514367720454 [Eh]
	 SCS Total Energy          =   -2572.8064314526850467 [Eh]
	-----------------------------------------------------------

*** Psi4 exiting successfully. Buy a developer a beer!
