                               Psi4 1.9 release

  ==> Input File <==

--------------------------------------------------------------------------
MEMORY 60 GB

molecule dimer {
0 1
Na     0.000000     0.000000     0.000000
Br     0.000000     2.514159     0.000000
--
-1 1
Br     5.028318     0.000000     0.000000

units ang
no_reorient
no_com
symmetry c1
}

set {
basis        aug-cc-pVTZ
scf_type     df
}

energy("mp2", bsse_type="cp")
--------------------------------------------------------------------------

                               Psi4 1.9 release
    Molecular point group: c1
  Charge       = -1
  Multiplicity = 1
  Basis Set: AUG-CC-PVTZ
    Blend: AUG-CC-PVTZ
  Basis Set: (AUG-CC-PVTZ AUX)
    Blend: AUG-CC-PVTZ-JKFIT + DEF2-UNIVERSAL-JKFIT
  @DF-RHF Final Energy: -2572.53367116718982
    Total Energy =                      -2572.5336711671898229
 Dipole X            :       -342.0773521          332.5750362           -9.5023159
 Dipole Y            :         -0.0000552            0.0000000           -0.0000552
 Dipole Z            :          0.0000000            0.0000000            0.0000000
 Magnitude           :                                                    9.5023159
  Basis Set: (AUG-CC-PVTZ AUX)
    Blend: AUG-CC-PVTZ-RI + DEF2-QZVPP-RI
	 Reference Energy          =   -2572.5336711671898229 [Eh]
	 Singles Energy            =      -0.0000000000000000 [Eh]
	 Same-Spin Energy          =      -0.0869698048190393 [Eh]
	 Opposite-Spin Energy      =      -0.2016168253784194 [Eh]
	 Correlation Energy        =      -0.2885866301974586 [Eh]
	 Total Energy              =   -2572.8222577973874650 [Eh]
	 SCS Total Energy          =   -2572.8046012925838113 [Eh]
                               Psi4 1.9 release
    Molecular point group: c1
  Multiplicity = 1
  Basis Set: AUG-CC-PVTZ
    Blend: AUG-CC-PVTZ
  Basis Set: (AUG-CC-PVTZ AUX)
    Blend: AUG-CC-PVTZ-JKFIT + DEF2-UNIVERSAL-JKFIT
  @DF-RHF Final Energy: -2734.40586601442192
    Total Energy =                      -2734.4058660144219175
  Basis Set: (AUG-CC-PVTZ AUX)
	 Singles Energy            =      -0.0000000000000000 [Eh]
	 Same-Spin Energy          =      -0.0910687565233066 [Eh]
	 Opposite-Spin Energy      =      -0.2139835541366590 [Eh]
	 Correlation Energy        =      -0.3050523106599656 [Eh]
	 Total Energy              =   -2734.7109183250818205 [Eh]
	 SCS Total Energy          =   -2734.6930025315605235 [Eh]
                               Psi4 1.9 release
    Molecular point group: c1

    Geometry (in Bohr), charge = -1, multiplicity = 1:

       Center              X                  Y                   Z               Mass
    ------------   -----------------  -----------------  -----------------  -----------------
         NA           0.000000000000     0.000000000000     0.000000000000    22.989769282000
         BR           0.000000000000     4.751071945855     0.000000000000    78.918337600000
         BR           9.502143891710     0.000000000000     0.000000000000    78.918337600000

  Charge       = -1
  Multiplicity = 1
  Basis Set: AUG-CC-PVTZ
    Blend: AUG-CC-PVTZ
  Basis Set: (AUG-CC-PVTZ AUX)
    Blend: AUG-CC-PVTZ-JKFIT + DEF2-UNIVERSAL-JKFIT

    Orbital Energies [Eh]
    ---------------------

    Doubly Occupied:

       1A   -489.814407     2A   -489.731621     3A    -64.954881
       4A    -64.871676     5A    -58.309384     6A    -58.309326
       7A    -58.309290     8A    -58.226178     9A    -58.226139
      10A    -58.226126    11A    -40.406391    12A     -9.627535
      13A     -9.544027    14A     -7.235498    15A     -7.234759
      16A     -7.234606    17A     -7.151519    18A     -7.151321
      19A     -7.151251    20A     -2.977171    21A     -2.976915
      22A     -2.976727    23A     -2.975990    24A     -2.975978
      25A     -2.893234    26A     -2.893175    27A     -2.893087
      28A     -2.892839    29A     -2.892832    30A     -2.727265
      31A     -1.450160    32A     -1.450079    33A     -1.449651
      34A     -0.788105    35A     -0.696985    36A     -0.253548
      37A     -0.235945    38A     -0.234442    39A     -0.151005
      40A     -0.150104    41A     -0.149594

  @DF-RHF Final Energy: -5306.94896736097417

   => Energetics <=

    Nuclear Repulsion Energy =            236.8595271366598638
    One-Electron Energy =               -7886.0154628681539180
    Two-Electron Energy =                2342.2069683705203715
    Total Energy =                      -5306.9489673609732563
 Dipole X            :       -341.6698070          332.5750362           -9.0947708
 Dipole Y            :       -170.0423957          166.2875181           -3.7548776
 Dipole Z            :         -0.0000000            0.0000000           -0.0000000
 Magnitude           :                                                    9.8394086
  Basis Set: (AUG-CC-PVTZ AUX)
    Blend: AUG-CC-PVTZ-RI + DEF2-QZVPP-RI
	 Reference Energy          =   -5306.9489673609741658 [Eh]
	 Singles Energy            =      -0.0000000000000000 [Eh]
	 Same-Spin Energy          =      -0.1782638945204798 [Eh]
	 Opposite-Spin Energy      =      -0.4158100948902218 [Eh]
	 Correlation Energy        =      -0.5940739894107017 [Eh]
	 Total Energy              =   -5307.5430413503845557 [Eh]

	 ================> DF-SCS-MP2 Energies <==================
	-----------------------------------------------------------
	 SCS Same-Spin Scale       =       0.3333333333333333 [-]
	 SCS Opposite-Spin Scale   =       1.2000000000000000 [-]
	 SCS Same-Spin Energy      =      -0.0594212981734933 [Eh]
	 SCS Opposite-Spin Energy  =      -0.4989721138682661 [Eh]
	 SCS Correlation Energy    =      -0.5583934120417594 [Eh]
	 SCS Total Energy          =   -5307.5073607730155345 [Eh]
	-----------------------------------------------------------

*** Psi4 exiting successfully. Buy a developer a beer!
