                               Psi4 1.8.2 release

  ==> Input File <==

--------------------------------------------------------------------------
MEMORY 60 GB

molecule dimer {
-1 1
Gh(Na)     0.000000     0.000000     0.000000
Br         0.000000     2.514159     0.000000
Gh(Br)     3.268407     0.000000     0.000000

units ang
no_reorient
no_com
symmetry c1
}

set {
basis        aug-cc-pVTZ
scf_type     df
}

energy("mp2")
--------------------------------------------------------------------------

    Molecular point group: c1

    Geometry (in Angstrom), charge = -1, multiplicity = 1:

       Center              X                  Y                   Z               Mass
    ------------   -----------------  -----------------  -----------------  -----------------
      Gh(NA)          0.000000000000     0.000000000000     0.000000000000    22.989769282000
         BR           0.000000000000     2.514159000000     0.000000000000    78.918337600000
      Gh(BR)          3.268407000000     0.000000000000     0.000000000000    78.918337600000

  Charge       = -1
  Multiplicity = 1
  Basis Set: AUG-CC-PVTZ
    Blend: AUG-CC-PVTZ
  Basis Set: (AUG-CC-PVTZ AUX)
    Blend: AUG-CC-PVTZ-JKFIT + DEF2-UNIVERSAL-JKFIT

    Orbital Energies [Eh]
    ---------------------

    Doubly Occupied:

       1A   -489.721049     2A    -64.860934     3A    -58.215433
       4A    -58.215433     5A    -58.215428     6A     -9.532996
       7A     -7.140343     8A     -7.140341     9A     -7.140330
      10A     -2.882028    11A     -2.882027    12A     -2.882018
      13A     -2.882017    14A     -2.882009    15A     -0.685997
      16A     -0.139339    17A     -0.139337    18A     -0.139337

  @DF-RHF Final Energy: -2572.53368977156424

   => Energetics <=

    Nuclear Repulsion Energy =              0.0000000000000000
    One-Electron Energy =               -3593.6745832074789178
    Two-Electron Energy =                1021.1408934359143359
    Total Energy =                      -2572.5336897715646955
 Dipole X            :         -0.0001115            0.0000000           -0.0001115
 Dipole Y            :       -171.0391517          166.2875181           -4.7516336
 Dipole Z            :          0.0000000            0.0000000            0.0000000
 Magnitude           :                                                    4.7516336
  Basis Set: (AUG-CC-PVTZ AUX)
    Blend: AUG-CC-PVTZ-RI + DEF2-QZVPP-RI
	 Reference Energy          =   -2572.5336897715642408 [Eh]
	 Singles Energy            =      -0.0000000000000000 [Eh]
	 Same-Spin Energy          =      -0.0883522481173395 [Eh]
	 Opposite-Spin Energy      =      -0.2048009663099694 [Eh]
	 Correlation Energy        =      -0.2931532144273089 [Eh]
	 Total Energy              =   -2572.8268429859913340 [Eh]

	 ================> DF-SCS-MP2 Energies <==================
	-----------------------------------------------------------
	 SCS Same-Spin Scale       =       0.3333333333333333 [-]
	 SCS Opposite-Spin Scale   =       1.2000000000000000 [-]
	 SCS Same-Spin Energy      =      -0.0294507493724465 [Eh]
	 SCS Opposite-Spin Energy  =      -0.2457611595719633 [Eh]
	 SCS Correlation Energy    =      -0.2752119089444098 [Eh]
	 SCS Total Energy          =   -2572.8089016805088249 [Eh]
	-----------------------------------------------------------

*** Psi4 exiting successfully. Buy a developer a beer!
