                               Psi4 1.8.2 release

  ==> Input File <==

--------------------------------------------------------------------------
MEMORY 60 GB

molecule dimer {
-1 1
Na         0.000000     0.000000     0.000000
Br         0.000000     2.514159     0.000000
Br         2.514159     0.000000     0.000000

units ang
no_reorient
no_com
symmetry c1
}

set {
basis        aug-cc-pVTZ
scf_type     df
}

energy("mp2")
--------------------------------------------------------------------------

    Molecular point group: c1

    Geometry (in Angstrom), charge = -1, multiplicity = 1:

       Center              X                  Y                   Z               Mass
    ------------   -----------------  -----------------  -----------------  -----------------
         NA           0.000000000000     0.000000000000     0.000000000000    22.989769282000
         BR           0.000000000000     2.514159000000     0.000000000000    78.918337600000
         BR           2.514159000000     0.000000000000     0.000000000000    78.918337600000

  Charge       = -1
  Multiplicity = 1
  Basis Set: AUG-CC-PVTZ
    Blend: AUG-CC-PVTZ
  Basis Set: (AUG-CC-PVTZ AUX)
    Blend: AUG-CC-PVTZ-JKFIT + DEF2-UNIVERSAL-JKFIT

    Orbital Energies [Eh]
    ---------------------

    Doubly Occupied:

       1A   -489.760649     2A   -489.760649     3A    -64.901332
       4A    -64.901332     5A    -58.255831     6A    -58.255831
       7A    -58.255794     8A    -58.255794     9A    -58.255672
      10A    -58.255672    11A    -40.301585    12A     -9.574180
      13A     -9.574178    14A     -7.182082    15A     -7.182080
      16A     -7.181591    17A     -7.181590    18A     -7.181189
      19A     -7.181187    20A     -2.923843    21A     -2.923841
      22A     -2.923757    23A     -2.923754    24A     -2.923171
      25A     -2.923166    26A     -2.922661    27A     -2.922656
      28A     -2.922553    29A     -2.922550    30A     -2.628749
      31A     -1.352105    32A     -1.351626    33A     -1.351453
      34A     -0.741669    35A     -0.731266    36A     -0.221390
      37A     -0.197504    38A     -0.192780    39A     -0.190032
      40A     -0.178424    41A     -0.156446

  @DF-RHF Final Energy: -5306.96723792708053

   => Energetics <=

    Nuclear Repulsion Energy =            344.3866617050555305
    One-Electron Energy =               -8102.8605740586071988
    Two-Electron Energy =                2451.5066744264709087
    Total Energy =                      -5306.9672379270814417
 Dipole X            :       -170.1202413          166.2875181           -3.8327232
 Dipole Y            :       -170.1202413          166.2875181           -3.8327232
 Dipole Z            :         -0.0000000            0.0000000           -0.0000000
 Magnitude           :                                                    5.4202892
  Basis Set: (AUG-CC-PVTZ AUX)
    Blend: AUG-CC-PVTZ-RI + DEF2-QZVPP-RI
	 Reference Energy          =   -5306.9672379270805322 [Eh]
	 Singles Energy            =      -0.0000000000000000 [Eh]
	 Same-Spin Energy          =      -0.1833267793994849 [Eh]
	 Opposite-Spin Energy      =      -0.4237048515892565 [Eh]
	 Correlation Energy        =      -0.6070316309887415 [Eh]
	 Total Energy              =   -5307.5742695580693180 [Eh]

	 ================> DF-SCS-MP2 Energies <==================
	-----------------------------------------------------------
	 SCS Same-Spin Scale       =       0.3333333333333333 [-]
	 SCS Opposite-Spin Scale   =       1.2000000000000000 [-]
	 SCS Same-Spin Energy      =      -0.0611089264664950 [Eh]
	 SCS Opposite-Spin Energy  =      -0.5084458219071079 [Eh]
	 SCS Correlation Energy    =      -0.5695547483736029 [Eh]
	 SCS Total Energy          =   -5307.5367926754543078 [Eh]
	-----------------------------------------------------------

*** Psi4 exiting successfully. Buy a developer a beer!
