                               Psi4 1.8.2 release

  ==> Input File <==

--------------------------------------------------------------------------
MEMORY 60 GB

molecule dimer {
1 1
Na     0.000000     0.000000     0.000000
--
-1 1
Br     0.000000     2.514159     0.000000
--
-1 1
Br     2.765575     0.000000     0.000000

units ang
no_reorient
no_com
symmetry c1
}

set {
basis        aug-cc-pVTZ
scf_type     df
}

energy("mp2", bsse_type="cp")
--------------------------------------------------------------------------

                               Psi4 1.8.2 release
    Molecular point group: c1
  Charge       = 1
  Multiplicity = 1
  Basis Set: AUG-CC-PVTZ
    Blend: AUG-CC-PVTZ
  Basis Set: (AUG-CC-PVTZ AUX)
    Blend: AUG-CC-PVTZ-JKFIT + DEF2-UNIVERSAL-JKFIT
  @DF-RHF Final Energy:  -161.67604829368705
    Total Energy =                       -161.6760482936870460
 Dipole X            :          0.0004804            0.0000000            0.0004804
 Dipole Y            :          0.0004625            0.0000000            0.0004625
 Dipole Z            :          0.0000000            0.0000000            0.0000000
 Magnitude           :                                                    0.0006668
  Basis Set: (AUG-CC-PVTZ AUX)
    Blend: AUG-CC-PVTZ-RI + DEF2-QZVPP-RI
	 Reference Energy          =    -161.6760482936870460 [Eh]
	 Singles Energy            =      -0.0000000000000000 [Eh]
	 Same-Spin Energy          =      -0.0029720253455979 [Eh]
	 Opposite-Spin Energy      =      -0.0106678205938330 [Eh]
	 Correlation Energy        =      -0.0136398459394309 [Eh]
	 Total Energy              =    -161.6896881396264689 [Eh]
	 SCS Total Energy          =    -161.6898403535148532 [Eh]
                               Psi4 1.8.2 release
    Molecular point group: c1
  Basis Set: AUG-CC-PVTZ
    Blend: AUG-CC-PVTZ
  Basis Set: (AUG-CC-PVTZ AUX)
    Blend: AUG-CC-PVTZ-JKFIT + DEF2-UNIVERSAL-JKFIT
  @DF-RHF Final Energy: -2572.53369034179832
    Total Energy =                      -2572.5336903417978647
  Basis Set: (AUG-CC-PVTZ AUX)
                               Psi4 1.8.2 release
  @DF-RHF Final Energy: -5144.93624882863423
    Total Energy =                      -5144.9362488286351436
                               Psi4 1.8.2 release
  @DF-RHF Final Energy: -2734.40238624650920
    Total Energy =                      -2734.4023862465091952
                               Psi4 1.8.2 release
  @DF-RHF Final Energy: -2734.40591313346977
    Total Energy =                      -2734.4059131334697668
                               Psi4 1.8.2 release
  Multiplicity = 1
  @DF-RHF Final Energy: -2572.53368676215450
    Total Energy =                      -2572.5336867621549573
	 Singles Energy            =      -0.0000000000000000 [Eh]
	 Same-Spin Energy          =      -0.0880662284432670 [Eh]
	 Opposite-Spin Energy      =      -0.2041862995627842 [Eh]
	 Correlation Energy        =      -0.2922525280060512 [Eh]
	 Total Energy              =   -2572.8259392901604770 [Eh]
	 SCS Total Energy          =   -2572.8080657311111281 [Eh]
                               Psi4 1.8.2 release
    Molecular point group: c1

    Geometry (in Bohr), charge = -1, multiplicity = 1:

       Center              X                  Y                   Z               Mass
    ------------   -----------------  -----------------  -----------------  -----------------
         NA           0.000000000000     0.000000000000     0.000000000000    22.989769282000
         BR           0.000000000000     4.751071945855     0.000000000000    78.918337600000
         BR           5.226179329413     0.000000000000     0.000000000000    78.918337600000

  Charge       = -1
  Multiplicity = 1
  Basis Set: AUG-CC-PVTZ
    Blend: AUG-CC-PVTZ
  Basis Set: (AUG-CC-PVTZ AUX)
    Blend: AUG-CC-PVTZ-JKFIT + DEF2-UNIVERSAL-JKFIT

    Orbital Energies [Eh]
    ---------------------

    Doubly Occupied:

       1A   -489.766579     2A   -489.759027     3A    -64.907201
       4A    -64.899305     5A    -58.261707     6A    -58.261666
       7A    -58.261554     8A    -58.253850     9A    -58.253779
      10A    -58.253692    11A    -40.318705    12A     -9.579983
      13A     -9.571774    14A     -7.187904    15A     -7.187376
      16A     -7.186991    17A     -7.179643    18A     -7.179113
      19A     -7.178755    20A     -2.929646    21A     -2.929542
      22A     -2.929006    23A     -2.928462    24A     -2.928369
      25A     -2.921459    26A     -2.921334    27A     -2.920850
      28A     -2.920207    29A     -2.920142    30A     -2.642747
      31A     -1.366208    32A     -1.365862    33A     -1.364744
      34A     -0.742752    35A     -0.728978    36A     -0.217576
      37A     -0.198272    38A     -0.193095    39A     -0.186715
      40A     -0.177858    41A     -0.161793

  @DF-RHF Final Energy: -5306.97281236758772

   => Energetics <=

    Nuclear Repulsion Energy =            328.1415565673636365
    One-Electron Energy =               -8070.1402866817143149
    Two-Electron Energy =                2435.0259177467632981
    Total Energy =                      -5306.9728123675877214
 Dipole X            :       -187.2247687          182.9162765           -4.3084922
 Dipole Y            :       -170.1056350          166.2875181           -3.8181169
 Dipole Z            :         -0.0000000            0.0000000           -0.0000000
 Magnitude           :                                                    5.7568326
  Basis Set: (AUG-CC-PVTZ AUX)
    Blend: AUG-CC-PVTZ-RI + DEF2-QZVPP-RI
	 Reference Energy          =   -5306.9728123675877214 [Eh]
	 Singles Energy            =      -0.0000000000000000 [Eh]
	 Same-Spin Energy          =      -0.1820800030515990 [Eh]
	 Opposite-Spin Energy      =      -0.4218978101285102 [Eh]
	 Correlation Energy        =      -0.6039778131801092 [Eh]
	 Total Energy              =   -5307.5767901807676026 [Eh]

	 ================> DF-SCS-MP2 Energies <==================
	-----------------------------------------------------------
	 SCS Same-Spin Scale       =       0.3333333333333333 [-]
	 SCS Opposite-Spin Scale   =       1.2000000000000000 [-]
	 SCS Same-Spin Energy      =      -0.0606933343505330 [Eh]
	 SCS Opposite-Spin Energy  =      -0.5062773721542123 [Eh]
	 SCS Correlation Energy    =      -0.5669707065047453 [Eh]
	 SCS Total Energy          =   -5307.5397830740921563 [Eh]
	-----------------------------------------------------------

*** Psi4 exiting successfully. Buy a developer a beer!
