                               Psi4 1.9 release

  ==> Input File <==

--------------------------------------------------------------------------
MEMORY 60 GB

molecule dimer {
0 1
Na     0.000000     0.000000     0.000000
Br     0.000000     2.514159     0.000000
--
-1 1
Br     3.771238     0.000000     0.000000

units ang
no_reorient
no_com
symmetry c1
}

set {
basis        aug-cc-pVTZ
scf_type     df
}

energy("mp2", bsse_type="cp")
--------------------------------------------------------------------------

                               Psi4 1.9 release
    Molecular point group: c1
  Charge       = -1
  Multiplicity = 1
  Basis Set: AUG-CC-PVTZ
    Blend: AUG-CC-PVTZ
  Basis Set: (AUG-CC-PVTZ AUX)
    Blend: AUG-CC-PVTZ-JKFIT + DEF2-UNIVERSAL-JKFIT
  @DF-RHF Final Energy: -2572.53367644134687
    Total Energy =                      -2572.5336764413464152
 Dipole X            :       -256.5580710          249.4312441           -7.1268269
 Dipole Y            :          0.0000009            0.0000000            0.0000009
 Dipole Z            :         -0.0000000            0.0000000           -0.0000000
 Magnitude           :                                                    7.1268269
  Basis Set: (AUG-CC-PVTZ AUX)
    Blend: AUG-CC-PVTZ-RI + DEF2-QZVPP-RI
	 Reference Energy          =   -2572.5336764413468700 [Eh]
	 Singles Energy            =      -0.0000000000000000 [Eh]
	 Same-Spin Energy          =      -0.0872962357705165 [Eh]
	 Opposite-Spin Energy      =      -0.2023476232304983 [Eh]
	 Correlation Energy        =      -0.2896438590010149 [Eh]
	 Total Energy              =   -2572.8233203003478593 [Eh]
	 SCS Total Energy          =   -2572.8055923344804796 [Eh]
                               Psi4 1.9 release
    Molecular point group: c1
  Multiplicity = 1
  Basis Set: AUG-CC-PVTZ
    Blend: AUG-CC-PVTZ
  Basis Set: (AUG-CC-PVTZ AUX)
    Blend: AUG-CC-PVTZ-JKFIT + DEF2-UNIVERSAL-JKFIT
  @DF-RHF Final Energy: -2734.40587209931027
    Total Energy =                      -2734.4058720993107272
  Basis Set: (AUG-CC-PVTZ AUX)
	 Singles Energy            =      -0.0000000000000000 [Eh]
	 Same-Spin Energy          =      -0.0912635123653677 [Eh]
	 Opposite-Spin Energy      =      -0.2144557828580409 [Eh]
	 Correlation Energy        =      -0.3057192952234085 [Eh]
	 Total Energy              =   -2734.7115913945335706 [Eh]
	 SCS Total Energy          =   -2734.6936402095284393 [Eh]
                               Psi4 1.9 release
    Molecular point group: c1

    Geometry (in Bohr), charge = -1, multiplicity = 1:

       Center              X                  Y                   Z               Mass
    ------------   -----------------  -----------------  -----------------  -----------------
         NA           0.000000000000     0.000000000000     0.000000000000    22.989769282000
         BR           0.000000000000     4.751071945855     0.000000000000    78.918337600000
         BR           7.126606973919     0.000000000000     0.000000000000    78.918337600000

  Charge       = -1
  Multiplicity = 1
  Basis Set: AUG-CC-PVTZ
    Blend: AUG-CC-PVTZ
  Basis Set: (AUG-CC-PVTZ AUX)
    Blend: AUG-CC-PVTZ-JKFIT + DEF2-UNIVERSAL-JKFIT

    Orbital Energies [Eh]
    ---------------------

    Doubly Occupied:

       1A   -489.790658     2A   -489.744835     3A    -64.931162
       4A    -64.884826     5A    -58.285673     6A    -58.285621
       7A    -58.285553     8A    -58.239378     9A    -58.239282
      10A    -58.239250    11A    -40.370914    12A     -9.603835
      13A     -9.557086    14A     -7.211792    15A     -7.211134
      16A     -7.210870    17A     -7.164790    18A     -7.164312
      19A     -7.164146    20A     -2.953482    21A     -2.953298
      22A     -2.952963    23A     -2.952302    24A     -2.952262
      25A     -2.906591    26A     -2.906438    27A     -2.906231
      28A     -2.905611    29A     -2.905595    30A     -2.691848
      31A     -1.415015    32A     -1.414968    33A     -1.413803
      34A     -0.764641    35A     -0.710109    36A     -0.230474
      37A     -0.213102    38A     -0.211882    39A     -0.165510
      40A     -0.162547    41A     -0.160630

  @DF-RHF Final Energy: -5306.96082657461830

   => Energetics <=

    Nuclear Repulsion Energy =            278.0792457995257791
    One-Electron Energy =               -7969.2112971063834266
    Two-Electron Energy =                2384.1712247322393523
    Total Energy =                      -5306.9608265746182951
 Dipole X            :       -255.8596142          249.4312441           -6.4283701
 Dipole Y            :       -170.0556019          166.2875181           -3.7680838
 Dipole Z            :         -0.0000000            0.0000000           -0.0000000
 Magnitude           :                                                    7.4513353
  Basis Set: (AUG-CC-PVTZ AUX)
    Blend: AUG-CC-PVTZ-RI + DEF2-QZVPP-RI
	 Reference Energy          =   -5306.9608265746182951 [Eh]
	 Singles Energy            =      -0.0000000000000000 [Eh]
	 Same-Spin Energy          =      -0.1794183166875785 [Eh]
	 Opposite-Spin Energy      =      -0.4177256192371065 [Eh]
	 Correlation Energy        =      -0.5971439359246850 [Eh]
	 Total Energy              =   -5307.5579705105428729 [Eh]

	 ================> DF-SCS-MP2 Energies <==================
	-----------------------------------------------------------
	 SCS Same-Spin Scale       =       0.3333333333333333 [-]
	 SCS Opposite-Spin Scale   =       1.2000000000000000 [-]
	 SCS Same-Spin Energy      =      -0.0598061055625261 [Eh]
	 SCS Opposite-Spin Energy  =      -0.5012707430845278 [Eh]
	 SCS Correlation Energy    =      -0.5610768486470540 [Eh]
	 SCS Total Energy          =   -5307.5219034232650301 [Eh]
	-----------------------------------------------------------

*** Psi4 exiting successfully. Buy a developer a beer!
