                               Psi4 1.8.2 release

  ==> Input File <==

--------------------------------------------------------------------------
MEMORY 60 GB

molecule dimer {
-1 1
Gh(Na)     0.000000     0.000000     0.000000
Br         0.000000     2.514159     0.000000
Gh(Br)     5.028318     0.000000     0.000000

units ang
no_reorient
no_com
symmetry c1
}

set {
basis        aug-cc-pVTZ
scf_type     df
}

energy("mp2")
--------------------------------------------------------------------------

    Molecular point group: c1

    Geometry (in Angstrom), charge = -1, multiplicity = 1:

       Center              X                  Y                   Z               Mass
    ------------   -----------------  -----------------  -----------------  -----------------
      Gh(NA)          0.000000000000     0.000000000000     0.000000000000    22.989769282000
         BR           0.000000000000     2.514159000000     0.000000000000    78.918337600000
      Gh(BR)          5.028318000000     0.000000000000     0.000000000000    78.918337600000

  Charge       = -1
  Multiplicity = 1
  Basis Set: AUG-CC-PVTZ
    Blend: AUG-CC-PVTZ
  Basis Set: (AUG-CC-PVTZ AUX)
    Blend: AUG-CC-PVTZ-JKFIT + DEF2-UNIVERSAL-JKFIT

    Orbital Energies [Eh]
    ---------------------

    Doubly Occupied:

       1A   -489.721018     2A    -64.860912     3A    -58.215410
       4A    -58.215410     5A    -58.215405     6A     -9.532990
       7A     -7.140336     8A     -7.140335     9A     -7.140324
      10A     -2.882020    11A     -2.882020    12A     -2.882011
      13A     -2.882011    14A     -2.882001    15A     -0.685997
      16A     -0.139340    17A     -0.139338    18A     -0.139338

  @DF-RHF Final Energy: -2572.53368817459386

   => Energetics <=

    Nuclear Repulsion Energy =              0.0000000000000000
    One-Electron Energy =               -3593.6749444571059939
    Two-Electron Energy =                1021.1412562825121313
    Total Energy =                      -2572.5336881745938626
 Dipole X            :         -0.0000785            0.0000000           -0.0000785
 Dipole Y            :       -171.0391290          166.2875181           -4.7516109
 Dipole Z            :          0.0000000            0.0000000            0.0000000
 Magnitude           :                                                    4.7516109
  Basis Set: (AUG-CC-PVTZ AUX)
    Blend: AUG-CC-PVTZ-RI + DEF2-QZVPP-RI
	 Reference Energy          =   -2572.5336881745938626 [Eh]
	 Singles Energy            =      -0.0000000000000000 [Eh]
	 Same-Spin Energy          =      -0.0882838155021159 [Eh]
	 Opposite-Spin Energy      =      -0.2046385259328992 [Eh]
	 Correlation Energy        =      -0.2929223414350151 [Eh]
	 Total Energy              =   -2572.8266105160287225 [Eh]

	 ================> DF-SCS-MP2 Energies <==================
	-----------------------------------------------------------
	 SCS Same-Spin Scale       =       0.3333333333333333 [-]
	 SCS Opposite-Spin Scale   =       1.2000000000000000 [-]
	 SCS Same-Spin Energy      =      -0.0294279385007053 [Eh]
	 SCS Opposite-Spin Energy  =      -0.2455662311194790 [Eh]
	 SCS Correlation Energy    =      -0.2749941696201843 [Eh]
	 SCS Total Energy          =   -2572.8086823442140485 [Eh]
	-----------------------------------------------------------

*** Psi4 exiting successfully. Buy a developer a beer!
