                               Psi4 1.8.2 release

  ==> Input File <==

--------------------------------------------------------------------------
MEMORY 60 GB

molecule dimer {
-1 1
Gh(Na)     0.000000     0.000000     0.000000
Br         0.000000     2.514159     0.000000
Gh(Br)     3.016991     0.000000     0.000000

units ang
no_reorient
no_com
symmetry c1
}

set {
basis        aug-cc-pVTZ
scf_type     df
}

energy("mp2")
--------------------------------------------------------------------------

    Molecular point group: c1

    Geometry (in Angstrom), charge = -1, multiplicity = 1:

       Center              X                  Y                   Z               Mass
    ------------   -----------------  -----------------  -----------------  -----------------
      Gh(NA)          0.000000000000     0.000000000000     0.000000000000    22.989769282000
         BR           0.000000000000     2.514159000000     0.000000000000    78.918337600000
      Gh(BR)          3.016991000000     0.000000000000     0.000000000000    78.918337600000

  Charge       = -1
  Multiplicity = 1
  Basis Set: AUG-CC-PVTZ
    Blend: AUG-CC-PVTZ
  Basis Set: (AUG-CC-PVTZ AUX)
    Blend: AUG-CC-PVTZ-JKFIT + DEF2-UNIVERSAL-JKFIT

    Orbital Energies [Eh]
    ---------------------

    Doubly Occupied:

       1A   -489.721061     2A    -64.860942     3A    -58.215442
       4A    -58.215442     5A    -58.215437     6A     -9.532999
       7A     -7.140346     8A     -7.140343     9A     -7.140332
      10A     -2.882031    11A     -2.882030    12A     -2.882021
      13A     -2.882020    14A     -2.882012    15A     -0.685997
      16A     -0.139339    17A     -0.139338    18A     -0.139337

  @DF-RHF Final Energy: -2572.53369010788902

   => Energetics <=

    Nuclear Repulsion Energy =              0.0000000000000000
    One-Electron Energy =               -3593.6744404097385086
    Two-Electron Energy =                1021.1407503018492662
    Total Energy =                      -2572.5336901078890151
 Dipole X            :         -0.0001222            0.0000000           -0.0001222
 Dipole Y            :       -171.0391590          166.2875181           -4.7516409
 Dipole Z            :          0.0000000            0.0000000            0.0000000
 Magnitude           :                                                    4.7516409
  Basis Set: (AUG-CC-PVTZ AUX)
    Blend: AUG-CC-PVTZ-RI + DEF2-QZVPP-RI
	 Reference Energy          =   -2572.5336901078890151 [Eh]
	 Singles Energy            =      -0.0000000000000000 [Eh]
	 Same-Spin Energy          =      -0.0883788093584034 [Eh]
	 Opposite-Spin Energy      =      -0.2048682069607943 [Eh]
	 Correlation Energy        =      -0.2932470163191978 [Eh]
	 Total Energy              =   -2572.8269371242081434 [Eh]

	 ================> DF-SCS-MP2 Energies <==================
	-----------------------------------------------------------
	 SCS Same-Spin Scale       =       0.3333333333333333 [-]
	 SCS Opposite-Spin Scale   =       1.2000000000000000 [-]
	 SCS Same-Spin Energy      =      -0.0294596031194678 [Eh]
	 SCS Opposite-Spin Energy  =      -0.2458418483529532 [Eh]
	 SCS Correlation Energy    =      -0.2753014514724210 [Eh]
	 SCS Total Energy          =   -2572.8089915593614023 [Eh]
	-----------------------------------------------------------

*** Psi4 exiting successfully. Buy a developer a beer!
