                               Psi4 1.8.2 release

  ==> Input File <==

--------------------------------------------------------------------------
MEMORY 60 GB

molecule dimer {
1 1
Na         0.000000     0.000000     0.000000
Gh(Br)     0.000000     2.514159     0.000000
Gh(Br)     3.016991     0.000000     0.000000

units ang
no_reorient
no_com
symmetry c1
}

set {
basis        aug-cc-pVTZ
scf_type     df
}

energy("mp2")
--------------------------------------------------------------------------

    Molecular point group: c1

    Geometry (in Angstrom), charge = 1, multiplicity = 1:

       Center              X                  Y                   Z               Mass
    ------------   -----------------  -----------------  -----------------  -----------------
         NA           0.000000000000     0.000000000000     0.000000000000    22.989769282000
      Gh(BR)          0.000000000000     2.514159000000     0.000000000000    78.918337600000
      Gh(BR)          3.016991000000     0.000000000000     0.000000000000    78.918337600000

  Charge       = 1
  Multiplicity = 1
  Basis Set: AUG-CC-PVTZ
    Blend: AUG-CC-PVTZ
  Basis Set: (AUG-CC-PVTZ AUX)
    Blend: AUG-CC-PVTZ-JKFIT + DEF2-UNIVERSAL-JKFIT

    Orbital Energies [Eh]
    ---------------------

    Doubly Occupied:

       1A    -40.762397     2A     -3.074714     3A     -1.798009
       4A     -1.797953     5A     -1.797853

  @DF-RHF Final Energy:  -161.67604682458793

   => Energetics <=

    Nuclear Repulsion Energy =              0.0000000000000000
    One-Electron Energy =                -224.8902434387151175
    Two-Electron Energy =                  63.2141966141271894
    Total Energy =                       -161.6760468245879281
 Dipole X            :          0.0005158            0.0000000            0.0005158
 Dipole Y            :          0.0004764            0.0000000            0.0004764
 Dipole Z            :         -0.0000000            0.0000000           -0.0000000
 Magnitude           :                                                    0.0007022
  Basis Set: (AUG-CC-PVTZ AUX)
    Blend: AUG-CC-PVTZ-RI + DEF2-QZVPP-RI
	 Reference Energy          =    -161.6760468245879281 [Eh]
	 Singles Energy            =      -0.0000000000000000 [Eh]
	 Same-Spin Energy          =      -0.0029257874091829 [Eh]
	 Opposite-Spin Energy      =      -0.0105422343299483 [Eh]
	 Correlation Energy        =      -0.0134680217391312 [Eh]
	 Total Energy              =    -161.6895148463270573 [Eh]

	 ================> DF-SCS-MP2 Energies <==================
	-----------------------------------------------------------
	 SCS Same-Spin Scale       =       0.3333333333333333 [-]
	 SCS Opposite-Spin Scale   =       1.2000000000000000 [-]
	 SCS Same-Spin Energy      =      -0.0009752624697276 [Eh]
	 SCS Opposite-Spin Energy  =      -0.0126506811959380 [Eh]
	 SCS Correlation Energy    =      -0.0136259436656656 [Eh]
	 SCS Total Energy          =    -161.6896727682535868 [Eh]
	-----------------------------------------------------------

*** Psi4 exiting successfully. Buy a developer a beer!
