                               Psi4 1.8.2 release

  ==> Input File <==

--------------------------------------------------------------------------
MEMORY 60 GB

molecule dimer {
-1 1
Gh(Na)     0.000000     0.000000     0.000000
Gh(Br)     0.000000     2.514159     0.000000
Br         5.028318     0.000000     0.000000

units ang
no_reorient
no_com
symmetry c1
}

set {
basis        aug-cc-pVTZ
scf_type     df
}

energy("mp2")
--------------------------------------------------------------------------

    Molecular point group: c1

    Geometry (in Angstrom), charge = -1, multiplicity = 1:

       Center              X                  Y                   Z               Mass
    ------------   -----------------  -----------------  -----------------  -----------------
      Gh(NA)          0.000000000000     0.000000000000     0.000000000000    22.989769282000
      Gh(BR)          0.000000000000     2.514159000000     0.000000000000    78.918337600000
         BR           5.028318000000     0.000000000000     0.000000000000    78.918337600000

  Charge       = -1
  Multiplicity = 1
  Basis Set: AUG-CC-PVTZ
    Blend: AUG-CC-PVTZ
  Basis Set: (AUG-CC-PVTZ AUX)
    Blend: AUG-CC-PVTZ-JKFIT + DEF2-UNIVERSAL-JKFIT

    Orbital Energies [Eh]
    ---------------------

    Doubly Occupied:

       1A   -489.720463     2A    -64.860523     3A    -58.214997
       4A    -58.214997     5A    -58.214996     6A     -9.532875
       7A     -7.140219     8A     -7.140218     9A     -7.140215
      10A     -2.881887    11A     -2.881887    12A     -2.881886
      13A     -2.881885    14A     -2.881880    15A     -0.686002
      16A     -0.139340    17A     -0.139340    18A     -0.139339

  @DF-RHF Final Energy: -2572.53367116703657

   => Energetics <=

    Nuclear Repulsion Energy =              0.0000000000000000
    One-Electron Energy =               -3593.6814452049743522
    Two-Electron Energy =                1021.1477740379378929
    Total Energy =                      -2572.5336711670365730
 Dipole X            :       -342.0773521          332.5750362           -9.5023159
 Dipole Y            :         -0.0000552            0.0000000           -0.0000552
 Dipole Z            :         -0.0000000            0.0000000           -0.0000000
 Magnitude           :                                                    9.5023159
  Basis Set: (AUG-CC-PVTZ AUX)
    Blend: AUG-CC-PVTZ-RI + DEF2-QZVPP-RI
	 Reference Energy          =   -2572.5336711670365730 [Eh]
	 Singles Energy            =      -0.0000000000000000 [Eh]
	 Same-Spin Energy          =      -0.0869698048191882 [Eh]
	 Opposite-Spin Energy      =      -0.2016168253786601 [Eh]
	 Correlation Energy        =      -0.2885866301978484 [Eh]
	 Total Energy              =   -2572.8222577972342151 [Eh]

	 ================> DF-SCS-MP2 Energies <==================
	-----------------------------------------------------------
	 SCS Same-Spin Scale       =       0.3333333333333333 [-]
	 SCS Opposite-Spin Scale   =       1.2000000000000000 [-]
	 SCS Same-Spin Energy      =      -0.0289899349397294 [Eh]
	 SCS Opposite-Spin Energy  =      -0.2419401904543921 [Eh]
	 SCS Correlation Energy    =      -0.2709301253941215 [Eh]
	 SCS Total Energy          =   -2572.8046012924305614 [Eh]
	-----------------------------------------------------------

*** Psi4 exiting successfully. Buy a developer a beer!
