                               Psi4 1.8.2 release

  ==> Input File <==

--------------------------------------------------------------------------
MEMORY 60 GB

molecule dimer {
-1 1
Gh(Na)     0.000000     0.000000     0.000000
Br         0.000000     2.514159     0.000000
Gh(Br)     2.765575     0.000000     0.000000

units ang
no_reorient
no_com
symmetry c1
}

set {
basis        aug-cc-pVTZ
scf_type     df
}

energy("mp2")
--------------------------------------------------------------------------

    Molecular point group: c1

    Geometry (in Angstrom), charge = -1, multiplicity = 1:

       Center              X                  Y                   Z               Mass
    ------------   -----------------  -----------------  -----------------  -----------------
      Gh(NA)          0.000000000000     0.000000000000     0.000000000000    22.989769282000
         BR           0.000000000000     2.514159000000     0.000000000000    78.918337600000
      Gh(BR)          2.765575000000     0.000000000000     0.000000000000    78.918337600000

  Charge       = -1
  Multiplicity = 1
  Basis Set: AUG-CC-PVTZ
    Blend: AUG-CC-PVTZ
  Basis Set: (AUG-CC-PVTZ AUX)
    Blend: AUG-CC-PVTZ-JKFIT + DEF2-UNIVERSAL-JKFIT

    Orbital Energies [Eh]
    ---------------------

    Doubly Occupied:

       1A   -489.721075     2A    -64.860951     3A    -58.215452
       4A    -58.215452     5A    -58.215447     6A     -9.533002
       7A     -7.140350     8A     -7.140346     9A     -7.140335
      10A     -2.882035    11A     -2.882033    12A     -2.882025
      13A     -2.882023    14A     -2.882015    15A     -0.685997
      16A     -0.139339    17A     -0.139338    18A     -0.139338

  @DF-RHF Final Energy: -2572.53369034179696

   => Energetics <=

    Nuclear Repulsion Energy =              0.0000000000000000
    One-Electron Energy =               -3593.6742758451346162
    Two-Electron Energy =                1021.1405855033375474
    Total Energy =                      -2572.5336903417969552
 Dipole X            :         -0.0001142            0.0000000           -0.0001142
 Dipole Y            :       -171.0391690          166.2875181           -4.7516509
 Dipole Z            :          0.0000000            0.0000000            0.0000000
 Magnitude           :                                                    4.7516509
  Basis Set: (AUG-CC-PVTZ AUX)
    Blend: AUG-CC-PVTZ-RI + DEF2-QZVPP-RI
	 Reference Energy          =   -2572.5336903417969552 [Eh]
	 Singles Energy            =      -0.0000000000000000 [Eh]
	 Same-Spin Energy          =      -0.0884109483157955 [Eh]
	 Opposite-Spin Energy      =      -0.2049519385462821 [Eh]
	 Correlation Energy        =      -0.2933628868620776 [Eh]
	 Total Energy              =   -2572.8270532286592243 [Eh]

	 ================> DF-SCS-MP2 Energies <==================
	-----------------------------------------------------------
	 SCS Same-Spin Scale       =       0.3333333333333333 [-]
	 SCS Opposite-Spin Scale   =       1.2000000000000000 [-]
	 SCS Same-Spin Energy      =      -0.0294703161052652 [Eh]
	 SCS Opposite-Spin Energy  =      -0.2459423262555385 [Eh]
	 SCS Correlation Energy    =      -0.2754126423608037 [Eh]
	 SCS Total Energy          =   -2572.8091029841575619 [Eh]
	-----------------------------------------------------------

*** Psi4 exiting successfully. Buy a developer a beer!
