                               Psi4 1.8.2 release

  ==> Input File <==

--------------------------------------------------------------------------
MEMORY 60 GB

molecule dimer {
-1 1
Gh(Na)     0.000000     0.000000     0.000000
Br         0.000000     2.514159     0.000000
Gh(Br)     3.519823     0.000000     0.000000

units ang
no_reorient
no_com
symmetry c1
}

set {
basis        aug-cc-pVTZ
scf_type     df
}

energy("mp2")
--------------------------------------------------------------------------

    Molecular point group: c1

    Geometry (in Angstrom), charge = -1, multiplicity = 1:

       Center              X                  Y                   Z               Mass
    ------------   -----------------  -----------------  -----------------  -----------------
      Gh(NA)          0.000000000000     0.000000000000     0.000000000000    22.989769282000
         BR           0.000000000000     2.514159000000     0.000000000000    78.918337600000
      Gh(BR)          3.519823000000     0.000000000000     0.000000000000    78.918337600000

  Charge       = -1
  Multiplicity = 1
  Basis Set: AUG-CC-PVTZ
    Blend: AUG-CC-PVTZ
  Basis Set: (AUG-CC-PVTZ AUX)
    Blend: AUG-CC-PVTZ-JKFIT + DEF2-UNIVERSAL-JKFIT

    Orbital Energies [Eh]
    ---------------------

    Doubly Occupied:

       1A   -489.721039     2A    -64.860927     3A    -58.215426
       4A    -58.215426     5A    -58.215421     6A     -9.532994
       7A     -7.140341     8A     -7.140339     9A     -7.140328
      10A     -2.882026    11A     -2.882024    12A     -2.882016
      13A     -2.882015    14A     -2.882006    15A     -0.685997
      16A     -0.139339    17A     -0.139338    18A     -0.139337

  @DF-RHF Final Energy: -2572.53368931688965

   => Energetics <=

    Nuclear Repulsion Energy =              0.0000000000000000
    One-Electron Energy =               -3593.6746963904670338
    Two-Electron Energy =                1021.1410070735772706
    Total Energy =                      -2572.5336893168896495
 Dipole X            :         -0.0000877            0.0000000           -0.0000877
 Dipole Y            :       -171.0391488          166.2875181           -4.7516307
 Dipole Z            :          0.0000000            0.0000000            0.0000000
 Magnitude           :                                                    4.7516307
  Basis Set: (AUG-CC-PVTZ AUX)
    Blend: AUG-CC-PVTZ-RI + DEF2-QZVPP-RI
	 Reference Energy          =   -2572.5336893168896495 [Eh]
	 Singles Energy            =      -0.0000000000000000 [Eh]
	 Same-Spin Energy          =      -0.0883317709189624 [Eh]
	 Opposite-Spin Energy      =      -0.2047505666590029 [Eh]
	 Correlation Energy        =      -0.2930823375779653 [Eh]
	 Total Energy              =   -2572.8267716544673931 [Eh]

	 ================> DF-SCS-MP2 Energies <==================
	-----------------------------------------------------------
	 SCS Same-Spin Scale       =       0.3333333333333333 [-]
	 SCS Opposite-Spin Scale   =       1.2000000000000000 [-]
	 SCS Same-Spin Energy      =      -0.0294439236396541 [Eh]
	 SCS Opposite-Spin Energy  =      -0.2457006799908035 [Eh]
	 SCS Correlation Energy    =      -0.2751446036304576 [Eh]
	 SCS Total Energy          =   -2572.8088339205201009 [Eh]
	-----------------------------------------------------------

*** Psi4 exiting successfully. Buy a developer a beer!
