                               Psi4 1.8.2 release

  ==> Input File <==

--------------------------------------------------------------------------
MEMORY 60 GB

molecule dimer {
-1 1
Na         0.000000     0.000000     0.000000
Br         0.000000     2.514159     0.000000
Br         3.268407     0.000000     0.000000

units ang
no_reorient
no_com
symmetry c1
}

set {
basis        aug-cc-pVTZ
scf_type     df
}

energy("mp2")
--------------------------------------------------------------------------

    Molecular point group: c1

    Geometry (in Angstrom), charge = -1, multiplicity = 1:

       Center              X                  Y                   Z               Mass
    ------------   -----------------  -----------------  -----------------  -----------------
         NA           0.000000000000     0.000000000000     0.000000000000    22.989769282000
         BR           0.000000000000     2.514159000000     0.000000000000    78.918337600000
         BR           3.268407000000     0.000000000000     0.000000000000    78.918337600000

  Charge       = -1
  Multiplicity = 1
  Basis Set: AUG-CC-PVTZ
    Blend: AUG-CC-PVTZ
  Basis Set: (AUG-CC-PVTZ AUX)
    Blend: AUG-CC-PVTZ-JKFIT + DEF2-UNIVERSAL-JKFIT

    Orbital Energies [Eh]
    ---------------------

    Doubly Occupied:

       1A   -489.778904     2A   -489.752429     3A    -64.919446
       4A    -64.892437     5A    -58.273957     6A    -58.273911
       7A    -58.273822     8A    -58.247007     9A    -58.246900
      10A    -58.246849    11A    -40.348089    12A     -9.592151
      13A     -9.564689    14A     -7.200096    15A     -7.199496
      16A     -7.199170    17A     -7.172492    18A     -7.171925
      19A     -7.171679    20A     -2.941806    21A     -2.941662
      22A     -2.941234    23A     -2.940625    24A     -2.940562
      25A     -2.914329    26A     -2.914157    27A     -2.913843
      28A     -2.913106    29A     -2.913077    30A     -2.669739
      31A     -1.393128    32A     -1.392965    33A     -1.391493
      34A     -0.753325    35A     -0.718794    36A     -0.220538
      37A     -0.203707    38A     -0.202287    39A     -0.175277
      40A     -0.170292    41A     -0.164881

  @DF-RHF Final Energy: -5306.96849180590925

   => Energetics <=

    Nuclear Repulsion Energy =            300.5741597297510452
    One-Electron Energy =               -8014.5727473770048164
    Two-Electron Energy =                2407.0300958413445187
    Total Energy =                      -5306.9684918059092524
 Dipole X            :       -221.5181855          216.1737934           -5.3443921
 Dipole Y            :       -170.0756422          166.2875181           -3.7881241
 Dipole Z            :         -0.0000000            0.0000000           -0.0000000
 Magnitude           :                                                    6.5507565
  Basis Set: (AUG-CC-PVTZ AUX)
    Blend: AUG-CC-PVTZ-RI + DEF2-QZVPP-RI
	 Reference Energy          =   -5306.9684918059092524 [Eh]
	 Singles Energy            =      -0.0000000000000000 [Eh]
	 Same-Spin Energy          =      -0.1804894588792307 [Eh]
	 Opposite-Spin Energy      =      -0.4195460589089092 [Eh]
	 Correlation Energy        =      -0.6000355177881399 [Eh]
	 Total Energy              =   -5307.5685273236977082 [Eh]

	 ================> DF-SCS-MP2 Energies <==================
	-----------------------------------------------------------
	 SCS Same-Spin Scale       =       0.3333333333333333 [-]
	 SCS Opposite-Spin Scale   =       1.2000000000000000 [-]
	 SCS Same-Spin Energy      =      -0.0601631529597435 [Eh]
	 SCS Opposite-Spin Energy  =      -0.5034552706906911 [Eh]
	 SCS Correlation Energy    =      -0.5636184236504346 [Eh]
	 SCS Total Energy          =   -5307.5321102295592937 [Eh]
	-----------------------------------------------------------

*** Psi4 exiting successfully. Buy a developer a beer!
