                               Psi4 1.8.2 release

  ==> Input File <==

--------------------------------------------------------------------------
MEMORY 60 GB

molecule dimer {
-1 1
Gh(Na)     0.000000     0.000000     0.000000
Gh(Br)     0.000000     2.514159     0.000000
Br         3.771238     0.000000     0.000000

units ang
no_reorient
no_com
symmetry c1
}

set {
basis        aug-cc-pVTZ
scf_type     df
}

energy("mp2")
--------------------------------------------------------------------------

    Molecular point group: c1

    Geometry (in Angstrom), charge = -1, multiplicity = 1:

       Center              X                  Y                   Z               Mass
    ------------   -----------------  -----------------  -----------------  -----------------
      Gh(NA)          0.000000000000     0.000000000000     0.000000000000    22.989769282000
      Gh(BR)          0.000000000000     2.514159000000     0.000000000000    78.918337600000
         BR           3.771238000000     0.000000000000     0.000000000000    78.918337600000

  Charge       = -1
  Multiplicity = 1
  Basis Set: AUG-CC-PVTZ
    Blend: AUG-CC-PVTZ
  Basis Set: (AUG-CC-PVTZ AUX)
    Blend: AUG-CC-PVTZ-JKFIT + DEF2-UNIVERSAL-JKFIT

    Orbital Energies [Eh]
    ---------------------

    Doubly Occupied:

       1A   -489.720624     2A    -64.860634     3A    -58.215115
       4A    -58.215114     5A    -58.215113     6A     -9.532907
       7A     -7.140252     8A     -7.140251     9A     -7.140245
      10A     -2.881924    11A     -2.881923    12A     -2.881922
      13A     -2.881921    14A     -2.881919    15A     -0.686000
      16A     -0.139342    17A     -0.139338    18A     -0.139337

  @DF-RHF Final Energy: -2572.53367644150148

   => Energetics <=

    Nuclear Repulsion Energy =              0.0000000000000000
    One-Electron Energy =               -3593.6795888017845755
    Two-Electron Energy =                1021.1459123602830914
    Total Energy =                      -2572.5336764415014841
 Dipole X            :       -256.5580710          249.4312441           -7.1268269
 Dipole Y            :          0.0000009            0.0000000            0.0000009
 Dipole Z            :          0.0000000            0.0000000            0.0000000
 Magnitude           :                                                    7.1268269
  Basis Set: (AUG-CC-PVTZ AUX)
    Blend: AUG-CC-PVTZ-RI + DEF2-QZVPP-RI
	 Reference Energy          =   -2572.5336764415014841 [Eh]
	 Singles Energy            =      -0.0000000000000000 [Eh]
	 Same-Spin Energy          =      -0.0872962357704288 [Eh]
	 Opposite-Spin Energy      =      -0.2023476232303811 [Eh]
	 Correlation Energy        =      -0.2896438590008098 [Eh]
	 Total Energy              =   -2572.8233203005024734 [Eh]

	 ================> DF-SCS-MP2 Energies <==================
	-----------------------------------------------------------
	 SCS Same-Spin Scale       =       0.3333333333333333 [-]
	 SCS Opposite-Spin Scale   =       1.2000000000000000 [-]
	 SCS Same-Spin Energy      =      -0.0290987452568096 [Eh]
	 SCS Opposite-Spin Energy  =      -0.2428171478764573 [Eh]
	 SCS Correlation Energy    =      -0.2719158931332669 [Eh]
	 SCS Total Energy          =   -2572.8055923346346390 [Eh]
	-----------------------------------------------------------

*** Psi4 exiting successfully. Buy a developer a beer!
