                               Psi4 1.8.2 release

  ==> Input File <==

--------------------------------------------------------------------------
MEMORY 60 GB

molecule dimer {
-1 1
Gh(Na)     0.000000     0.000000     0.000000
Gh(Br)     0.000000     2.514159     0.000000
Br         2.765575     0.000000     0.000000

units ang
no_reorient
no_com
symmetry c1
}

set {
basis        aug-cc-pVTZ
scf_type     df
}

energy("mp2")
--------------------------------------------------------------------------

    Molecular point group: c1

    Geometry (in Angstrom), charge = -1, multiplicity = 1:

       Center              X                  Y                   Z               Mass
    ------------   -----------------  -----------------  -----------------  -----------------
      Gh(NA)          0.000000000000     0.000000000000     0.000000000000    22.989769282000
      Gh(BR)          0.000000000000     2.514159000000     0.000000000000    78.918337600000
         BR           2.765575000000     0.000000000000     0.000000000000    78.918337600000

  Charge       = -1
  Multiplicity = 1
  Basis Set: AUG-CC-PVTZ
    Blend: AUG-CC-PVTZ
  Basis Set: (AUG-CC-PVTZ AUX)
    Blend: AUG-CC-PVTZ-JKFIT + DEF2-UNIVERSAL-JKFIT

    Orbital Energies [Eh]
    ---------------------

    Doubly Occupied:

       1A   -489.720938     2A    -64.860855     3A    -58.215349
       4A    -58.215349     5A    -58.215346     6A     -9.532973
       7A     -7.140321     8A     -7.140318     9A     -7.140308
      10A     -2.882002    11A     -2.882001    12A     -2.881994
      13A     -2.881992    14A     -2.881986    15A     -0.685997
      16A     -0.139339    17A     -0.139338    18A     -0.139337

  @DF-RHF Final Energy: -2572.53368676215405

   => Energetics <=

    Nuclear Repulsion Energy =              0.0000000000000000
    One-Electron Energy =               -3593.6758879883268492
    Two-Electron Energy =                1021.1422012261728014
    Total Energy =                      -2572.5336867621540478
 Dipole X            :       -188.1429156          182.9162765           -5.2266391
 Dipole Y            :         -0.0000836            0.0000000           -0.0000836
 Dipole Z            :          0.0000000            0.0000000            0.0000000
 Magnitude           :                                                    5.2266391
  Basis Set: (AUG-CC-PVTZ AUX)
    Blend: AUG-CC-PVTZ-RI + DEF2-QZVPP-RI
	 Reference Energy          =   -2572.5336867621540478 [Eh]
	 Singles Energy            =      -0.0000000000000000 [Eh]
	 Same-Spin Energy          =      -0.0880662284432626 [Eh]
	 Opposite-Spin Energy      =      -0.2041862995627914 [Eh]
	 Correlation Energy        =      -0.2922525280060540 [Eh]
	 Total Energy              =   -2572.8259392901600222 [Eh]

	 ================> DF-SCS-MP2 Energies <==================
	-----------------------------------------------------------
	 SCS Same-Spin Scale       =       0.3333333333333333 [-]
	 SCS Opposite-Spin Scale   =       1.2000000000000000 [-]
	 SCS Same-Spin Energy      =      -0.0293554094810875 [Eh]
	 SCS Opposite-Spin Energy  =      -0.2450235594753497 [Eh]
	 SCS Correlation Energy    =      -0.2743789689564372 [Eh]
	 SCS Total Energy          =   -2572.8080657311106734 [Eh]
	-----------------------------------------------------------

*** Psi4 exiting successfully. Buy a developer a beer!
