                               Psi4 1.8.2 release

  ==> Input File <==

--------------------------------------------------------------------------
MEMORY 60 GB

molecule dimer {
1 1
Na     0.000000     0.000000     0.000000
--
-1 1
Br     0.000000     2.514159     0.000000
--
-1 1
Br     3.771238     0.000000     0.000000

units ang
no_reorient
no_com
symmetry c1
}

set {
basis        aug-cc-pVTZ
scf_type     df
}

energy("mp2", bsse_type="cp")
--------------------------------------------------------------------------

                               Psi4 1.8.2 release
    Molecular point group: c1
  Charge       = 1
  Multiplicity = 1
  Basis Set: AUG-CC-PVTZ
    Blend: AUG-CC-PVTZ
  Basis Set: (AUG-CC-PVTZ AUX)
    Blend: AUG-CC-PVTZ-JKFIT + DEF2-UNIVERSAL-JKFIT
  @DF-RHF Final Energy:  -161.67604280363304
    Total Energy =                       -161.6760428036330381
 Dipole X            :          0.0002319            0.0000000            0.0002319
 Dipole Y            :          0.0005283            0.0000000            0.0005283
 Dipole Z            :          0.0000000            0.0000000            0.0000000
 Magnitude           :                                                    0.0005770
  Basis Set: (AUG-CC-PVTZ AUX)
    Blend: AUG-CC-PVTZ-RI + DEF2-QZVPP-RI
	 Reference Energy          =    -161.6760428036330381 [Eh]
	 Singles Energy            =      -0.0000000000000000 [Eh]
	 Same-Spin Energy          =      -0.0026302272509083 [Eh]
	 Opposite-Spin Energy      =      -0.0097346108299549 [Eh]
	 Correlation Energy        =      -0.0123648380808632 [Eh]
	 Total Energy              =    -161.6884076417138942 [Eh]
	 SCS Total Energy          =    -161.6886010790459522 [Eh]
                               Psi4 1.8.2 release
    Molecular point group: c1
  Basis Set: AUG-CC-PVTZ
    Blend: AUG-CC-PVTZ
  Basis Set: (AUG-CC-PVTZ AUX)
    Blend: AUG-CC-PVTZ-JKFIT + DEF2-UNIVERSAL-JKFIT
  @DF-RHF Final Energy: -2572.53368887622491
    Total Energy =                      -2572.5336888762249146
  Basis Set: (AUG-CC-PVTZ AUX)
                               Psi4 1.8.2 release
  @DF-RHF Final Energy: -5144.95732006907565
    Total Energy =                      -5144.9573200690765589
                               Psi4 1.8.2 release
  @DF-RHF Final Energy: -2734.35882864452788
    Total Energy =                      -2734.3588286445278754
                               Psi4 1.8.2 release
  @DF-RHF Final Energy: -2734.40587209955402
    Total Energy =                      -2734.4058720995540170
                               Psi4 1.8.2 release
  Multiplicity = 1
  @DF-RHF Final Energy: -2572.53367644150012
    Total Energy =                      -2572.5336764415001198
	 Singles Energy            =      -0.0000000000000000 [Eh]
	 Same-Spin Energy          =      -0.0872962357704259 [Eh]
	 Opposite-Spin Energy      =      -0.2023476232303765 [Eh]
	 Correlation Energy        =      -0.2896438590008024 [Eh]
	 Total Energy              =   -2572.8233203005011092 [Eh]
	 SCS Total Energy          =   -2572.8055923346332747 [Eh]
                               Psi4 1.8.2 release
    Molecular point group: c1

    Geometry (in Bohr), charge = -1, multiplicity = 1:

       Center              X                  Y                   Z               Mass
    ------------   -----------------  -----------------  -----------------  -----------------
         NA           0.000000000000     0.000000000000     0.000000000000    22.989769282000
         BR           0.000000000000     4.751071945855     0.000000000000    78.918337600000
         BR           7.126606973919     0.000000000000     0.000000000000    78.918337600000

  Charge       = -1
  Multiplicity = 1
  Basis Set: AUG-CC-PVTZ
    Blend: AUG-CC-PVTZ
  Basis Set: (AUG-CC-PVTZ AUX)
    Blend: AUG-CC-PVTZ-JKFIT + DEF2-UNIVERSAL-JKFIT

    Orbital Energies [Eh]
    ---------------------

    Doubly Occupied:

       1A   -489.790658     2A   -489.744835     3A    -64.931162
       4A    -64.884826     5A    -58.285673     6A    -58.285621
       7A    -58.285553     8A    -58.239378     9A    -58.239282
      10A    -58.239250    11A    -40.370914    12A     -9.603835
      13A     -9.557086    14A     -7.211792    15A     -7.211134
      16A     -7.210870    17A     -7.164790    18A     -7.164312
      19A     -7.164146    20A     -2.953482    21A     -2.953298
      22A     -2.952963    23A     -2.952302    24A     -2.952262
      25A     -2.906591    26A     -2.906438    27A     -2.906231
      28A     -2.905611    29A     -2.905595    30A     -2.691848
      31A     -1.415015    32A     -1.414968    33A     -1.413803
      34A     -0.764641    35A     -0.710109    36A     -0.230474
      37A     -0.213102    38A     -0.211882    39A     -0.165510
      40A     -0.162547    41A     -0.160630

  @DF-RHF Final Energy: -5306.96082657505849

   => Energetics <=

    Nuclear Repulsion Energy =            278.0792457995257791
    One-Electron Energy =               -7969.2112971066808313
    Two-Electron Energy =                2384.1712247320961069
    Total Energy =                      -5306.9608265750594001
 Dipole X            :       -255.8596142          249.4312441           -6.4283701
 Dipole Y            :       -170.0556019          166.2875181           -3.7680838
 Dipole Z            :         -0.0000000            0.0000000           -0.0000000
 Magnitude           :                                                    7.4513353
  Basis Set: (AUG-CC-PVTZ AUX)
    Blend: AUG-CC-PVTZ-RI + DEF2-QZVPP-RI
	 Reference Energy          =   -5306.9608265750584906 [Eh]
	 Singles Energy            =      -0.0000000000000000 [Eh]
	 Same-Spin Energy          =      -0.1794183166874360 [Eh]
	 Opposite-Spin Energy      =      -0.4177256192368507 [Eh]
	 Correlation Energy        =      -0.5971439359242867 [Eh]
	 Total Energy              =   -5307.5579705109830684 [Eh]

	 ================> DF-SCS-MP2 Energies <==================
	-----------------------------------------------------------
	 SCS Same-Spin Scale       =       0.3333333333333333 [-]
	 SCS Opposite-Spin Scale   =       1.2000000000000000 [-]
	 SCS Same-Spin Energy      =      -0.0598061055624787 [Eh]
	 SCS Opposite-Spin Energy  =      -0.5012707430842208 [Eh]
	 SCS Correlation Energy    =      -0.5610768486466995 [Eh]
	 SCS Total Energy          =   -5307.5219034237052256 [Eh]
	-----------------------------------------------------------

*** Psi4 exiting successfully. Buy a developer a beer!
