                               Psi4 1.8.2 release

  ==> Input File <==

--------------------------------------------------------------------------
MEMORY 60 GB

molecule dimer {
1 1
Na     0.000000     0.000000     0.000000
--
-1 1
Br     0.000000     2.514159     0.000000
--
-1 1
Br     3.268407     0.000000     0.000000

units ang
no_reorient
no_com
symmetry c1
}

set {
basis        aug-cc-pVTZ
scf_type     df
}

energy("mp2", bsse_type="cp")
--------------------------------------------------------------------------

                               Psi4 1.8.2 release
    Molecular point group: c1
  Charge       = 1
  Multiplicity = 1
  Basis Set: AUG-CC-PVTZ
    Blend: AUG-CC-PVTZ
  Basis Set: (AUG-CC-PVTZ AUX)
    Blend: AUG-CC-PVTZ-JKFIT + DEF2-UNIVERSAL-JKFIT
  @DF-RHF Final Energy:  -161.67604593889124
    Total Energy =                       -161.6760459388912352
 Dipole X            :          0.0004790            0.0000000            0.0004790
 Dipole Y            :          0.0004920            0.0000000            0.0004920
 Dipole Z            :          0.0000000            0.0000000            0.0000000
 Magnitude           :                                                    0.0006867
  Basis Set: (AUG-CC-PVTZ AUX)
    Blend: AUG-CC-PVTZ-RI + DEF2-QZVPP-RI
	 Reference Energy          =    -161.6760459388912352 [Eh]
	 Singles Energy            =      -0.0000000000000000 [Eh]
	 Same-Spin Energy          =      -0.0028416217835560 [Eh]
	 Opposite-Spin Energy      =      -0.0103039142705761 [Eh]
	 Correlation Energy        =      -0.0131455360541321 [Eh]
	 Total Energy              =    -161.6891914749453747 [Eh]
	 SCS Total Energy          =    -161.6893578432771221 [Eh]
                               Psi4 1.8.2 release
    Molecular point group: c1
  Basis Set: AUG-CC-PVTZ
    Blend: AUG-CC-PVTZ
  Basis Set: (AUG-CC-PVTZ AUX)
    Blend: AUG-CC-PVTZ-JKFIT + DEF2-UNIVERSAL-JKFIT
  @DF-RHF Final Energy: -2572.53368977156515
    Total Energy =                      -2572.5336897715651503
  Basis Set: (AUG-CC-PVTZ AUX)
                               Psi4 1.8.2 release
  @DF-RHF Final Energy: -5144.94777953839275
    Total Energy =                      -5144.9477795383927514
                               Psi4 1.8.2 release
  @DF-RHF Final Energy: -2734.38128907955888
    Total Energy =                      -2734.3812890795588828
                               Psi4 1.8.2 release
  @DF-RHF Final Energy: -2734.40588511549777
    Total Energy =                      -2734.4058851154977674
                               Psi4 1.8.2 release
  Multiplicity = 1
  @DF-RHF Final Energy: -2572.53368001591116
    Total Energy =                      -2572.5336800159107042
	 Singles Energy            =      -0.0000000000000000 [Eh]
	 Same-Spin Energy          =      -0.0875529214896359 [Eh]
	 Opposite-Spin Energy      =      -0.2029726080073645 [Eh]
	 Correlation Energy        =      -0.2905255294970004 [Eh]
	 Total Energy              =   -2572.8242055454079491 [Eh]
	 SCS Total Energy          =   -2572.8064314526832277 [Eh]
                               Psi4 1.8.2 release
    Molecular point group: c1

    Geometry (in Bohr), charge = -1, multiplicity = 1:

       Center              X                  Y                   Z               Mass
    ------------   -----------------  -----------------  -----------------  -----------------
         NA           0.000000000000     0.000000000000     0.000000000000    22.989769282000
         BR           0.000000000000     4.751071945855     0.000000000000    78.918337600000
         BR           6.176394096529     0.000000000000     0.000000000000    78.918337600000

  Charge       = -1
  Multiplicity = 1
  Basis Set: AUG-CC-PVTZ
    Blend: AUG-CC-PVTZ
  Basis Set: (AUG-CC-PVTZ AUX)
    Blend: AUG-CC-PVTZ-JKFIT + DEF2-UNIVERSAL-JKFIT

    Orbital Energies [Eh]
    ---------------------

    Doubly Occupied:

       1A   -489.778904     2A   -489.752429     3A    -64.919446
       4A    -64.892437     5A    -58.273957     6A    -58.273911
       7A    -58.273822     8A    -58.247007     9A    -58.246900
      10A    -58.246849    11A    -40.348089    12A     -9.592151
      13A     -9.564689    14A     -7.200096    15A     -7.199496
      16A     -7.199170    17A     -7.172492    18A     -7.171925
      19A     -7.171679    20A     -2.941806    21A     -2.941662
      22A     -2.941234    23A     -2.940625    24A     -2.940562
      25A     -2.914329    26A     -2.914157    27A     -2.913843
      28A     -2.913106    29A     -2.913077    30A     -2.669739
      31A     -1.393128    32A     -1.392965    33A     -1.391493
      34A     -0.753325    35A     -0.718794    36A     -0.220538
      37A     -0.203707    38A     -0.202287    39A     -0.175277
      40A     -0.170292    41A     -0.164881

  @DF-RHF Final Energy: -5306.96849180591289

   => Energetics <=

    Nuclear Repulsion Energy =            300.5741597297510452
    One-Electron Energy =               -8014.5727473769948119
    Two-Electron Energy =                2407.0300958413313310
    Total Energy =                      -5306.9684918059119809
 Dipole X            :       -221.5181855          216.1737934           -5.3443921
 Dipole Y            :       -170.0756422          166.2875181           -3.7881241
 Dipole Z            :         -0.0000000            0.0000000           -0.0000000
 Magnitude           :                                                    6.5507565
  Basis Set: (AUG-CC-PVTZ AUX)
    Blend: AUG-CC-PVTZ-RI + DEF2-QZVPP-RI
	 Reference Energy          =   -5306.9684918059128904 [Eh]
	 Singles Energy            =      -0.0000000000000000 [Eh]
	 Same-Spin Energy          =      -0.1804894588792418 [Eh]
	 Opposite-Spin Energy      =      -0.4195460589089304 [Eh]
	 Correlation Energy        =      -0.6000355177881722 [Eh]
	 Total Energy              =   -5307.5685273237013462 [Eh]

	 ================> DF-SCS-MP2 Energies <==================
	-----------------------------------------------------------
	 SCS Same-Spin Scale       =       0.3333333333333333 [-]
	 SCS Opposite-Spin Scale   =       1.2000000000000000 [-]
	 SCS Same-Spin Energy      =      -0.0601631529597473 [Eh]
	 SCS Opposite-Spin Energy  =      -0.5034552706907164 [Eh]
	 SCS Correlation Energy    =      -0.5636184236504637 [Eh]
	 SCS Total Energy          =   -5307.5321102295629316 [Eh]
	-----------------------------------------------------------

*** Psi4 exiting successfully. Buy a developer a beer!
