                               Psi4 1.9 release

  ==> Input File <==

--------------------------------------------------------------------------
MEMORY 60 GB

molecule dimer {
0 1
Na     0.000000     0.000000     0.000000
Br     0.000000     2.514159     0.000000
--
-1 1
Br     3.519823     0.000000     0.000000

units ang
no_reorient
no_com
symmetry c1
}

set {
basis        aug-cc-pVTZ
scf_type     df
}

energy("mp2", bsse_type="cp")
--------------------------------------------------------------------------

                               Psi4 1.9 release
    Molecular point group: c1
  Charge       = -1
  Multiplicity = 1
  Basis Set: AUG-CC-PVTZ
    Blend: AUG-CC-PVTZ
  Basis Set: (AUG-CC-PVTZ AUX)
    Blend: AUG-CC-PVTZ-JKFIT + DEF2-UNIVERSAL-JKFIT
  @DF-RHF Final Energy: -2572.53367800575006
    Total Energy =                      -2572.5336780057505166
 Dipole X            :       -239.4543129          232.8025518           -6.6517611
 Dipole Y            :         -0.0000154            0.0000000           -0.0000154
 Dipole Z            :          0.0000000            0.0000000            0.0000000
 Magnitude           :                                                    6.6517611
  Basis Set: (AUG-CC-PVTZ AUX)
    Blend: AUG-CC-PVTZ-RI + DEF2-QZVPP-RI
	 Reference Energy          =   -2572.5336780057500619 [Eh]
	 Singles Energy            =      -0.0000000000000000 [Eh]
	 Same-Spin Energy          =      -0.0874050120171292 [Eh]
	 Opposite-Spin Energy      =      -0.2026115746701595 [Eh]
	 Correlation Energy        =      -0.2900165866872887 [Eh]
	 Total Energy              =   -2572.8236945924372776 [Eh]
	 SCS Total Energy          =   -2572.8059468993601513 [Eh]
                               Psi4 1.9 release
    Molecular point group: c1
  Multiplicity = 1
  Basis Set: AUG-CC-PVTZ
    Blend: AUG-CC-PVTZ
  Basis Set: (AUG-CC-PVTZ AUX)
    Blend: AUG-CC-PVTZ-JKFIT + DEF2-UNIVERSAL-JKFIT
  @DF-RHF Final Energy: -2734.40587659993344
    Total Energy =                      -2734.4058765999334355
  Basis Set: (AUG-CC-PVTZ AUX)
	 Singles Energy            =      -0.0000000000000000 [Eh]
	 Same-Spin Energy          =      -0.0913877016748914 [Eh]
	 Opposite-Spin Energy      =      -0.2147741631823709 [Eh]
	 Correlation Energy        =      -0.3061618648572623 [Eh]
	 Total Energy              =   -2734.7120384647905666 [Eh]
	 SCS Total Energy          =   -2734.6940681629771461 [Eh]
                               Psi4 1.9 release
    Molecular point group: c1

    Geometry (in Bohr), charge = -1, multiplicity = 1:

       Center              X                  Y                   Z               Mass
    ------------   -----------------  -----------------  -----------------  -----------------
         NA           0.000000000000     0.000000000000     0.000000000000    22.989769282000
         BR           0.000000000000     4.751071945855     0.000000000000    78.918337600000
         BR           6.651501480087     0.000000000000     0.000000000000    78.918337600000

  Charge       = -1
  Multiplicity = 1
  Basis Set: AUG-CC-PVTZ
    Blend: AUG-CC-PVTZ
  Basis Set: (AUG-CC-PVTZ AUX)
    Blend: AUG-CC-PVTZ-JKFIT + DEF2-UNIVERSAL-JKFIT

    Orbital Energies [Eh]
    ---------------------

    Doubly Occupied:

       1A   -489.784911     2A   -489.748572     3A    -64.925430
       4A    -64.888559     5A    -58.279941     6A    -58.279892
       7A    -58.279814     8A    -58.243123     9A    -58.243017
      10A    -58.242977    11A    -40.360284    12A     -9.598115
      13A     -9.560806    14A     -7.206067    15A     -7.205436
      16A     -7.205142    17A     -7.168562    18A     -7.168029
      19A     -7.167827    20A     -2.947766    21A     -2.947601
      22A     -2.947222    23A     -2.946586    24A     -2.946536
      25A     -2.910384    26A     -2.910216    27A     -2.909962
      28A     -2.909267    29A     -2.909246    30A     -2.681476
      31A     -1.404753    32A     -1.404654    33A     -1.403325
      34A     -0.759058    35A     -0.714184    36A     -0.225295
      37A     -0.207731    38A     -0.207412    39A     -0.170110
      40A     -0.166255    41A     -0.163172

  @DF-RHF Final Energy: -5306.96456715894237

   => Energetics <=

    Nuclear Repulsion Energy =            288.7804516773185242
    One-Electron Energy =               -7990.7925988624692764
    Two-Electron Energy =                2395.0475800262083794
    Total Energy =                      -5306.9645671589423728
 Dipole X            :       -238.6867428          232.8025518           -5.8841910
 Dipole Y            :       -170.0641370          166.2875181           -3.7766189
 Dipole Z            :         -0.0000000            0.0000000           -0.0000000
 Magnitude           :                                                    6.9918920
  Basis Set: (AUG-CC-PVTZ AUX)
    Blend: AUG-CC-PVTZ-RI + DEF2-QZVPP-RI
	 Reference Energy          =   -5306.9645671589423728 [Eh]
	 Singles Energy            =      -0.0000000000000000 [Eh]
	 Same-Spin Energy          =      -0.1798974117219233 [Eh]
	 Opposite-Spin Energy      =      -0.4185544390142586 [Eh]
	 Correlation Energy        =      -0.5984518507361819 [Eh]
	 Total Energy              =   -5307.5630190096781007 [Eh]

	 ================> DF-SCS-MP2 Energies <==================
	-----------------------------------------------------------
	 SCS Same-Spin Scale       =       0.3333333333333333 [-]
	 SCS Opposite-Spin Scale   =       1.2000000000000000 [-]
	 SCS Same-Spin Energy      =      -0.0599658039073078 [Eh]
	 SCS Opposite-Spin Energy  =      -0.5022653268171103 [Eh]
	 SCS Correlation Energy    =      -0.5622311307244181 [Eh]
	 SCS Total Energy          =   -5307.5267982896666581 [Eh]
	-----------------------------------------------------------

*** Psi4 exiting successfully. Buy a developer a beer!
