                               Psi4 1.8.2 release

  ==> Input File <==

--------------------------------------------------------------------------
MEMORY 60 GB

molecule dimer {
1 1
Na     0.000000     0.000000     0.000000
--
-1 1
Br     0.000000     2.514159     0.000000
--
-1 1
Br     2.514159     0.000000     0.000000

units ang
no_reorient
no_com
symmetry c1
}

set {
basis        aug-cc-pVTZ
scf_type     df
}

energy("mp2", bsse_type="cp")
--------------------------------------------------------------------------

                               Psi4 1.8.2 release
    Molecular point group: c1
  Charge       = 1
  Multiplicity = 1
  Basis Set: AUG-CC-PVTZ
    Blend: AUG-CC-PVTZ
  Basis Set: (AUG-CC-PVTZ AUX)
    Blend: AUG-CC-PVTZ-JKFIT + DEF2-UNIVERSAL-JKFIT
  @DF-RHF Final Energy:  -161.67605119860372
    Total Energy =                       -161.6760511986037443
 Dipole X            :          0.0004420            0.0000000            0.0004420
 Dipole Y            :          0.0004420            0.0000000            0.0004420
 Dipole Z            :         -0.0000000            0.0000000           -0.0000000
 Magnitude           :                                                    0.0006251
  Basis Set: (AUG-CC-PVTZ AUX)
    Blend: AUG-CC-PVTZ-RI + DEF2-QZVPP-RI
	 Reference Energy          =    -161.6760511986037159 [Eh]
	 Singles Energy            =      -0.0000000000000000 [Eh]
	 Same-Spin Energy          =      -0.0031553322791176 [Eh]
	 Opposite-Spin Energy      =      -0.0111121933126787 [Eh]
	 Correlation Energy        =      -0.0142675255917963 [Eh]
	 Total Energy              =    -161.6903187241955209 [Eh]
	 SCS Total Energy          =    -161.6904376080053112 [Eh]
                               Psi4 1.8.2 release
    Molecular point group: c1
  Basis Set: AUG-CC-PVTZ
    Blend: AUG-CC-PVTZ
  Basis Set: (AUG-CC-PVTZ AUX)
    Blend: AUG-CC-PVTZ-JKFIT + DEF2-UNIVERSAL-JKFIT
  @DF-RHF Final Energy: -2572.53369062911224
    Total Energy =                      -2572.5336906291126979
  Basis Set: (AUG-CC-PVTZ AUX)
                               Psi4 1.8.2 release
  @DF-RHF Final Energy: -5144.92928074013253
    Total Energy =                      -5144.9292807401325263
                               Psi4 1.8.2 release
  @DF-RHF Final Energy: -2734.40592836884434
    Total Energy =                      -2734.4059283688447977
                               Psi4 1.8.2 release
  @DF-RHF Final Energy: -2734.40592836846599
    Total Energy =                      -2734.4059283684664479
                               Psi4 1.8.2 release
  Multiplicity = 1
  @DF-RHF Final Energy: -2572.53369062948786
    Total Energy =                      -2572.5336906294878645
	 Singles Energy            =      -0.0000000000000000 [Eh]
	 Same-Spin Energy          =      -0.0884501808399050 [Eh]
	 Opposite-Spin Energy      =      -0.2050556131979129 [Eh]
	 Correlation Energy        =      -0.2935057940378179 [Eh]
	 Total Energy              =   -2572.8271964235254927 [Eh]
	 SCS Total Energy          =   -2572.8092407589388131 [Eh]
                               Psi4 1.8.2 release
    Molecular point group: c1

    Geometry (in Bohr), charge = -1, multiplicity = 1:

       Center              X                  Y                   Z               Mass
    ------------   -----------------  -----------------  -----------------  -----------------
         NA           0.000000000000     0.000000000000     0.000000000000    22.989769282000
         BR           0.000000000000     4.751071945855     0.000000000000    78.918337600000
         BR           4.751071945855     0.000000000000     0.000000000000    78.918337600000

  Charge       = -1
  Multiplicity = 1
  Basis Set: AUG-CC-PVTZ
    Blend: AUG-CC-PVTZ
  Basis Set: (AUG-CC-PVTZ AUX)
    Blend: AUG-CC-PVTZ-JKFIT + DEF2-UNIVERSAL-JKFIT

    Orbital Energies [Eh]
    ---------------------

    Doubly Occupied:

       1A   -489.760649     2A   -489.760649     3A    -64.901332
       4A    -64.901332     5A    -58.255831     6A    -58.255831
       7A    -58.255794     8A    -58.255794     9A    -58.255672
      10A    -58.255672    11A    -40.301585    12A     -9.574180
      13A     -9.574178    14A     -7.182082    15A     -7.182080
      16A     -7.181591    17A     -7.181590    18A     -7.181189
      19A     -7.181187    20A     -2.923843    21A     -2.923841
      22A     -2.923757    23A     -2.923754    24A     -2.923171
      25A     -2.923166    26A     -2.922661    27A     -2.922656
      28A     -2.922553    29A     -2.922550    30A     -2.628749
      31A     -1.352105    32A     -1.351626    33A     -1.351453
      34A     -0.741669    35A     -0.731266    36A     -0.221390
      37A     -0.197504    38A     -0.192780    39A     -0.190032
      40A     -0.178424    41A     -0.156446

  @DF-RHF Final Energy: -5306.96723792708326

   => Energetics <=

    Nuclear Repulsion Energy =            344.3866617050555305
    One-Electron Energy =               -8102.8605740586244792
    Two-Electron Energy =                2451.5066744264859153
    Total Energy =                      -5306.9672379270832607
 Dipole X            :       -170.1202413          166.2875181           -3.8327232
 Dipole Y            :       -170.1202413          166.2875181           -3.8327232
 Dipole Z            :         -0.0000000            0.0000000           -0.0000000
 Magnitude           :                                                    5.4202892
  Basis Set: (AUG-CC-PVTZ AUX)
    Blend: AUG-CC-PVTZ-RI + DEF2-QZVPP-RI
	 Reference Energy          =   -5306.9672379270832607 [Eh]
	 Singles Energy            =      -0.0000000000000000 [Eh]
	 Same-Spin Energy          =      -0.1833267793994793 [Eh]
	 Opposite-Spin Energy      =      -0.4237048515892458 [Eh]
	 Correlation Energy        =      -0.6070316309887250 [Eh]
	 Total Energy              =   -5307.5742695580720465 [Eh]

	 ================> DF-SCS-MP2 Energies <==================
	-----------------------------------------------------------
	 SCS Same-Spin Scale       =       0.3333333333333333 [-]
	 SCS Opposite-Spin Scale   =       1.2000000000000000 [-]
	 SCS Same-Spin Energy      =      -0.0611089264664931 [Eh]
	 SCS Opposite-Spin Energy  =      -0.5084458219070949 [Eh]
	 SCS Correlation Energy    =      -0.5695547483735880 [Eh]
	 SCS Total Energy          =   -5307.5367926754570362 [Eh]
	-----------------------------------------------------------

*** Psi4 exiting successfully. Buy a developer a beer!
