                               Psi4 1.8.2 release

  ==> Input File <==

--------------------------------------------------------------------------
MEMORY 60 GB

molecule dimer {
-1 1
Gh(Na)     0.000000     0.000000     0.000000
Gh(Br)     0.000000     2.514159     0.000000
Br         3.519823     0.000000     0.000000

units ang
no_reorient
no_com
symmetry c1
}

set {
basis        aug-cc-pVTZ
scf_type     df
}

energy("mp2")
--------------------------------------------------------------------------

    Molecular point group: c1

    Geometry (in Angstrom), charge = -1, multiplicity = 1:

       Center              X                  Y                   Z               Mass
    ------------   -----------------  -----------------  -----------------  -----------------
      Gh(NA)          0.000000000000     0.000000000000     0.000000000000    22.989769282000
      Gh(BR)          0.000000000000     2.514159000000     0.000000000000    78.918337600000
         BR           3.519823000000     0.000000000000     0.000000000000    78.918337600000

  Charge       = -1
  Multiplicity = 1
  Basis Set: AUG-CC-PVTZ
    Blend: AUG-CC-PVTZ
  Basis Set: (AUG-CC-PVTZ AUX)
    Blend: AUG-CC-PVTZ-JKFIT + DEF2-UNIVERSAL-JKFIT

    Orbital Energies [Eh]
    ---------------------

    Doubly Occupied:

       1A   -489.720671     2A    -64.860666     3A    -58.215149
       4A    -58.215149     5A    -58.215148     6A     -9.532916
       7A     -7.140262     8A     -7.140260     9A     -7.140254
      10A     -2.881934    11A     -2.881933    12A     -2.881933
      13A     -2.881931    14A     -2.881930    15A     -0.685999
      16A     -0.139342    17A     -0.139337    18A     -0.139337

  @DF-RHF Final Energy: -2572.53367800584329

   => Energetics <=

    Nuclear Repulsion Energy =              0.0000000000000000
    One-Electron Energy =               -3593.6790519406454223
    Two-Electron Energy =                1021.1453739348020235
    Total Energy =                      -2572.5336780058432851
 Dipole X            :       -239.4543129          232.8025518           -6.6517611
 Dipole Y            :         -0.0000154            0.0000000           -0.0000154
 Dipole Z            :         -0.0000000            0.0000000           -0.0000000
 Magnitude           :                                                    6.6517611
  Basis Set: (AUG-CC-PVTZ AUX)
    Blend: AUG-CC-PVTZ-RI + DEF2-QZVPP-RI
	 Reference Energy          =   -2572.5336780058432851 [Eh]
	 Singles Energy            =      -0.0000000000000000 [Eh]
	 Same-Spin Energy          =      -0.0874050120170263 [Eh]
	 Opposite-Spin Energy      =      -0.2026115746700065 [Eh]
	 Correlation Energy        =      -0.2900165866870328 [Eh]
	 Total Energy              =   -2572.8236945925305008 [Eh]

	 ================> DF-SCS-MP2 Energies <==================
	-----------------------------------------------------------
	 SCS Same-Spin Scale       =       0.3333333333333333 [-]
	 SCS Opposite-Spin Scale   =       1.2000000000000000 [-]
	 SCS Same-Spin Energy      =      -0.0291350040056754 [Eh]
	 SCS Opposite-Spin Energy  =      -0.2431338896040078 [Eh]
	 SCS Correlation Energy    =      -0.2722688936096833 [Eh]
	 SCS Total Energy          =   -2572.8059468994529198 [Eh]
	-----------------------------------------------------------

*** Psi4 exiting successfully. Buy a developer a beer!
