                               Psi4 1.8.2 release

  ==> Input File <==

--------------------------------------------------------------------------
MEMORY 60 GB

molecule dimer {
1 1
Na     0.000000     0.000000     0.000000
--
-1 1
Br     0.000000     2.514159     0.000000
--
-1 1
Br     3.016991     0.000000     0.000000

units ang
no_reorient
no_com
symmetry c1
}

set {
basis        aug-cc-pVTZ
scf_type     df
}

energy("mp2", bsse_type="cp")
--------------------------------------------------------------------------

                               Psi4 1.8.2 release
    Molecular point group: c1
  Charge       = 1
  Multiplicity = 1
  Basis Set: AUG-CC-PVTZ
    Blend: AUG-CC-PVTZ
  Basis Set: (AUG-CC-PVTZ AUX)
    Blend: AUG-CC-PVTZ-JKFIT + DEF2-UNIVERSAL-JKFIT
  @DF-RHF Final Energy:  -161.67604682458781
    Total Energy =                       -161.6760468245878144
 Dipole X            :          0.0005158            0.0000000            0.0005158
 Dipole Y            :          0.0004764            0.0000000            0.0004764
 Dipole Z            :         -0.0000000            0.0000000           -0.0000000
 Magnitude           :                                                    0.0007022
  Basis Set: (AUG-CC-PVTZ AUX)
    Blend: AUG-CC-PVTZ-RI + DEF2-QZVPP-RI
	 Reference Energy          =    -161.6760468245878144 [Eh]
	 Singles Energy            =      -0.0000000000000000 [Eh]
	 Same-Spin Energy          =      -0.0029257874091830 [Eh]
	 Opposite-Spin Energy      =      -0.0105422343299486 [Eh]
	 Correlation Energy        =      -0.0134680217391316 [Eh]
	 Total Energy              =    -161.6895148463269436 [Eh]
	 SCS Total Energy          =    -161.6896727682534731 [Eh]
                               Psi4 1.8.2 release
    Molecular point group: c1
  Basis Set: AUG-CC-PVTZ
    Blend: AUG-CC-PVTZ
  Basis Set: (AUG-CC-PVTZ AUX)
    Blend: AUG-CC-PVTZ-JKFIT + DEF2-UNIVERSAL-JKFIT
  @DF-RHF Final Energy: -2572.53369010788765
    Total Energy =                      -2572.5336901078871961
  Basis Set: (AUG-CC-PVTZ AUX)
                               Psi4 1.8.2 release
  @DF-RHF Final Energy: -5144.94233802163671
    Total Energy =                      -5144.9423380216376245
                               Psi4 1.8.2 release
  @DF-RHF Final Energy: -2734.39278954685415
    Total Energy =                      -2734.3927895468541465
                               Psi4 1.8.2 release
  @DF-RHF Final Energy: -2734.40589788048192
    Total Energy =                      -2734.4058978804819162
                               Psi4 1.8.2 release
  Multiplicity = 1
  @DF-RHF Final Energy: -2572.53368287933199
    Total Energy =                      -2572.5336828793319910
	 Singles Energy            =      -0.0000000000000000 [Eh]
	 Same-Spin Energy          =      -0.0877622454110080 [Eh]
	 Opposite-Spin Energy      =      -0.2034765334644697 [Eh]
	 Correlation Energy        =      -0.2912387788754777 [Eh]
	 Total Energy              =   -2572.8249216582075860 [Eh]
	 SCS Total Energy          =   -2572.8071088012929977 [Eh]
                               Psi4 1.8.2 release
    Molecular point group: c1

    Geometry (in Bohr), charge = -1, multiplicity = 1:

       Center              X                  Y                   Z               Mass
    ------------   -----------------  -----------------  -----------------  -----------------
         NA           0.000000000000     0.000000000000     0.000000000000    22.989769282000
         BR           0.000000000000     4.751071945855     0.000000000000    78.918337600000
         BR           5.701286712971     0.000000000000     0.000000000000    78.918337600000

  Charge       = -1
  Multiplicity = 1
  Basis Set: AUG-CC-PVTZ
    Blend: AUG-CC-PVTZ
  Basis Set: (AUG-CC-PVTZ AUX)
    Blend: AUG-CC-PVTZ-JKFIT + DEF2-UNIVERSAL-JKFIT

    Orbital Energies [Eh]
    ---------------------

    Doubly Occupied:

       1A   -489.772740     2A   -489.756079     3A    -64.913316
       4A    -64.896164     5A    -58.267825     6A    -58.267781
       7A    -58.267681     8A    -58.250729     9A    -58.250633
      10A    -58.250568    11A    -40.334230    12A     -9.586052
      13A     -9.568470    14A     -7.193986    15A     -7.193421
      16A     -7.193064    17A     -7.176311    18A     -7.175744
      19A     -7.175444    20A     -2.935711    21A     -2.935588
      22A     -2.935107    23A     -2.934529    24A     -2.934451
      25A     -2.918149    26A     -2.917991    27A     -2.917601
      28A     -2.916875    29A     -2.916833    30A     -2.656707
      31A     -1.380181    32A     -1.379938    33A     -1.378446
      34A     -0.747669    35A     -0.723872    36A     -0.217346
      37A     -0.200941    38A     -0.197095    39A     -0.180905
      40A     -0.174420    41A     -0.164682

  @DF-RHF Final Energy: -5306.97184653611475

   => Energetics <=

    Nuclear Repulsion Energy =            313.6258907366932362
    One-Electron Energy =               -8040.8849258677182661
    Two-Electron Energy =                2420.2871885949098214
    Total Energy =                      -5306.9718465361147537
 Dipole X            :       -204.3611326          199.5450350           -4.8160977
 Dipole Y            :       -170.0898790          166.2875181           -3.8023609
 Dipole Z            :         -0.0000000            0.0000000           -0.0000000
 Magnitude           :                                                    6.1361833
  Basis Set: (AUG-CC-PVTZ AUX)
    Blend: AUG-CC-PVTZ-RI + DEF2-QZVPP-RI
	 Reference Energy          =   -5306.9718465361147537 [Eh]
	 Singles Energy            =      -0.0000000000000000 [Eh]
	 Same-Spin Energy          =      -0.1812046584034101 [Eh]
	 Opposite-Spin Energy      =      -0.4206602132082629 [Eh]
	 Correlation Energy        =      -0.6018648716116730 [Eh]
	 Total Energy              =   -5307.5737114077264778 [Eh]

	 ================> DF-SCS-MP2 Energies <==================
	-----------------------------------------------------------
	 SCS Same-Spin Scale       =       0.3333333333333333 [-]
	 SCS Opposite-Spin Scale   =       1.2000000000000000 [-]
	 SCS Same-Spin Energy      =      -0.0604015528011367 [Eh]
	 SCS Opposite-Spin Energy  =      -0.5047922558499155 [Eh]
	 SCS Correlation Energy    =      -0.5651938086510522 [Eh]
	 SCS Total Energy          =   -5307.5370403447659555 [Eh]
	-----------------------------------------------------------

*** Psi4 exiting successfully. Buy a developer a beer!
