                               Psi4 1.8.2 release

  ==> Input File <==

--------------------------------------------------------------------------
MEMORY 60 GB

molecule dimer {
1 1
Na         0.000000     0.000000     0.000000
Gh(Br)     0.000000     2.514159     0.000000
Gh(Br)     5.028318     0.000000     0.000000

units ang
no_reorient
no_com
symmetry c1
}

set {
basis        aug-cc-pVTZ
scf_type     df
}

energy("mp2")
--------------------------------------------------------------------------

    Molecular point group: c1

    Geometry (in Angstrom), charge = 1, multiplicity = 1:

       Center              X                  Y                   Z               Mass
    ------------   -----------------  -----------------  -----------------  -----------------
         NA           0.000000000000     0.000000000000     0.000000000000    22.989769282000
      Gh(BR)          0.000000000000     2.514159000000     0.000000000000    78.918337600000
      Gh(BR)          5.028318000000     0.000000000000     0.000000000000    78.918337600000

  Charge       = 1
  Multiplicity = 1
  Basis Set: AUG-CC-PVTZ
    Blend: AUG-CC-PVTZ
  Basis Set: (AUG-CC-PVTZ AUX)
    Blend: AUG-CC-PVTZ-JKFIT + DEF2-UNIVERSAL-JKFIT

    Orbital Energies [Eh]
    ---------------------

    Doubly Occupied:

       1A    -40.763062     2A     -3.075018     3A     -1.798275
       4A     -1.798180     5A     -1.798163

  @DF-RHF Final Energy:  -161.67603805193153

   => Energetics <=

    Nuclear Repulsion Energy =              0.0000000000000000
    One-Electron Energy =                -224.8866776860402297
    Two-Electron Energy =                  63.2106396341087162
    Total Energy =                       -161.6760380519315277
 Dipole X            :          0.0001057            0.0000000            0.0001057
 Dipole Y            :          0.0005930            0.0000000            0.0005930
 Dipole Z            :         -0.0000000            0.0000000           -0.0000000
 Magnitude           :                                                    0.0006023
  Basis Set: (AUG-CC-PVTZ AUX)
    Blend: AUG-CC-PVTZ-RI + DEF2-QZVPP-RI
	 Reference Energy          =    -161.6760380519315277 [Eh]
	 Singles Energy            =      -0.0000000000000000 [Eh]
	 Same-Spin Energy          =      -0.0024781435061953 [Eh]
	 Opposite-Spin Energy      =      -0.0093537319555705 [Eh]
	 Correlation Energy        =      -0.0118318754617658 [Eh]
	 Total Energy              =    -161.6878699273932796 [Eh]

	 ================> DF-SCS-MP2 Energies <==================
	-----------------------------------------------------------
	 SCS Same-Spin Scale       =       0.3333333333333333 [-]
	 SCS Opposite-Spin Scale   =       1.2000000000000000 [-]
	 SCS Same-Spin Energy      =      -0.0008260478353984 [Eh]
	 SCS Opposite-Spin Energy  =      -0.0112244783466846 [Eh]
	 SCS Correlation Energy    =      -0.0120505261820830 [Eh]
	 SCS Total Energy          =    -161.6880885781136215 [Eh]
	-----------------------------------------------------------

*** Psi4 exiting successfully. Buy a developer a beer!
