                               Psi4 1.8.2 release

  ==> Input File <==

--------------------------------------------------------------------------
MEMORY 60 GB

molecule dimer {
-1 1
Gh(Na)     0.000000     0.000000     0.000000
Gh(Br)     0.000000     2.514159     0.000000
Br         3.016991     0.000000     0.000000

units ang
no_reorient
no_com
symmetry c1
}

set {
basis        aug-cc-pVTZ
scf_type     df
}

energy("mp2")
--------------------------------------------------------------------------

    Molecular point group: c1

    Geometry (in Angstrom), charge = -1, multiplicity = 1:

       Center              X                  Y                   Z               Mass
    ------------   -----------------  -----------------  -----------------  -----------------
      Gh(NA)          0.000000000000     0.000000000000     0.000000000000    22.989769282000
      Gh(BR)          0.000000000000     2.514159000000     0.000000000000    78.918337600000
         BR           3.016991000000     0.000000000000     0.000000000000    78.918337600000

  Charge       = -1
  Multiplicity = 1
  Basis Set: AUG-CC-PVTZ
    Blend: AUG-CC-PVTZ
  Basis Set: (AUG-CC-PVTZ AUX)
    Blend: AUG-CC-PVTZ-JKFIT + DEF2-UNIVERSAL-JKFIT

    Orbital Energies [Eh]
    ---------------------

    Doubly Occupied:

       1A   -489.720820     2A    -64.860770     3A    -58.215260
       4A    -58.215259     5A    -58.215258     6A     -9.532948
       7A     -7.140294     8A     -7.140292     9A     -7.140283
      10A     -2.881971    11A     -2.881970    12A     -2.881966
      13A     -2.881964    14A     -2.881963    15A     -0.685997
      16A     -0.139340    17A     -0.139337    18A     -0.139337

  @DF-RHF Final Energy: -2572.53368287933017

   => Energetics <=

    Nuclear Repulsion Energy =              0.0000000000000000
    One-Electron Energy =               -3593.6773046416446959
    Two-Electron Energy =                1021.1436217623144103
    Total Energy =                      -2572.5336828793301720
 Dipole X            :       -205.2467107          199.5450350           -5.7016758
 Dipole Y            :         -0.0000724            0.0000000           -0.0000724
 Dipole Z            :         -0.0000000            0.0000000           -0.0000000
 Magnitude           :                                                    5.7016758
  Basis Set: (AUG-CC-PVTZ AUX)
    Blend: AUG-CC-PVTZ-RI + DEF2-QZVPP-RI
	 Reference Energy          =   -2572.5336828793301720 [Eh]
	 Singles Energy            =      -0.0000000000000000 [Eh]
	 Same-Spin Energy          =      -0.0877622454110014 [Eh]
	 Opposite-Spin Energy      =      -0.2034765334644644 [Eh]
	 Correlation Energy        =      -0.2912387788754658 [Eh]
	 Total Energy              =   -2572.8249216582057670 [Eh]

	 ================> DF-SCS-MP2 Energies <==================
	-----------------------------------------------------------
	 SCS Same-Spin Scale       =       0.3333333333333333 [-]
	 SCS Opposite-Spin Scale   =       1.2000000000000000 [-]
	 SCS Same-Spin Energy      =      -0.0292540818036671 [Eh]
	 SCS Opposite-Spin Energy  =      -0.2441718401573573 [Eh]
	 SCS Correlation Energy    =      -0.2734259219610244 [Eh]
	 SCS Total Energy          =   -2572.8071088012911787 [Eh]
	-----------------------------------------------------------

*** Psi4 exiting successfully. Buy a developer a beer!
