                               Psi4 1.8.2 release

  ==> Input File <==

--------------------------------------------------------------------------
MEMORY 60 GB

molecule dimer {
-1 1
Gh(Na)     0.000000     0.000000     0.000000
Gh(Br)     0.000000     2.514159     0.000000
Br         2.514159     0.000000     0.000000

units ang
no_reorient
no_com
symmetry c1
}

set {
basis        aug-cc-pVTZ
scf_type     df
}

energy("mp2")
--------------------------------------------------------------------------

    Molecular point group: c1

    Geometry (in Angstrom), charge = -1, multiplicity = 1:

       Center              X                  Y                   Z               Mass
    ------------   -----------------  -----------------  -----------------  -----------------
      Gh(NA)          0.000000000000     0.000000000000     0.000000000000    22.989769282000
      Gh(BR)          0.000000000000     2.514159000000     0.000000000000    78.918337600000
         BR           2.514159000000     0.000000000000     0.000000000000    78.918337600000

  Charge       = -1
  Multiplicity = 1
  Basis Set: AUG-CC-PVTZ
    Blend: AUG-CC-PVTZ
  Basis Set: (AUG-CC-PVTZ AUX)
    Blend: AUG-CC-PVTZ-JKFIT + DEF2-UNIVERSAL-JKFIT

    Orbital Energies [Eh]
    ---------------------

    Doubly Occupied:

       1A   -489.721090     2A    -64.860962     3A    -58.215463
       4A    -58.215463     5A    -58.215458     6A     -9.533006
       7A     -7.140353     8A     -7.140350     9A     -7.140338
      10A     -2.882039    11A     -2.882037    12A     -2.882029
      13A     -2.882026    14A     -2.882019    15A     -0.685997
      16A     -0.139339    17A     -0.139339    18A     -0.139338

  @DF-RHF Final Energy: -2572.53369062948650

   => Energetics <=

    Nuclear Repulsion Energy =              0.0000000000000000
    One-Electron Energy =               -3593.6740896147111926
    Two-Electron Energy =                1021.1403989852243512
    Total Energy =                      -2572.5336906294869550
 Dipole X            :       -171.0391783          166.2875181           -4.7516602
 Dipole Y            :         -0.0000932            0.0000000           -0.0000932
 Dipole Z            :         -0.0000000            0.0000000           -0.0000000
 Magnitude           :                                                    4.7516602
  Basis Set: (AUG-CC-PVTZ AUX)
    Blend: AUG-CC-PVTZ-RI + DEF2-QZVPP-RI
	 Reference Energy          =   -2572.5336906294865003 [Eh]
	 Singles Energy            =      -0.0000000000000000 [Eh]
	 Same-Spin Energy          =      -0.0884501808399077 [Eh]
	 Opposite-Spin Energy      =      -0.2050556131978643 [Eh]
	 Correlation Energy        =      -0.2935057940377719 [Eh]
	 Total Energy              =   -2572.8271964235241285 [Eh]

	 ================> DF-SCS-MP2 Energies <==================
	-----------------------------------------------------------
	 SCS Same-Spin Scale       =       0.3333333333333333 [-]
	 SCS Opposite-Spin Scale   =       1.2000000000000000 [-]
	 SCS Same-Spin Energy      =      -0.0294833936133026 [Eh]
	 SCS Opposite-Spin Energy  =      -0.2460667358374371 [Eh]
	 SCS Correlation Energy    =      -0.2755501294507397 [Eh]
	 SCS Total Energy          =   -2572.8092407589374488 [Eh]
	-----------------------------------------------------------

*** Psi4 exiting successfully. Buy a developer a beer!
