                               Psi4 1.8.2 release

  ==> Input File <==

--------------------------------------------------------------------------
MEMORY 60 GB

molecule dimer {
1 1
Na     0.000000     0.000000     0.000000
--
-1 1
Br     0.000000     2.514159     0.000000
--
-1 1
Br     3.519823     0.000000     0.000000

units ang
no_reorient
no_com
symmetry c1
}

set {
basis        aug-cc-pVTZ
scf_type     df
}

energy("mp2", bsse_type="cp")
--------------------------------------------------------------------------

                               Psi4 1.8.2 release
    Molecular point group: c1
  Charge       = 1
  Multiplicity = 1
  Basis Set: AUG-CC-PVTZ
    Blend: AUG-CC-PVTZ
  Basis Set: (AUG-CC-PVTZ AUX)
    Blend: AUG-CC-PVTZ-JKFIT + DEF2-UNIVERSAL-JKFIT
  @DF-RHF Final Energy:  -161.67604474224046
    Total Energy =                       -161.6760447422404638
 Dipole X            :          0.0003702            0.0000000            0.0003702
 Dipole Y            :          0.0005100            0.0000000            0.0005100
 Dipole Z            :          0.0000000            0.0000000            0.0000000
 Magnitude           :                                                    0.0006302
  Basis Set: (AUG-CC-PVTZ AUX)
    Blend: AUG-CC-PVTZ-RI + DEF2-QZVPP-RI
	 Reference Energy          =    -161.6760447422404638 [Eh]
	 Singles Energy            =      -0.0000000000000000 [Eh]
	 Same-Spin Energy          =      -0.0027342419656846 [Eh]
	 Opposite-Spin Energy      =      -0.0100094598496184 [Eh]
	 Correlation Energy        =      -0.0127437018153030 [Eh]
	 Total Energy              =    -161.6887884440557741 [Eh]
	 SCS Total Energy          =    -161.6889675080485631 [Eh]
                               Psi4 1.8.2 release
    Molecular point group: c1
  Basis Set: AUG-CC-PVTZ
    Blend: AUG-CC-PVTZ
  Basis Set: (AUG-CC-PVTZ AUX)
    Blend: AUG-CC-PVTZ-JKFIT + DEF2-UNIVERSAL-JKFIT
  @DF-RHF Final Energy: -2572.53368931688783
    Total Energy =                      -2572.5336893168878305
  Basis Set: (AUG-CC-PVTZ AUX)
                               Psi4 1.8.2 release
  @DF-RHF Final Energy: -5144.95273707776323
    Total Energy =                      -5144.9527370777632314
                               Psi4 1.8.2 release
  @DF-RHF Final Energy: -2734.36971434399311
    Total Energy =                      -2734.3697143439931097
                               Psi4 1.8.2 release
  @DF-RHF Final Energy: -2734.40587660038818
    Total Energy =                      -2734.4058766003881829
                               Psi4 1.8.2 release
  Multiplicity = 1
  @DF-RHF Final Energy: -2572.53367800584329
    Total Energy =                      -2572.5336780058432851
	 Singles Energy            =      -0.0000000000000000 [Eh]
	 Same-Spin Energy          =      -0.0874050120170251 [Eh]
	 Opposite-Spin Energy      =      -0.2026115746700062 [Eh]
	 Correlation Energy        =      -0.2900165866870314 [Eh]
	 Total Energy              =   -2572.8236945925305008 [Eh]
	 SCS Total Energy          =   -2572.8059468994529198 [Eh]
                               Psi4 1.8.2 release
    Molecular point group: c1

    Geometry (in Bohr), charge = -1, multiplicity = 1:

       Center              X                  Y                   Z               Mass
    ------------   -----------------  -----------------  -----------------  -----------------
         NA           0.000000000000     0.000000000000     0.000000000000    22.989769282000
         BR           0.000000000000     4.751071945855     0.000000000000    78.918337600000
         BR           6.651501480087     0.000000000000     0.000000000000    78.918337600000

  Charge       = -1
  Multiplicity = 1
  Basis Set: AUG-CC-PVTZ
    Blend: AUG-CC-PVTZ
  Basis Set: (AUG-CC-PVTZ AUX)
    Blend: AUG-CC-PVTZ-JKFIT + DEF2-UNIVERSAL-JKFIT

    Orbital Energies [Eh]
    ---------------------

    Doubly Occupied:

       1A   -489.784911     2A   -489.748572     3A    -64.925430
       4A    -64.888559     5A    -58.279941     6A    -58.279892
       7A    -58.279814     8A    -58.243123     9A    -58.243017
      10A    -58.242977    11A    -40.360284    12A     -9.598115
      13A     -9.560806    14A     -7.206067    15A     -7.205436
      16A     -7.205142    17A     -7.168562    18A     -7.168029
      19A     -7.167827    20A     -2.947766    21A     -2.947601
      22A     -2.947222    23A     -2.946586    24A     -2.946536
      25A     -2.910384    26A     -2.910216    27A     -2.909962
      28A     -2.909267    29A     -2.909246    30A     -2.681476
      31A     -1.404753    32A     -1.404654    33A     -1.403325
      34A     -0.759058    35A     -0.714184    36A     -0.225295
      37A     -0.207731    38A     -0.207412    39A     -0.170110
      40A     -0.166255    41A     -0.163172

  @DF-RHF Final Energy: -5306.96456715956720

   => Energetics <=

    Nuclear Repulsion Energy =            288.7804516773185242
    One-Electron Energy =               -7990.7925988630968277
    Two-Electron Energy =                2395.0475800262106532
    Total Energy =                      -5306.9645671595681051
 Dipole X            :       -238.6867428          232.8025518           -5.8841910
 Dipole Y            :       -170.0641370          166.2875181           -3.7766189
 Dipole Z            :         -0.0000000            0.0000000           -0.0000000
 Magnitude           :                                                    6.9918920
  Basis Set: (AUG-CC-PVTZ AUX)
    Blend: AUG-CC-PVTZ-RI + DEF2-QZVPP-RI
	 Reference Energy          =   -5306.9645671595671956 [Eh]
	 Singles Energy            =      -0.0000000000000000 [Eh]
	 Same-Spin Energy          =      -0.1798974117214389 [Eh]
	 Opposite-Spin Energy      =      -0.4185544390133910 [Eh]
	 Correlation Energy        =      -0.5984518507348299 [Eh]
	 Total Energy              =   -5307.5630190103020141 [Eh]

	 ================> DF-SCS-MP2 Energies <==================
	-----------------------------------------------------------
	 SCS Same-Spin Scale       =       0.3333333333333333 [-]
	 SCS Opposite-Spin Scale   =       1.2000000000000000 [-]
	 SCS Same-Spin Energy      =      -0.0599658039071463 [Eh]
	 SCS Opposite-Spin Energy  =      -0.5022653268160692 [Eh]
	 SCS Correlation Energy    =      -0.5622311307232155 [Eh]
	 SCS Total Energy          =   -5307.5267982902905715 [Eh]
	-----------------------------------------------------------

*** Psi4 exiting successfully. Buy a developer a beer!
