                               Psi4 1.9 release

  ==> Input File <==

--------------------------------------------------------------------------
MEMORY 60 GB

molecule dimer {
1 1
Gh(F)      0.000000     0.000000     0.000000
Gh(K)      0.000000     2.175180     0.000000
K          3.045252     0.000000     0.000000

units ang
no_reorient
no_com
symmetry c1
}

set {
basis        aug-cc-pVTZ
scf_type     df
}

energy("mp2")
--------------------------------------------------------------------------

    Molecular point group: c1

    Geometry (in Angstrom), charge = 1, multiplicity = 1:

       Center              X                  Y                   Z               Mass
    ------------   -----------------  -----------------  -----------------  -----------------
      Gh(F)           0.000000000000     0.000000000000     0.000000000000    18.998403162730
      Gh(K)           0.000000000000     2.175180000000     0.000000000000    38.963706486400
         K            3.045252000000     0.000000000000     0.000000000000    38.963706486400

  Charge       = 1
  Multiplicity = 1
  Basis Set: AUG-CC-PVTZ
    Blend: AUG-CC-PVTZ
  Basis Set: (AUG-CC-PVTZ AUX)
    Blend: AUG-CC-PVTZ-JKFIT + DEF2-UNIVERSAL-JKFIT

    Orbital Energies [Eh]
    ---------------------

    Doubly Occupied:

       1A   -133.753551     2A    -14.709048     3A    -11.739113
       4A    -11.739107     5A    -11.739107     6A     -1.964292
       7A     -1.170927     8A     -1.170882     9A     -1.170876

  @DF-RHF Final Energy:  -599.01750867502403

   => Energetics <=

    Nuclear Repulsion Energy =              0.0000000000000000
    One-Electron Energy =                -819.7212141681465027
    Two-Electron Energy =                 220.7037054931225271
    Total Energy =                       -599.0175086750239188
 Dipole X            :       -103.5847496          109.3391530            5.7544034
 Dipole Y            :          0.0001012            0.0000000            0.0001012
 Dipole Z            :          0.0000000            0.0000000            0.0000000
 Magnitude           :                                                    5.7544034
  Basis Set: (AUG-CC-PVTZ AUX)
    Blend: AUG-CC-PVTZ-RI + DEF2-QZVPP-RI
	 Reference Energy          =    -599.0175086750240325 [Eh]
	 Singles Energy            =      -0.0000000000000000 [Eh]
	 Same-Spin Energy          =      -0.0278288840686450 [Eh]
	 Opposite-Spin Energy      =      -0.0648864087986524 [Eh]
	 Correlation Energy        =      -0.0927152928672974 [Eh]
	 Total Energy              =    -599.1102239678913293 [Eh]

	 ================> DF-SCS-MP2 Energies <==================
	-----------------------------------------------------------
	 SCS Same-Spin Scale       =       0.3333333333333333 [-]
	 SCS Opposite-Spin Scale   =       1.2000000000000000 [-]
	 SCS Same-Spin Energy      =      -0.0092762946895483 [Eh]
	 SCS Opposite-Spin Energy  =      -0.0778636905583829 [Eh]
	 SCS Correlation Energy    =      -0.0871399852479312 [Eh]
	 SCS Total Energy          =    -599.1046486602720051 [Eh]
	-----------------------------------------------------------

*** Psi4 exiting successfully. Buy a developer a beer!
