                               Psi4 1.9 release

  ==> Input File <==

--------------------------------------------------------------------------
MEMORY 60 GB

molecule dimer {
1 1
Gh(F)      0.000000     0.000000     0.000000
K          0.000000     2.175180     0.000000
Gh(K)      2.827734     0.000000     0.000000

units ang
no_reorient
no_com
symmetry c1
}

set {
basis        aug-cc-pVTZ
scf_type     df
}

energy("mp2")
--------------------------------------------------------------------------

    Molecular point group: c1

    Geometry (in Angstrom), charge = 1, multiplicity = 1:

       Center              X                  Y                   Z               Mass
    ------------   -----------------  -----------------  -----------------  -----------------
      Gh(F)           0.000000000000     0.000000000000     0.000000000000    18.998403162730
         K            0.000000000000     2.175180000000     0.000000000000    38.963706486400
      Gh(K)           2.827734000000     0.000000000000     0.000000000000    38.963706486400

  Charge       = 1
  Multiplicity = 1
  Basis Set: AUG-CC-PVTZ
    Blend: AUG-CC-PVTZ
  Basis Set: (AUG-CC-PVTZ AUX)
    Blend: AUG-CC-PVTZ-JKFIT + DEF2-UNIVERSAL-JKFIT

    Orbital Energies [Eh]
    ---------------------

    Doubly Occupied:

       1A   -133.753428     2A    -14.708945     3A    -11.739015
       4A    -11.739010     5A    -11.739007     6A     -1.964233
       7A     -1.170901     8A     -1.170857     9A     -1.170831

  @DF-RHF Final Energy:  -599.01750985903288

   => Energetics <=

    Nuclear Repulsion Energy =              0.0000000000000000
    One-Electron Energy =                -819.7225674075508550
    Two-Electron Energy =                 220.7050575485179706
    Total Energy =                       -599.0175098590328844
 Dipole X            :          0.0001056            0.0000000            0.0001056
 Dipole Y            :        -73.9892792           78.0993950            4.1101158
 Dipole Z            :         -0.0000000            0.0000000           -0.0000000
 Magnitude           :                                                    4.1101158
  Basis Set: (AUG-CC-PVTZ AUX)
    Blend: AUG-CC-PVTZ-RI + DEF2-QZVPP-RI
	 Reference Energy          =    -599.0175098590328844 [Eh]
	 Singles Energy            =      -0.0000000000000000 [Eh]
	 Same-Spin Energy          =      -0.0297668835384562 [Eh]
	 Opposite-Spin Energy      =      -0.0707185569405184 [Eh]
	 Correlation Energy        =      -0.1004854404789746 [Eh]
	 Total Energy              =    -599.1179952995119038 [Eh]

	 ================> DF-SCS-MP2 Energies <==================
	-----------------------------------------------------------
	 SCS Same-Spin Scale       =       0.3333333333333333 [-]
	 SCS Opposite-Spin Scale   =       1.2000000000000000 [-]
	 SCS Same-Spin Energy      =      -0.0099222945128187 [Eh]
	 SCS Opposite-Spin Energy  =      -0.0848622683286221 [Eh]
	 SCS Correlation Energy    =      -0.0947845628414409 [Eh]
	 SCS Total Energy          =    -599.1122944218743669 [Eh]
	-----------------------------------------------------------

*** Psi4 exiting successfully. Buy a developer a beer!
