                               Psi4 1.9 release

  ==> Input File <==

--------------------------------------------------------------------------
MEMORY 60 GB

molecule dimer {
-1 1
F      0.000000     0.000000     0.000000
--
1 1
K      0.000000     2.175180     0.000000
--
1 1
K      2.175180     0.000000     0.000000

units ang
no_reorient
no_com
symmetry c1
}

set {
basis        aug-cc-pVTZ
scf_type     df
}

energy("mp2", bsse_type="cp")
--------------------------------------------------------------------------

                               Psi4 1.9 release
    Molecular point group: c1
  Charge       = -1
  Multiplicity = 1
  Basis Set: AUG-CC-PVTZ
    Blend: AUG-CC-PVTZ
  Basis Set: (AUG-CC-PVTZ AUX)
    Blend: AUG-CC-PVTZ-JKFIT + DEF2-UNIVERSAL-JKFIT
  @DF-RHF Final Energy:   -99.45086784730682
    Total Energy =                        -99.4508678473068244
 Dipole X            :          0.0001486            0.0000000            0.0001486
 Dipole Y            :          0.0001486            0.0000000            0.0001486
 Dipole Z            :          0.0000000            0.0000000            0.0000000
 Magnitude           :                                                    0.0002101
  Basis Set: (AUG-CC-PVTZ AUX)
    Blend: AUG-CC-PVTZ-RI + DEF2-QZVPP-RI
	 Reference Energy          =     -99.4508678473068244 [Eh]
	 Singles Energy            =      -0.0000000000000000 [Eh]
	 Same-Spin Energy          =      -0.0816921745402743 [Eh]
	 Opposite-Spin Energy      =      -0.2270851634329548 [Eh]
	 Correlation Energy        =      -0.3087773379732291 [Eh]
	 Total Energy              =     -99.7596451852800499 [Eh]
	 SCS Total Energy          =     -99.7506007682731308 [Eh]
                               Psi4 1.9 release
    Molecular point group: c1
  Basis Set: AUG-CC-PVTZ
    Blend: AUG-CC-PVTZ
  Basis Set: (AUG-CC-PVTZ AUX)
    Blend: AUG-CC-PVTZ-JKFIT + DEF2-UNIVERSAL-JKFIT
  @DF-RHF Final Energy:  -599.01751007736721
    Total Energy =                       -599.0175100773672057
  Basis Set: (AUG-CC-PVTZ AUX)
                               Psi4 1.9 release
  @DF-RHF Final Energy: -1197.86620597973956
    Total Energy =                      -1197.8662059797395614
                               Psi4 1.9 release
  @DF-RHF Final Energy:  -698.68430261307265
    Total Energy =                       -698.6843026130725320
                               Psi4 1.9 release
  @DF-RHF Final Energy:  -698.68430261324988
    Total Energy =                       -698.6843026132498835
                               Psi4 1.9 release
  Multiplicity = 1
  @DF-RHF Final Energy:  -599.01751007723249
    Total Energy =                       -599.0175100772324868
	 Singles Energy            =      -0.0000000000000000 [Eh]
	 Same-Spin Energy          =      -0.0304892866960835 [Eh]
	 Opposite-Spin Energy      =      -0.0727355023253045 [Eh]
	 Correlation Energy        =      -0.1032247890213880 [Eh]
	 Total Energy              =    -599.1207348662538834 [Eh]
	 SCS Total Energy          =    -599.1149557755882142 [Eh]
                               Psi4 1.9 release
    Molecular point group: c1

    Geometry (in Bohr), charge = 1, multiplicity = 1:

       Center              X                  Y                   Z               Mass
    ------------   -----------------  -----------------  -----------------  -----------------
         F            0.000000000000     0.000000000000     0.000000000000    18.998403162730
         K            0.000000000000     4.110494473573     0.000000000000    38.963706486400
         K            4.110494473573     0.000000000000     0.000000000000    38.963706486400

  Charge       = 1
  Multiplicity = 1
  Basis Set: AUG-CC-PVTZ
    Blend: AUG-CC-PVTZ
  Basis Set: (AUG-CC-PVTZ AUX)
    Blend: AUG-CC-PVTZ-JKFIT + DEF2-UNIVERSAL-JKFIT

    Orbital Energies [Eh]
    ---------------------

    Doubly Occupied:

       1A   -133.664875     2A   -133.664875     3A    -26.273855
       4A    -14.622687     5A    -14.622686     6A    -11.652639
       7A    -11.652639     8A    -11.652487     9A    -11.652487
      10A    -11.652258    11A    -11.652258    12A     -1.890301
      13A     -1.884652    14A     -1.555340    15A     -1.111864
      16A     -1.098355    17A     -1.095156    18A     -1.093989
      19A     -1.086382    20A     -1.086173    21A     -0.647207
      22A     -0.645466    23A     -0.644273

  @DF-RHF Final Energy: -1297.73526777739562

   => Energetics <=

    Nuclear Repulsion Energy =            145.3026033359741689
    One-Electron Energy =               -2072.8699367760159475
    Two-Electron Energy =                 629.8320656626460732
    Total Energy =                      -1297.7352677773956202
 Dipole X            :        -74.5416244           78.0993950            3.5577706
 Dipole Y            :        -74.5416244           78.0993950            3.5577706
 Dipole Z            :          0.0000000            0.0000000            0.0000000
 Magnitude           :                                                    5.0314475
  Basis Set: (AUG-CC-PVTZ AUX)
    Blend: AUG-CC-PVTZ-RI + DEF2-QZVPP-RI
	 Reference Energy          =   -1297.7352677773956202 [Eh]
	 Singles Energy            =      -0.0000000000000000 [Eh]
	 Same-Spin Energy          =      -0.1452648264435537 [Eh]
	 Opposite-Spin Energy      =      -0.3713493873322812 [Eh]
	 Correlation Energy        =      -0.5166142137758349 [Eh]
	 Total Energy              =   -1298.2518819911715582 [Eh]

	 ================> DF-SCS-MP2 Energies <==================
	-----------------------------------------------------------
	 SCS Same-Spin Scale       =       0.3333333333333333 [-]
	 SCS Opposite-Spin Scale   =       1.2000000000000000 [-]
	 SCS Same-Spin Energy      =      -0.0484216088145179 [Eh]
	 SCS Opposite-Spin Energy  =      -0.4456192647987375 [Eh]
	 SCS Correlation Energy    =      -0.4940408736132554 [Eh]
	 SCS Total Energy          =   -1298.2293086510089779 [Eh]
	-----------------------------------------------------------

*** Psi4 exiting successfully. Buy a developer a beer!
