                               Psi4 1.9 release

  ==> Input File <==

--------------------------------------------------------------------------
MEMORY 60 GB

molecule dimer {
1 1
F          0.000000     0.000000     0.000000
K          0.000000     2.175180     0.000000
K          2.392698     0.000000     0.000000

units ang
no_reorient
no_com
symmetry c1
}

set {
basis        aug-cc-pVTZ
scf_type     df
}

energy("mp2")
--------------------------------------------------------------------------

    Molecular point group: c1

    Geometry (in Angstrom), charge = 1, multiplicity = 1:

       Center              X                  Y                   Z               Mass
    ------------   -----------------  -----------------  -----------------  -----------------
         F            0.000000000000     0.000000000000     0.000000000000    18.998403162730
         K            0.000000000000     2.175180000000     0.000000000000    38.963706486400
         K            2.392698000000     0.000000000000     0.000000000000    38.963706486400

  Charge       = 1
  Multiplicity = 1
  Basis Set: AUG-CC-PVTZ
    Blend: AUG-CC-PVTZ
  Basis Set: (AUG-CC-PVTZ AUX)
    Blend: AUG-CC-PVTZ-JKFIT + DEF2-UNIVERSAL-JKFIT

    Orbital Energies [Eh]
    ---------------------

    Doubly Occupied:

       1A   -133.684016     2A   -133.655730     3A    -26.262128
       4A    -14.640642     5A    -14.613456     6A    -11.670722
       7A    -11.670604     8A    -11.670327     9A    -11.643402
      10A    -11.643267    11A    -11.643027    12A     -1.900545
      13A     -1.877927    14A     -1.534637    15A     -1.114827
      16A     -1.109338    17A     -1.103217    18A     -1.087393
      19A     -1.087056    20A     -1.079711    21A     -0.632695
      22A     -0.629273    23A     -0.627025

  @DF-RHF Final Energy: -1297.74216770250109

   => Energetics <=

    Nuclear Repulsion Energy =            138.4965793646515522
    One-Electron Energy =               -2059.3155583443567593
    Two-Electron Energy =                 623.0768112772042286
    Total Energy =                      -1297.7421677025008648
 Dipole X            :        -81.8726578           85.9093345            4.0366767
 Dipole Y            :        -74.5548098           78.0993950            3.5445852
 Dipole Z            :          0.0000000            0.0000000            0.0000000
 Magnitude           :                                                    5.3720427
  Basis Set: (AUG-CC-PVTZ AUX)
    Blend: AUG-CC-PVTZ-RI + DEF2-QZVPP-RI
	 Reference Energy          =   -1297.7421677025010922 [Eh]
	 Singles Energy            =      -0.0000000000000000 [Eh]
	 Same-Spin Energy          =      -0.1435549992515879 [Eh]
	 Opposite-Spin Energy      =      -0.3682346734018711 [Eh]
	 Correlation Energy        =      -0.5117896726534590 [Eh]
	 Total Energy              =   -1298.2539573751546413 [Eh]

	 ================> DF-SCS-MP2 Energies <==================
	-----------------------------------------------------------
	 SCS Same-Spin Scale       =       0.3333333333333333 [-]
	 SCS Opposite-Spin Scale   =       1.2000000000000000 [-]
	 SCS Same-Spin Energy      =      -0.0478516664171960 [Eh]
	 SCS Opposite-Spin Energy  =      -0.4418816080822453 [Eh]
	 SCS Correlation Energy    =      -0.4897332744994413 [Eh]
	 SCS Total Energy          =   -1298.2319009770005778 [Eh]
	-----------------------------------------------------------

*** Psi4 exiting successfully. Buy a developer a beer!
