                               Psi4 1.9 release

  ==> Input File <==

--------------------------------------------------------------------------
MEMORY 60 GB

molecule dimer {
1 1
Gh(F)      0.000000     0.000000     0.000000
Gh(K)      0.000000     2.175180     0.000000
K          2.827734     0.000000     0.000000

units ang
no_reorient
no_com
symmetry c1
}

set {
basis        aug-cc-pVTZ
scf_type     df
}

energy("mp2")
--------------------------------------------------------------------------

    Molecular point group: c1

    Geometry (in Angstrom), charge = 1, multiplicity = 1:

       Center              X                  Y                   Z               Mass
    ------------   -----------------  -----------------  -----------------  -----------------
      Gh(F)           0.000000000000     0.000000000000     0.000000000000    18.998403162730
      Gh(K)           0.000000000000     2.175180000000     0.000000000000    38.963706486400
         K            2.827734000000     0.000000000000     0.000000000000    38.963706486400

  Charge       = 1
  Multiplicity = 1
  Basis Set: AUG-CC-PVTZ
    Blend: AUG-CC-PVTZ
  Basis Set: (AUG-CC-PVTZ AUX)
    Blend: AUG-CC-PVTZ-JKFIT + DEF2-UNIVERSAL-JKFIT

    Orbital Energies [Eh]
    ---------------------

    Doubly Occupied:

       1A   -133.753542     2A    -14.709040     3A    -11.739107
       4A    -11.739101     5A    -11.739101     6A     -1.964281
       7A     -1.170928     8A     -1.170880     9A     -1.170873

  @DF-RHF Final Energy:  -599.01750902546689

   => Energetics <=

    Nuclear Repulsion Energy =              0.0000000000000000
    One-Electron Energy =                -819.7213123015986866
    Two-Electron Energy =                 220.7038032761317936
    Total Energy =                       -599.0175090254668930
 Dipole X            :        -96.1858213          101.5292135            5.3433922
 Dipole Y            :          0.0000905            0.0000000            0.0000905
 Dipole Z            :         -0.0000000            0.0000000           -0.0000000
 Magnitude           :                                                    5.3433922
  Basis Set: (AUG-CC-PVTZ AUX)
    Blend: AUG-CC-PVTZ-RI + DEF2-QZVPP-RI
	 Reference Energy          =    -599.0175090254668930 [Eh]
	 Singles Energy            =      -0.0000000000000000 [Eh]
	 Same-Spin Energy          =      -0.0282998006134496 [Eh]
	 Opposite-Spin Energy      =      -0.0663361103521387 [Eh]
	 Correlation Energy        =      -0.0946359109655882 [Eh]
	 Total Energy              =    -599.1121449364325144 [Eh]

	 ================> DF-SCS-MP2 Energies <==================
	-----------------------------------------------------------
	 SCS Same-Spin Scale       =       0.3333333333333333 [-]
	 SCS Opposite-Spin Scale   =       1.2000000000000000 [-]
	 SCS Same-Spin Energy      =      -0.0094332668711499 [Eh]
	 SCS Opposite-Spin Energy  =      -0.0796033324225664 [Eh]
	 SCS Correlation Energy    =      -0.0890365992937162 [Eh]
	 SCS Total Energy          =    -599.1065456247606562 [Eh]
	-----------------------------------------------------------

*** Psi4 exiting successfully. Buy a developer a beer!
