                               Psi4 1.9 release

  ==> Input File <==

--------------------------------------------------------------------------
MEMORY 60 GB

molecule dimer {
1 1
F          0.000000     0.000000     0.000000
K          0.000000     2.175180     0.000000
K          2.610216     0.000000     0.000000

units ang
no_reorient
no_com
symmetry c1
}

set {
basis        aug-cc-pVTZ
scf_type     df
}

energy("mp2")
--------------------------------------------------------------------------

    Molecular point group: c1

    Geometry (in Angstrom), charge = 1, multiplicity = 1:

       Center              X                  Y                   Z               Mass
    ------------   -----------------  -----------------  -----------------  -----------------
         F            0.000000000000     0.000000000000     0.000000000000    18.998403162730
         K            0.000000000000     2.175180000000     0.000000000000    38.963706486400
         K            2.610216000000     0.000000000000     0.000000000000    38.963706486400

  Charge       = 1
  Multiplicity = 1
  Basis Set: AUG-CC-PVTZ
    Blend: AUG-CC-PVTZ
  Basis Set: (AUG-CC-PVTZ AUX)
    Blend: AUG-CC-PVTZ-JKFIT + DEF2-UNIVERSAL-JKFIT

    Orbital Energies [Eh]
    ---------------------

    Doubly Occupied:

       1A   -133.697903     2A   -133.647354     3A    -26.250796
       4A    -14.653941     5A    -14.605042     6A    -11.684066
       7A    -11.683972     8A    -11.683723     9A    -11.634978
      10A    -11.634861    11A    -11.634613    12A     -1.911418
      13A     -1.869516    14A     -1.518294    15A     -1.122903
      16A     -1.119889    17A     -1.113763    18A     -1.081107
      19A     -1.078932    20A     -1.071151    21A     -0.617734
      22A     -0.615120    23A     -0.612608

  @DF-RHF Final Energy: -1297.74106118706686

   => Energetics <=

    Nuclear Repulsion Energy =            132.4917407820856852
    One-Electron Energy =               -2047.3782329271052731
    Two-Electron Energy =                 617.1454309579526125
    Total Energy =                      -1297.7410611870668617
 Dipole X            :        -89.2205507           93.7192740            4.4987233
 Dipole Y            :        -74.5645428           78.0993950            3.5348522
 Dipole Z            :          0.0000000            0.0000000            0.0000000
 Magnitude           :                                                    5.7213365
  Basis Set: (AUG-CC-PVTZ AUX)
    Blend: AUG-CC-PVTZ-RI + DEF2-QZVPP-RI
	 Reference Energy          =   -1297.7410611870668617 [Eh]
	 Singles Energy            =      -0.0000000000000000 [Eh]
	 Same-Spin Energy          =      -0.1423340300149949 [Eh]
	 Opposite-Spin Energy      =      -0.3657759241371970 [Eh]
	 Correlation Energy        =      -0.5081099541521918 [Eh]
	 Total Energy              =   -1298.2491711412189943 [Eh]

	 ================> DF-SCS-MP2 Energies <==================
	-----------------------------------------------------------
	 SCS Same-Spin Scale       =       0.3333333333333333 [-]
	 SCS Opposite-Spin Scale   =       1.2000000000000000 [-]
	 SCS Same-Spin Energy      =      -0.0474446766716650 [Eh]
	 SCS Opposite-Spin Energy  =      -0.4389311089646364 [Eh]
	 SCS Correlation Energy    =      -0.4863757856363013 [Eh]
	 SCS Total Energy          =   -1298.2274369727031171 [Eh]
	-----------------------------------------------------------

*** Psi4 exiting successfully. Buy a developer a beer!
