                               Psi4 1.9 release

  ==> Input File <==

--------------------------------------------------------------------------
MEMORY 60 GB

molecule dimer {
1 1
Gh(F)      0.000000     0.000000     0.000000
Gh(K)      0.000000     2.175180     0.000000
K          4.350360     0.000000     0.000000

units ang
no_reorient
no_com
symmetry c1
}

set {
basis        aug-cc-pVTZ
scf_type     df
}

energy("mp2")
--------------------------------------------------------------------------

    Molecular point group: c1

    Geometry (in Angstrom), charge = 1, multiplicity = 1:

       Center              X                  Y                   Z               Mass
    ------------   -----------------  -----------------  -----------------  -----------------
      Gh(F)           0.000000000000     0.000000000000     0.000000000000    18.998403162730
      Gh(K)           0.000000000000     2.175180000000     0.000000000000    38.963706486400
         K            4.350360000000     0.000000000000     0.000000000000    38.963706486400

  Charge       = 1
  Multiplicity = 1
  Basis Set: AUG-CC-PVTZ
    Blend: AUG-CC-PVTZ
  Basis Set: (AUG-CC-PVTZ AUX)
    Blend: AUG-CC-PVTZ-JKFIT + DEF2-UNIVERSAL-JKFIT

    Orbital Energies [Eh]
    ---------------------

    Doubly Occupied:

       1A   -133.753803     2A    -14.709247     3A    -11.739312
       4A    -11.739308     5A    -11.739308     6A     -1.964385
       7A     -1.170983     8A     -1.170957     9A     -1.170956

  @DF-RHF Final Energy:  -599.01750704551250

   => Energetics <=

    Nuclear Repulsion Energy =              0.0000000000000000
    One-Electron Energy =                -819.7185010687177282
    Two-Electron Energy =                 220.7009940232052827
    Total Energy =                       -599.0175070455125024
 Dipole X            :       -147.9779679          156.1987900            8.2208221
 Dipole Y            :          0.0000647            0.0000000            0.0000647
 Dipole Z            :         -0.0000000            0.0000000           -0.0000000
 Magnitude           :                                                    8.2208221
  Basis Set: (AUG-CC-PVTZ AUX)
    Blend: AUG-CC-PVTZ-RI + DEF2-QZVPP-RI
	 Reference Energy          =    -599.0175070455125024 [Eh]
	 Singles Energy            =      -0.0000000000000000 [Eh]
	 Same-Spin Energy          =      -0.0266388468244877 [Eh]
	 Opposite-Spin Energy      =      -0.0615765779768839 [Eh]
	 Correlation Energy        =      -0.0882154248013715 [Eh]
	 Total Energy              =    -599.1057224703138218 [Eh]

	 ================> DF-SCS-MP2 Energies <==================
	-----------------------------------------------------------
	 SCS Same-Spin Scale       =       0.3333333333333333 [-]
	 SCS Opposite-Spin Scale   =       1.2000000000000000 [-]
	 SCS Same-Spin Energy      =      -0.0088796156081626 [Eh]
	 SCS Opposite-Spin Energy  =      -0.0738918935722606 [Eh]
	 SCS Correlation Energy    =      -0.0827715091804232 [Eh]
	 SCS Total Energy          =    -599.1002785546929772 [Eh]
	-----------------------------------------------------------

*** Psi4 exiting successfully. Buy a developer a beer!
