                               Psi4 1.9 release

  ==> Input File <==

--------------------------------------------------------------------------
MEMORY 60 GB

molecule dimer {
1 1
Gh(F)      0.000000     0.000000     0.000000
K          0.000000     2.175180     0.000000
Gh(K)      2.392698     0.000000     0.000000

units ang
no_reorient
no_com
symmetry c1
}

set {
basis        aug-cc-pVTZ
scf_type     df
}

energy("mp2")
--------------------------------------------------------------------------

    Molecular point group: c1

    Geometry (in Angstrom), charge = 1, multiplicity = 1:

       Center              X                  Y                   Z               Mass
    ------------   -----------------  -----------------  -----------------  -----------------
      Gh(F)           0.000000000000     0.000000000000     0.000000000000    18.998403162730
         K            0.000000000000     2.175180000000     0.000000000000    38.963706486400
      Gh(K)           2.392698000000     0.000000000000     0.000000000000    38.963706486400

  Charge       = 1
  Multiplicity = 1
  Basis Set: AUG-CC-PVTZ
    Blend: AUG-CC-PVTZ
  Basis Set: (AUG-CC-PVTZ AUX)
    Blend: AUG-CC-PVTZ-JKFIT + DEF2-UNIVERSAL-JKFIT

    Orbital Energies [Eh]
    ---------------------

    Doubly Occupied:

       1A   -133.753375     2A    -14.708903     3A    -11.738973
       4A    -11.738968     5A    -11.738966     6A     -1.964217
       7A     -1.170892     8A     -1.170844     9A     -1.170819

  @DF-RHF Final Energy:  -599.01751003015761

   => Energetics <=

    Nuclear Repulsion Energy =              0.0000000000000000
    One-Electron Energy =                -819.7231092778293942
    Two-Electron Energy =                 220.7055992476717847
    Total Energy =                       -599.0175100301576094
 Dipole X            :          0.0001509            0.0000000            0.0001509
 Dipole Y            :        -73.9892856           78.0993950            4.1101094
 Dipole Z            :         -0.0000000            0.0000000           -0.0000000
 Magnitude           :                                                    4.1101094
  Basis Set: (AUG-CC-PVTZ AUX)
    Blend: AUG-CC-PVTZ-RI + DEF2-QZVPP-RI
	 Reference Energy          =    -599.0175100301576094 [Eh]
	 Singles Energy            =      -0.0000000000000000 [Eh]
	 Same-Spin Energy          =      -0.0302871809598460 [Eh]
	 Opposite-Spin Energy      =      -0.0721653415240683 [Eh]
	 Correlation Energy        =      -0.1024525224839142 [Eh]
	 Total Energy              =    -599.1199625526414820 [Eh]

	 ================> DF-SCS-MP2 Energies <==================
	-----------------------------------------------------------
	 SCS Same-Spin Scale       =       0.3333333333333333 [-]
	 SCS Opposite-Spin Scale   =       1.2000000000000000 [-]
	 SCS Same-Spin Energy      =      -0.0100957269866153 [Eh]
	 SCS Opposite-Spin Energy  =      -0.0865984098288819 [Eh]
	 SCS Correlation Energy    =      -0.0966941368154972 [Eh]
	 SCS Total Energy          =    -599.1142041669730816 [Eh]
	-----------------------------------------------------------

*** Psi4 exiting successfully. Buy a developer a beer!
