                               Psi4 1.9 release

  ==> Input File <==

--------------------------------------------------------------------------
MEMORY 60 GB

molecule dimer {
1 1
Gh(F)      0.000000     0.000000     0.000000
Gh(K)      0.000000     2.175180     0.000000
K          3.262770     0.000000     0.000000

units ang
no_reorient
no_com
symmetry c1
}

set {
basis        aug-cc-pVTZ
scf_type     df
}

energy("mp2")
--------------------------------------------------------------------------

    Molecular point group: c1

    Geometry (in Angstrom), charge = 1, multiplicity = 1:

       Center              X                  Y                   Z               Mass
    ------------   -----------------  -----------------  -----------------  -----------------
      Gh(F)           0.000000000000     0.000000000000     0.000000000000    18.998403162730
      Gh(K)           0.000000000000     2.175180000000     0.000000000000    38.963706486400
         K            3.262770000000     0.000000000000     0.000000000000    38.963706486400

  Charge       = 1
  Multiplicity = 1
  Basis Set: AUG-CC-PVTZ
    Blend: AUG-CC-PVTZ
  Basis Set: (AUG-CC-PVTZ AUX)
    Blend: AUG-CC-PVTZ-JKFIT + DEF2-UNIVERSAL-JKFIT

    Orbital Energies [Eh]
    ---------------------

    Doubly Occupied:

       1A   -133.753583     2A    -14.709072     3A    -11.739136
       4A    -11.739131     5A    -11.739131     6A     -1.964305
       7A     -1.170934     8A     -1.170890     9A     -1.170885

  @DF-RHF Final Energy:  -599.01750836191081

   => Energetics <=

    Nuclear Repulsion Energy =              0.0000000000000000
    One-Electron Energy =                -819.7208870840784130
    Two-Electron Energy =                 220.7033787221675993
    Total Energy =                       -599.0175083619108136
 Dipole X            :       -110.9836892          117.1490925            6.1654033
 Dipole Y            :          0.0001160            0.0000000            0.0001160
 Dipole Z            :         -0.0000000            0.0000000           -0.0000000
 Magnitude           :                                                    6.1654033
  Basis Set: (AUG-CC-PVTZ AUX)
    Blend: AUG-CC-PVTZ-RI + DEF2-QZVPP-RI
	 Reference Energy          =    -599.0175083619108136 [Eh]
	 Singles Energy            =      -0.0000000000000000 [Eh]
	 Same-Spin Energy          =      -0.0274967022162937 [Eh]
	 Opposite-Spin Energy      =      -0.0639670738946021 [Eh]
	 Correlation Energy        =      -0.0914637761108958 [Eh]
	 Total Energy              =    -599.1089721380217270 [Eh]

	 ================> DF-SCS-MP2 Energies <==================
	-----------------------------------------------------------
	 SCS Same-Spin Scale       =       0.3333333333333333 [-]
	 SCS Opposite-Spin Scale   =       1.2000000000000000 [-]
	 SCS Same-Spin Energy      =      -0.0091655674054312 [Eh]
	 SCS Opposite-Spin Energy  =      -0.0767604886735225 [Eh]
	 SCS Correlation Energy    =      -0.0859260560789538 [Eh]
	 SCS Total Energy          =    -599.1034344179897744 [Eh]
	-----------------------------------------------------------

*** Psi4 exiting successfully. Buy a developer a beer!
