                               Psi4 1.9 release

  ==> Input File <==

--------------------------------------------------------------------------
MEMORY 60 GB

molecule dimer {
-1 1
F          0.000000     0.000000     0.000000
Gh(K)      0.000000     2.175180     0.000000
Gh(K)      4.350360     0.000000     0.000000

units ang
no_reorient
no_com
symmetry c1
}

set {
basis        aug-cc-pVTZ
scf_type     df
}

energy("mp2")
--------------------------------------------------------------------------

    Molecular point group: c1

    Geometry (in Angstrom), charge = -1, multiplicity = 1:

       Center              X                  Y                   Z               Mass
    ------------   -----------------  -----------------  -----------------  -----------------
         F            0.000000000000     0.000000000000     0.000000000000    18.998403162730
      Gh(K)           0.000000000000     2.175180000000     0.000000000000    38.963706486400
      Gh(K)           4.350360000000     0.000000000000     0.000000000000    38.963706486400

  Charge       = -1
  Multiplicity = 1
  Basis Set: AUG-CC-PVTZ
    Blend: AUG-CC-PVTZ
  Basis Set: (AUG-CC-PVTZ AUX)
    Blend: AUG-CC-PVTZ-JKFIT + DEF2-UNIVERSAL-JKFIT

    Orbital Energies [Eh]
    ---------------------

    Doubly Occupied:

       1A    -25.833892     2A     -1.076108     3A     -0.181057
       4A     -0.181026     5A     -0.181022

  @DF-RHF Final Energy:   -99.45084542242417

   => Energetics <=

    Nuclear Repulsion Energy =              0.0000000000000000
    One-Electron Energy =                -143.9954796944669795
    Two-Electron Energy =                  44.5446342720428134
    Total Energy =                        -99.4508454224241660
 Dipole X            :          0.0002333            0.0000000            0.0002333
 Dipole Y            :         -0.0002856            0.0000000           -0.0002856
 Dipole Z            :          0.0000000            0.0000000            0.0000000
 Magnitude           :                                                    0.0003688
  Basis Set: (AUG-CC-PVTZ AUX)
    Blend: AUG-CC-PVTZ-RI + DEF2-QZVPP-RI
	 Reference Energy          =     -99.4508454224241660 [Eh]
	 Singles Energy            =      -0.0000000000000000 [Eh]
	 Same-Spin Energy          =      -0.0816567291273165 [Eh]
	 Opposite-Spin Energy      =      -0.2268494361412741 [Eh]
	 Correlation Energy        =      -0.3085061652685906 [Eh]
	 Total Energy              =     -99.7593515876927626 [Eh]

	 ================> DF-SCS-MP2 Energies <==================
	-----------------------------------------------------------
	 SCS Same-Spin Scale       =       0.3333333333333333 [-]
	 SCS Opposite-Spin Scale   =       1.2000000000000000 [-]
	 SCS Same-Spin Energy      =      -0.0272189097091055 [Eh]
	 SCS Opposite-Spin Energy  =      -0.2722193233695289 [Eh]
	 SCS Correlation Energy    =      -0.2994382330786344 [Eh]
	 SCS Total Energy          =     -99.7502836555027983 [Eh]
	-----------------------------------------------------------

*** Psi4 exiting successfully. Buy a developer a beer!
