                               Psi4 1.9 release

  ==> Input File <==

--------------------------------------------------------------------------
MEMORY 60 GB

molecule dimer {
-1 1
F      0.000000     0.000000     0.000000
--
1 1
K      0.000000     2.175180     0.000000
--
1 1
K      3.262770     0.000000     0.000000

units ang
no_reorient
no_com
symmetry c1
}

set {
basis        aug-cc-pVTZ
scf_type     df
}

energy("mp2", bsse_type="cp")
--------------------------------------------------------------------------

                               Psi4 1.9 release
    Molecular point group: c1
  Charge       = -1
  Multiplicity = 1
  Basis Set: AUG-CC-PVTZ
    Blend: AUG-CC-PVTZ
  Basis Set: (AUG-CC-PVTZ AUX)
    Blend: AUG-CC-PVTZ-JKFIT + DEF2-UNIVERSAL-JKFIT
  @DF-RHF Final Energy:   -99.45084907342566
    Total Energy =                        -99.4508490734256441
 Dipole X            :         -0.0000022            0.0000000           -0.0000022
 Dipole Y            :         -0.0003878            0.0000000           -0.0003878
 Dipole Z            :          0.0000000            0.0000000            0.0000000
 Magnitude           :                                                    0.0003878
  Basis Set: (AUG-CC-PVTZ AUX)
    Blend: AUG-CC-PVTZ-RI + DEF2-QZVPP-RI
	 Reference Energy          =     -99.4508490734256583 [Eh]
	 Singles Energy            =      -0.0000000000000000 [Eh]
	 Same-Spin Energy          =      -0.0816678220467209 [Eh]
	 Opposite-Spin Energy      =      -0.2269265546929744 [Eh]
	 Correlation Energy        =      -0.3085943767396953 [Eh]
	 Total Energy              =     -99.7594434501653495 [Eh]
	 SCS Total Energy          =     -99.7503835464061410 [Eh]
                               Psi4 1.9 release
    Molecular point group: c1
  Basis Set: AUG-CC-PVTZ
    Blend: AUG-CC-PVTZ
  Basis Set: (AUG-CC-PVTZ AUX)
    Blend: AUG-CC-PVTZ-JKFIT + DEF2-UNIVERSAL-JKFIT
  @DF-RHF Final Energy:  -599.01750959110757
    Total Energy =                       -599.0175095911075687
  Basis Set: (AUG-CC-PVTZ AUX)
                               Psi4 1.9 release
  @DF-RHF Final Energy: -1197.90176781799323
    Total Energy =                      -1197.9017678179932318
                               Psi4 1.9 release
  @DF-RHF Final Energy:  -698.63432347218259
    Total Energy =                       -698.6343234721827002
                               Psi4 1.9 release
  @DF-RHF Final Energy:  -698.68421241537192
    Total Energy =                       -698.6842124153719169
                               Psi4 1.9 release
  Multiplicity = 1
  @DF-RHF Final Energy:  -599.01750836190990
    Total Energy =                       -599.0175083619099041
	 Singles Energy            =      -0.0000000000000000 [Eh]
	 Same-Spin Energy          =      -0.0274967022161385 [Eh]
	 Opposite-Spin Energy      =      -0.0639670738942383 [Eh]
	 Correlation Energy        =      -0.0914637761103768 [Eh]
	 Total Energy              =    -599.1089721380202491 [Eh]
	 SCS Total Energy          =    -599.1034344179884101 [Eh]
                               Psi4 1.9 release
    Molecular point group: c1

    Geometry (in Bohr), charge = 1, multiplicity = 1:

       Center              X                  Y                   Z               Mass
    ------------   -----------------  -----------------  -----------------  -----------------
         F            0.000000000000     0.000000000000     0.000000000000    18.998403162730
         K            0.000000000000     4.110494473573     0.000000000000    38.963706486400
         K            6.165741710360     0.000000000000     0.000000000000    38.963706486400

  Charge       = 1
  Multiplicity = 1
  Basis Set: AUG-CC-PVTZ
    Blend: AUG-CC-PVTZ
  Basis Set: (AUG-CC-PVTZ AUX)
    Blend: AUG-CC-PVTZ-JKFIT + DEF2-UNIVERSAL-JKFIT

    Orbital Energies [Eh]
    ---------------------

    Doubly Occupied:

       1A   -133.722394     2A   -133.625899     3A    -26.219064
       4A    -14.677982     5A    -14.583537     6A    -11.708102
       7A    -11.708052     8A    -11.707919     9A    -11.613450
      10A    -11.613366    11A    -11.613099    12A     -1.933602
      13A     -1.847936    14A     -1.481862    15A     -1.142353
      16A     -1.141058    17A     -1.137466    18A     -1.060088
      19A     -1.057991    20A     -1.049024    21A     -0.581517
      22A     -0.578796    23A     -0.578067

  @DF-RHF Final Energy: -1297.72812223790743

   => Energetics <=

    Nuclear Repulsion Energy =            118.0507050811018814
    One-Electron Energy =               -2018.7924094680433882
    Two-Electron Energy =                 603.0135821490341641
    Total Energy =                      -1297.7281222379074279
 Dipole X            :       -111.3046146          117.1490925            5.8444779
 Dipole Y            :        -74.5832411           78.0993950            3.5161539
 Dipole Z            :         -0.0000000            0.0000000           -0.0000000
 Magnitude           :                                                    6.8206495
  Basis Set: (AUG-CC-PVTZ AUX)
    Blend: AUG-CC-PVTZ-RI + DEF2-QZVPP-RI
	 Reference Energy          =   -1297.7281222379074279 [Eh]
	 Singles Energy            =      -0.0000000000000000 [Eh]
	 Same-Spin Energy          =      -0.1399921043655291 [Eh]
	 Opposite-Spin Energy      =      -0.3600891139719302 [Eh]
	 Correlation Energy        =      -0.5000812183374592 [Eh]
	 Total Energy              =   -1298.2282034562449553 [Eh]

	 ================> DF-SCS-MP2 Energies <==================
	-----------------------------------------------------------
	 SCS Same-Spin Scale       =       0.3333333333333333 [-]
	 SCS Opposite-Spin Scale   =       1.2000000000000000 [-]
	 SCS Same-Spin Energy      =      -0.0466640347885097 [Eh]
	 SCS Opposite-Spin Energy  =      -0.4321069367663162 [Eh]
	 SCS Correlation Energy    =      -0.4787709715548258 [Eh]
	 SCS Total Energy          =   -1298.2068932094623506 [Eh]
	-----------------------------------------------------------

*** Psi4 exiting successfully. Buy a developer a beer!
