                               Psi4 1.9 release

  ==> Input File <==

--------------------------------------------------------------------------
MEMORY 60 GB

molecule dimer {
1 1
Gh(F)      0.000000     0.000000     0.000000
K          0.000000     2.175180     0.000000
Gh(K)      3.262770     0.000000     0.000000

units ang
no_reorient
no_com
symmetry c1
}

set {
basis        aug-cc-pVTZ
scf_type     df
}

energy("mp2")
--------------------------------------------------------------------------

    Molecular point group: c1

    Geometry (in Angstrom), charge = 1, multiplicity = 1:

       Center              X                  Y                   Z               Mass
    ------------   -----------------  -----------------  -----------------  -----------------
      Gh(F)           0.000000000000     0.000000000000     0.000000000000    18.998403162730
         K            0.000000000000     2.175180000000     0.000000000000    38.963706486400
      Gh(K)           3.262770000000     0.000000000000     0.000000000000    38.963706486400

  Charge       = 1
  Multiplicity = 1
  Basis Set: AUG-CC-PVTZ
    Blend: AUG-CC-PVTZ
  Basis Set: (AUG-CC-PVTZ AUX)
    Blend: AUG-CC-PVTZ-JKFIT + DEF2-UNIVERSAL-JKFIT

    Orbital Energies [Eh]
    ---------------------

    Doubly Occupied:

       1A   -133.753474     2A    -14.708980     3A    -11.739049
       4A    -11.739044     5A    -11.739041     6A     -1.964250
       7A     -1.170907     8A     -1.170868     9A     -1.170841

  @DF-RHF Final Energy:  -599.01750959110666

   => Energetics <=

    Nuclear Repulsion Energy =              0.0000000000000000
    One-Electron Energy =                -819.7221117134375845
    Two-Electron Energy =                 220.7046021223309822
    Total Energy =                       -599.0175095911065455
 Dipole X            :          0.0001508            0.0000000            0.0001508
 Dipole Y            :        -73.9893112           78.0993950            4.1100838
 Dipole Z            :         -0.0000000            0.0000000           -0.0000000
 Magnitude           :                                                    4.1100838
  Basis Set: (AUG-CC-PVTZ AUX)
    Blend: AUG-CC-PVTZ-RI + DEF2-QZVPP-RI
	 Reference Energy          =    -599.0175095911066592 [Eh]
	 Singles Energy            =      -0.0000000000000000 [Eh]
	 Same-Spin Energy          =      -0.0294104718005915 [Eh]
	 Opposite-Spin Energy      =      -0.0697027599232879 [Eh]
	 Correlation Energy        =      -0.0991132317238795 [Eh]
	 Total Energy              =    -599.1166228228305499 [Eh]

	 ================> DF-SCS-MP2 Energies <==================
	-----------------------------------------------------------
	 SCS Same-Spin Scale       =       0.3333333333333333 [-]
	 SCS Opposite-Spin Scale   =       1.2000000000000000 [-]
	 SCS Same-Spin Energy      =      -0.0098034906001972 [Eh]
	 SCS Opposite-Spin Energy  =      -0.0836433119079455 [Eh]
	 SCS Correlation Energy    =      -0.0934468025081427 [Eh]
	 SCS Total Energy          =    -599.1109563936148561 [Eh]
	-----------------------------------------------------------

*** Psi4 exiting successfully. Buy a developer a beer!
