                               Psi4 1.9 release

  ==> Input File <==

--------------------------------------------------------------------------
MEMORY 60 GB

molecule dimer {
1 1
Gh(F)      0.000000     0.000000     0.000000
K          0.000000     2.175180     0.000000
Gh(K)      3.045252     0.000000     0.000000

units ang
no_reorient
no_com
symmetry c1
}

set {
basis        aug-cc-pVTZ
scf_type     df
}

energy("mp2")
--------------------------------------------------------------------------

    Molecular point group: c1

    Geometry (in Angstrom), charge = 1, multiplicity = 1:

       Center              X                  Y                   Z               Mass
    ------------   -----------------  -----------------  -----------------  -----------------
      Gh(F)           0.000000000000     0.000000000000     0.000000000000    18.998403162730
         K            0.000000000000     2.175180000000     0.000000000000    38.963706486400
      Gh(K)           3.045252000000     0.000000000000     0.000000000000    38.963706486400

  Charge       = 1
  Multiplicity = 1
  Basis Set: AUG-CC-PVTZ
    Blend: AUG-CC-PVTZ
  Basis Set: (AUG-CC-PVTZ AUX)
    Blend: AUG-CC-PVTZ-JKFIT + DEF2-UNIVERSAL-JKFIT

    Orbital Energies [Eh]
    ---------------------

    Doubly Occupied:

       1A   -133.753449     2A    -14.708961     3A    -11.739030
       4A    -11.739025     5A    -11.739022     6A     -1.964241
       7A     -1.170902     8A     -1.170861     9A     -1.170835

  @DF-RHF Final Energy:  -599.01750975319158

   => Energetics <=

    Nuclear Repulsion Energy =              0.0000000000000000
    One-Electron Energy =                -819.7223718687500877
    Two-Electron Energy =                 220.7048621155585124
    Total Energy =                       -599.0175097531915753
 Dipole X            :          0.0001295            0.0000000            0.0001295
 Dipole Y            :        -73.9892964           78.0993950            4.1100986
 Dipole Z            :         -0.0000000            0.0000000           -0.0000000
 Magnitude           :                                                    4.1100986
  Basis Set: (AUG-CC-PVTZ AUX)
    Blend: AUG-CC-PVTZ-RI + DEF2-QZVPP-RI
	 Reference Energy          =    -599.0175097531915753 [Eh]
	 Singles Energy            =      -0.0000000000000000 [Eh]
	 Same-Spin Energy          =      -0.0295307661449873 [Eh]
	 Opposite-Spin Energy      =      -0.0700475013199728 [Eh]
	 Correlation Energy        =      -0.0995782674649601 [Eh]
	 Total Energy              =    -599.1170880206565243 [Eh]

	 ================> DF-SCS-MP2 Energies <==================
	-----------------------------------------------------------
	 SCS Same-Spin Scale       =       0.3333333333333333 [-]
	 SCS Opposite-Spin Scale   =       1.2000000000000000 [-]
	 SCS Same-Spin Energy      =      -0.0098435887149958 [Eh]
	 SCS Opposite-Spin Energy  =      -0.0840570015839674 [Eh]
	 SCS Correlation Energy    =      -0.0939005902989631 [Eh]
	 SCS Total Energy          =    -599.1114103434905473 [Eh]
	-----------------------------------------------------------

*** Psi4 exiting successfully. Buy a developer a beer!
