                               Psi4 1.9 release

  ==> Input File <==

--------------------------------------------------------------------------
MEMORY 60 GB

molecule dimer {
-1 1
F      0.000000     0.000000     0.000000
--
1 1
K      0.000000     2.175180     0.000000
--
1 1
K      3.045252     0.000000     0.000000

units ang
no_reorient
no_com
symmetry c1
}

set {
basis        aug-cc-pVTZ
scf_type     df
}

energy("mp2", bsse_type="cp")
--------------------------------------------------------------------------

                               Psi4 1.9 release
    Molecular point group: c1
  Charge       = -1
  Multiplicity = 1
  Basis Set: AUG-CC-PVTZ
    Blend: AUG-CC-PVTZ
  Basis Set: (AUG-CC-PVTZ AUX)
    Blend: AUG-CC-PVTZ-JKFIT + DEF2-UNIVERSAL-JKFIT
  @DF-RHF Final Energy:   -99.45085090728571
    Total Energy =                        -99.4508509072857123
 Dipole X            :          0.0000177            0.0000000            0.0000177
 Dipole Y            :         -0.0004332            0.0000000           -0.0004332
 Dipole Z            :          0.0000000            0.0000000            0.0000000
 Magnitude           :                                                    0.0004335
  Basis Set: (AUG-CC-PVTZ AUX)
    Blend: AUG-CC-PVTZ-RI + DEF2-QZVPP-RI
	 Reference Energy          =     -99.4508509072857123 [Eh]
	 Singles Energy            =      -0.0000000000000000 [Eh]
	 Same-Spin Energy          =      -0.0816700175552175 [Eh]
	 Opposite-Spin Energy      =      -0.2269483740117607 [Eh]
	 Correlation Energy        =      -0.3086183915669782 [Eh]
	 Total Energy              =     -99.7594692988526930 [Eh]
	 SCS Total Energy          =     -99.7504122952849031 [Eh]
                               Psi4 1.9 release
    Molecular point group: c1
  Basis Set: AUG-CC-PVTZ
    Blend: AUG-CC-PVTZ
  Basis Set: (AUG-CC-PVTZ AUX)
    Blend: AUG-CC-PVTZ-JKFIT + DEF2-UNIVERSAL-JKFIT
  @DF-RHF Final Energy:  -599.01750975319203
    Total Energy =                       -599.0175097531920301
  Basis Set: (AUG-CC-PVTZ AUX)
                               Psi4 1.9 release
  @DF-RHF Final Energy: -1197.89563397063648
    Total Energy =                      -1197.8956339706364815
                               Psi4 1.9 release
  @DF-RHF Final Energy:  -698.64576035834523
    Total Energy =                       -698.6457603583452283
                               Psi4 1.9 release
  @DF-RHF Final Energy:  -698.68421836389030
    Total Energy =                       -698.6842183638902952
                               Psi4 1.9 release
  Multiplicity = 1
  @DF-RHF Final Energy:  -599.01750867502415
    Total Energy =                       -599.0175086750241462
	 Singles Energy            =      -0.0000000000000000 [Eh]
	 Same-Spin Energy          =      -0.0278288840662577 [Eh]
	 Opposite-Spin Energy      =      -0.0648864087938471 [Eh]
	 Correlation Energy        =      -0.0927152928601048 [Eh]
	 Total Energy              =    -599.1102239678842807 [Eh]
	 SCS Total Energy          =    -599.1046486602655250 [Eh]
                               Psi4 1.9 release
    Molecular point group: c1

    Geometry (in Bohr), charge = 1, multiplicity = 1:

       Center              X                  Y                   Z               Mass
    ------------   -----------------  -----------------  -----------------  -----------------
         F            0.000000000000     0.000000000000     0.000000000000    18.998403162730
         K            0.000000000000     4.110494473573     0.000000000000    38.963706486400
         K            5.754692263003     0.000000000000     0.000000000000    38.963706486400

  Charge       = 1
  Multiplicity = 1
  Basis Set: AUG-CC-PVTZ
    Blend: AUG-CC-PVTZ
  Basis Set: (AUG-CC-PVTZ AUX)
    Blend: AUG-CC-PVTZ-JKFIT + DEF2-UNIVERSAL-JKFIT

    Orbital Energies [Eh]
    ---------------------

    Doubly Occupied:

       1A   -133.716104     2A   -133.632456     3A    -26.229125
       4A    -14.671762     5A    -14.590125     6A    -11.701889
       7A    -11.701828     8A    -11.701663     9A    -11.620040
      10A    -11.619949    11A    -11.619689    12A     -1.927652
      13A     -1.854577    14A     -1.492569    15A     -1.136999
      16A     -1.135382    17A     -1.130941    18A     -1.066742
      19A     -1.064449    20A     -1.055821    21A     -0.591925
      22A     -0.590108    23A     -0.588484

  @DF-RHF Final Energy: -1297.73249624258892

   => Energetics <=

    Nuclear Repulsion Energy =            122.3623698581952794
    One-Electron Energy =               -2027.3091719303290574
    Two-Electron Energy =                 607.2143058295447418
    Total Energy =                      -1297.7324962425891499
 Dipole X            :       -103.9389262          109.3391530            5.4002268
 Dipole Y            :        -74.5780201           78.0993950            3.5213749
 Dipole Z            :         -0.0000000            0.0000000           -0.0000000
 Magnitude           :                                                    6.4469008
  Basis Set: (AUG-CC-PVTZ AUX)
    Blend: AUG-CC-PVTZ-RI + DEF2-QZVPP-RI
	 Reference Energy          =   -1297.7324962425889225 [Eh]
	 Singles Energy            =      -0.0000000000000000 [Eh]
	 Same-Spin Energy          =      -0.1405218787386145 [Eh]
	 Opposite-Spin Energy      =      -0.3613562453918511 [Eh]
	 Correlation Energy        =      -0.5018781241304656 [Eh]
	 Total Energy              =   -1298.2343743667192939 [Eh]

	 ================> DF-SCS-MP2 Energies <==================
	-----------------------------------------------------------
	 SCS Same-Spin Scale       =       0.3333333333333333 [-]
	 SCS Opposite-Spin Scale   =       1.2000000000000000 [-]
	 SCS Same-Spin Energy      =      -0.0468406262462048 [Eh]
	 SCS Opposite-Spin Energy  =      -0.4336274944702213 [Eh]
	 SCS Correlation Energy    =      -0.4804681207164261 [Eh]
	 SCS Total Energy          =   -1298.2129643633054457 [Eh]
	-----------------------------------------------------------

*** Psi4 exiting successfully. Buy a developer a beer!
