                               Psi4 1.9 release

  ==> Input File <==

--------------------------------------------------------------------------
MEMORY 60 GB

molecule dimer {
-1 1
F      0.000000     0.000000     0.000000
--
1 1
K      0.000000     2.175180     0.000000
--
1 1
K      2.610216     0.000000     0.000000

units ang
no_reorient
no_com
symmetry c1
}

set {
basis        aug-cc-pVTZ
scf_type     df
}

energy("mp2", bsse_type="cp")
--------------------------------------------------------------------------

                               Psi4 1.9 release
    Molecular point group: c1
  Charge       = -1
  Multiplicity = 1
  Basis Set: AUG-CC-PVTZ
    Blend: AUG-CC-PVTZ
  Basis Set: (AUG-CC-PVTZ AUX)
    Blend: AUG-CC-PVTZ-JKFIT + DEF2-UNIVERSAL-JKFIT
  @DF-RHF Final Energy:   -99.45085438420789
    Total Energy =                        -99.4508543842079007
 Dipole X            :         -0.0001108            0.0000000           -0.0001108
 Dipole Y            :         -0.0002314            0.0000000           -0.0002314
 Dipole Z            :          0.0000000            0.0000000            0.0000000
 Magnitude           :                                                    0.0002566
  Basis Set: (AUG-CC-PVTZ AUX)
    Blend: AUG-CC-PVTZ-RI + DEF2-QZVPP-RI
	 Reference Energy          =     -99.4508543842078865 [Eh]
	 Singles Energy            =      -0.0000000000000000 [Eh]
	 Same-Spin Energy          =      -0.0816781298941435 [Eh]
	 Opposite-Spin Energy      =      -0.2270043945530702 [Eh]
	 Correlation Energy        =      -0.3086825244472137 [Eh]
	 Total Energy              =     -99.7595369086550932 [Eh]
	 SCS Total Energy          =     -99.7504857009696195 [Eh]
                               Psi4 1.9 release
    Molecular point group: c1
  Basis Set: AUG-CC-PVTZ
    Blend: AUG-CC-PVTZ
  Basis Set: (AUG-CC-PVTZ AUX)
    Blend: AUG-CC-PVTZ-JKFIT + DEF2-UNIVERSAL-JKFIT
  @DF-RHF Final Energy:  -599.01750995062048
    Total Energy =                       -599.0175099506204788
  Basis Set: (AUG-CC-PVTZ AUX)
                               Psi4 1.9 release
  @DF-RHF Final Energy: -1197.88205420230929
    Total Energy =                      -1197.8820542023092912
                               Psi4 1.9 release
  @DF-RHF Final Energy:  -698.67037897065438
    Total Energy =                       -698.6703789706543830
                               Psi4 1.9 release
  @DF-RHF Final Energy:  -698.68425356905038
    Total Energy =                       -698.6842535690502700
                               Psi4 1.9 release
  Multiplicity = 1
  @DF-RHF Final Energy:  -599.01750940031025
    Total Energy =                       -599.0175094003102458
	 Singles Energy            =      -0.0000000000000000 [Eh]
	 Same-Spin Energy          =      -0.0288491535217382 [Eh]
	 Opposite-Spin Energy      =      -0.0680293974595344 [Eh]
	 Correlation Energy        =      -0.0968785509812726 [Eh]
	 Total Energy              =    -599.1143879512915191 [Eh]
	 SCS Total Energy          =    -599.1087610617689734 [Eh]
                               Psi4 1.9 release
    Molecular point group: c1

    Geometry (in Bohr), charge = 1, multiplicity = 1:

       Center              X                  Y                   Z               Mass
    ------------   -----------------  -----------------  -----------------  -----------------
         F            0.000000000000     0.000000000000     0.000000000000    18.998403162730
         K            0.000000000000     4.110494473573     0.000000000000    38.963706486400
         K            4.932593368288     0.000000000000     0.000000000000    38.963706486400

  Charge       = 1
  Multiplicity = 1
  Basis Set: AUG-CC-PVTZ
    Blend: AUG-CC-PVTZ
  Basis Set: (AUG-CC-PVTZ AUX)
    Blend: AUG-CC-PVTZ-JKFIT + DEF2-UNIVERSAL-JKFIT

    Orbital Energies [Eh]
    ---------------------

    Doubly Occupied:

       1A   -133.697903     2A   -133.647354     3A    -26.250796
       4A    -14.653941     5A    -14.605042     6A    -11.684066
       7A    -11.683972     8A    -11.683723     9A    -11.634978
      10A    -11.634861    11A    -11.634613    12A     -1.911418
      13A     -1.869516    14A     -1.518294    15A     -1.122903
      16A     -1.119889    17A     -1.113763    18A     -1.081107
      19A     -1.078932    20A     -1.071151    21A     -0.617734
      22A     -0.615120    23A     -0.612608

  @DF-RHF Final Energy: -1297.74106118706777

   => Energetics <=

    Nuclear Repulsion Energy =            132.4917407820856852
    One-Electron Energy =               -2047.3782329273285541
    Two-Electron Energy =                 617.1454309581750977
    Total Energy =                      -1297.7410611870677712
 Dipole X            :        -89.2205507           93.7192740            4.4987233
 Dipole Y            :        -74.5645428           78.0993950            3.5348522
 Dipole Z            :          0.0000000            0.0000000            0.0000000
 Magnitude           :                                                    5.7213365
  Basis Set: (AUG-CC-PVTZ AUX)
    Blend: AUG-CC-PVTZ-RI + DEF2-QZVPP-RI
	 Reference Energy          =   -1297.7410611870677712 [Eh]
	 Singles Energy            =      -0.0000000000000000 [Eh]
	 Same-Spin Energy          =      -0.1423340300144513 [Eh]
	 Opposite-Spin Energy      =      -0.3657759241365933 [Eh]
	 Correlation Energy        =      -0.5081099541510445 [Eh]
	 Total Energy              =   -1298.2491711412187669 [Eh]

	 ================> DF-SCS-MP2 Energies <==================
	-----------------------------------------------------------
	 SCS Same-Spin Scale       =       0.3333333333333333 [-]
	 SCS Opposite-Spin Scale   =       1.2000000000000000 [-]
	 SCS Same-Spin Energy      =      -0.0474446766714838 [Eh]
	 SCS Opposite-Spin Energy  =      -0.4389311089639120 [Eh]
	 SCS Correlation Energy    =      -0.4863757856353957 [Eh]
	 SCS Total Energy          =   -1298.2274369727031171 [Eh]
	-----------------------------------------------------------

*** Psi4 exiting successfully. Buy a developer a beer!
