                               Psi4 1.9 release

  ==> Input File <==

--------------------------------------------------------------------------
MEMORY 60 GB

molecule dimer {
0 1
F      0.000000     0.000000     0.000000
K      0.000000     2.175180     0.000000
--
1 1
K      3.045252     0.000000     0.000000

units ang
no_reorient
no_com
symmetry c1
}

set {
basis        aug-cc-pVTZ
scf_type     df
}

energy("mp2", bsse_type="cp")
--------------------------------------------------------------------------

                               Psi4 1.9 release
    Molecular point group: c1
  Charge       = 1
  Multiplicity = 1
  Basis Set: AUG-CC-PVTZ
    Blend: AUG-CC-PVTZ
  Basis Set: (AUG-CC-PVTZ AUX)
    Blend: AUG-CC-PVTZ-JKFIT + DEF2-UNIVERSAL-JKFIT
  @DF-RHF Final Energy:  -599.01750867502471
    Total Energy =                       -599.0175086750247146
 Dipole X            :       -103.5847496          109.3391530            5.7544034
 Dipole Y            :          0.0001012            0.0000000            0.0001012
 Dipole Z            :          0.0000000            0.0000000            0.0000000
 Magnitude           :                                                    5.7544034
  Basis Set: (AUG-CC-PVTZ AUX)
    Blend: AUG-CC-PVTZ-RI + DEF2-QZVPP-RI
	 Reference Energy          =    -599.0175086750247146 [Eh]
	 Singles Energy            =      -0.0000000000000000 [Eh]
	 Same-Spin Energy          =      -0.0278288840703552 [Eh]
	 Opposite-Spin Energy      =      -0.0648864088019878 [Eh]
	 Correlation Energy        =      -0.0927152928723430 [Eh]
	 Total Energy              =    -599.1102239678970136 [Eh]
	 SCS Total Energy          =    -599.1046486602772347 [Eh]
                               Psi4 1.9 release
    Molecular point group: c1
  Multiplicity = 1
  Basis Set: AUG-CC-PVTZ
    Blend: AUG-CC-PVTZ
  Basis Set: (AUG-CC-PVTZ AUX)
    Blend: AUG-CC-PVTZ-JKFIT + DEF2-UNIVERSAL-JKFIT
  @DF-RHF Final Energy:  -698.68421836389018
    Total Energy =                       -698.6842183638902952
  Basis Set: (AUG-CC-PVTZ AUX)
	 Singles Energy            =      -0.0000000000000000 [Eh]
	 Same-Spin Energy          =      -0.1121784496853978 [Eh]
	 Opposite-Spin Energy      =      -0.2958666376833262 [Eh]
	 Correlation Energy        =      -0.4080450873687240 [Eh]
	 Total Energy              =    -699.0922634512588729 [Eh]
	 SCS Total Energy          =    -699.0766511456719172 [Eh]
                               Psi4 1.9 release
    Molecular point group: c1

    Geometry (in Bohr), charge = 1, multiplicity = 1:

       Center              X                  Y                   Z               Mass
    ------------   -----------------  -----------------  -----------------  -----------------
         F            0.000000000000     0.000000000000     0.000000000000    18.998403162730
         K            0.000000000000     4.110494473573     0.000000000000    38.963706486400
         K            5.754692263003     0.000000000000     0.000000000000    38.963706486400

  Charge       = 1
  Multiplicity = 1
  Basis Set: AUG-CC-PVTZ
    Blend: AUG-CC-PVTZ
  Basis Set: (AUG-CC-PVTZ AUX)
    Blend: AUG-CC-PVTZ-JKFIT + DEF2-UNIVERSAL-JKFIT

    Orbital Energies [Eh]
    ---------------------

    Doubly Occupied:

       1A   -133.716104     2A   -133.632456     3A    -26.229125
       4A    -14.671762     5A    -14.590125     6A    -11.701889
       7A    -11.701828     8A    -11.701663     9A    -11.620040
      10A    -11.619949    11A    -11.619689    12A     -1.927652
      13A     -1.854577    14A     -1.492569    15A     -1.136999
      16A     -1.135382    17A     -1.130941    18A     -1.066742
      19A     -1.064449    20A     -1.055821    21A     -0.591925
      22A     -0.590108    23A     -0.588484

  @DF-RHF Final Energy: -1297.73249624259051

   => Energetics <=

    Nuclear Repulsion Energy =            122.3623698581952794
    One-Electron Energy =               -2027.3091719302321962
    Two-Electron Energy =                 607.2143058294464026
    Total Energy =                      -1297.7324962425905142
 Dipole X            :       -103.9389262          109.3391530            5.4002268
 Dipole Y            :        -74.5780201           78.0993950            3.5213749
 Dipole Z            :         -0.0000000            0.0000000           -0.0000000
 Magnitude           :                                                    6.4469008
  Basis Set: (AUG-CC-PVTZ AUX)
    Blend: AUG-CC-PVTZ-RI + DEF2-QZVPP-RI
	 Reference Energy          =   -1297.7324962425905142 [Eh]
	 Singles Energy            =      -0.0000000000000000 [Eh]
	 Same-Spin Energy          =      -0.1405218787385933 [Eh]
	 Opposite-Spin Energy      =      -0.3613562453918865 [Eh]
	 Correlation Energy        =      -0.5018781241304798 [Eh]
	 Total Energy              =   -1298.2343743667208855 [Eh]

	 ================> DF-SCS-MP2 Energies <==================
	-----------------------------------------------------------
	 SCS Same-Spin Scale       =       0.3333333333333333 [-]
	 SCS Opposite-Spin Scale   =       1.2000000000000000 [-]
	 SCS Same-Spin Energy      =      -0.0468406262461978 [Eh]
	 SCS Opposite-Spin Energy  =      -0.4336274944702638 [Eh]
	 SCS Correlation Energy    =      -0.4804681207164616 [Eh]
	 SCS Total Energy          =   -1298.2129643633070373 [Eh]
	-----------------------------------------------------------

*** Psi4 exiting successfully. Buy a developer a beer!
