                               Psi4 1.9 release

  ==> Input File <==

--------------------------------------------------------------------------
MEMORY 60 GB

molecule dimer {
-1 1
F      0.000000     0.000000     0.000000
--
1 1
K      0.000000     2.175180     0.000000
--
1 1
K      2.827734     0.000000     0.000000

units ang
no_reorient
no_com
symmetry c1
}

set {
basis        aug-cc-pVTZ
scf_type     df
}

energy("mp2", bsse_type="cp")
--------------------------------------------------------------------------

                               Psi4 1.9 release
    Molecular point group: c1
  Charge       = -1
  Multiplicity = 1
  Basis Set: AUG-CC-PVTZ
    Blend: AUG-CC-PVTZ
  Basis Set: (AUG-CC-PVTZ AUX)
    Blend: AUG-CC-PVTZ-JKFIT + DEF2-UNIVERSAL-JKFIT
  @DF-RHF Final Energy:   -99.45085269033171
    Total Energy =                        -99.4508526903317289
 Dipole X            :         -0.0000845            0.0000000           -0.0000845
 Dipole Y            :         -0.0003925            0.0000000           -0.0003925
 Dipole Z            :         -0.0000000            0.0000000           -0.0000000
 Magnitude           :                                                    0.0004015
  Basis Set: (AUG-CC-PVTZ AUX)
    Blend: AUG-CC-PVTZ-RI + DEF2-QZVPP-RI
	 Reference Energy          =     -99.4508526903317147 [Eh]
	 Singles Energy            =      -0.0000000000000000 [Eh]
	 Same-Spin Energy          =      -0.0816732456343463 [Eh]
	 Opposite-Spin Energy      =      -0.2269759197116136 [Eh]
	 Correlation Energy        =      -0.3086491653459599 [Eh]
	 Total Energy              =     -99.7595018556776694 [Eh]
	 SCS Total Energy          =     -99.7504482091971028 [Eh]
                               Psi4 1.9 release
    Molecular point group: c1
  Basis Set: AUG-CC-PVTZ
    Blend: AUG-CC-PVTZ
  Basis Set: (AUG-CC-PVTZ AUX)
    Blend: AUG-CC-PVTZ-JKFIT + DEF2-UNIVERSAL-JKFIT
  @DF-RHF Final Energy:  -599.01750985903288
    Total Energy =                       -599.0175098590328844
  Basis Set: (AUG-CC-PVTZ AUX)
                               Psi4 1.9 release
  @DF-RHF Final Energy: -1197.88907718290830
    Total Energy =                      -1197.8890771829082951
                               Psi4 1.9 release
  @DF-RHF Final Energy:  -698.65802256319114
    Total Energy =                       -698.6580225631911389
                               Psi4 1.9 release
  @DF-RHF Final Energy:  -698.68423267987305
    Total Energy =                       -698.6842326798730483
                               Psi4 1.9 release
  Multiplicity = 1
  @DF-RHF Final Energy:  -599.01750902546735
    Total Energy =                       -599.0175090254673478
	 Singles Energy            =      -0.0000000000000000 [Eh]
	 Same-Spin Energy          =      -0.0282998006133958 [Eh]
	 Opposite-Spin Energy      =      -0.0663361103524999 [Eh]
	 Correlation Energy        =      -0.0946359109658957 [Eh]
	 Total Energy              =    -599.1121449364331966 [Eh]
	 SCS Total Energy          =    -599.1065456247614520 [Eh]
                               Psi4 1.9 release
    Molecular point group: c1

    Geometry (in Bohr), charge = 1, multiplicity = 1:

       Center              X                  Y                   Z               Mass
    ------------   -----------------  -----------------  -----------------  -----------------
         F            0.000000000000     0.000000000000     0.000000000000    18.998403162730
         K            0.000000000000     4.110494473573     0.000000000000    38.963706486400
         K            5.343642815645     0.000000000000     0.000000000000    38.963706486400

  Charge       = 1
  Multiplicity = 1
  Basis Set: AUG-CC-PVTZ
    Blend: AUG-CC-PVTZ
  Basis Set: (AUG-CC-PVTZ AUX)
    Blend: AUG-CC-PVTZ-JKFIT + DEF2-UNIVERSAL-JKFIT

    Orbital Energies [Eh]
    ---------------------

    Doubly Occupied:

       1A   -133.708223     2A   -133.639579     3A    -26.239743
       4A    -14.663998     5A    -14.597262     6A    -11.694130
       7A    -11.694055     8A    -11.693850     9A    -11.627186
      10A    -11.627083    11A    -11.626831    12A     -1.920383
      13A     -1.861739    14A     -1.504559    15A     -1.130564
      16A     -1.128460    17A     -1.123095    18A     -1.073810
      19A     -1.071401    20A     -1.063169    21A     -0.603808
      22A     -0.602343    23A     -0.599915

  @DF-RHF Final Energy: -1297.73709822129877

   => Energetics <=

    Nuclear Repulsion Energy =            127.1487042654633797
    One-Electron Energy =               -2036.7812316254482994
    Two-Electron Energy =                 611.8954291386861541
    Total Energy =                      -1297.7370982212987656
 Dipole X            :        -96.5766777          101.5292135            4.9525358
 Dipole Y            :        -74.5718964           78.0993950            3.5274986
 Dipole Z            :         -0.0000000            0.0000000           -0.0000000
 Magnitude           :                                                    6.0803665
  Basis Set: (AUG-CC-PVTZ AUX)
    Blend: AUG-CC-PVTZ-RI + DEF2-QZVPP-RI
	 Reference Energy          =   -1297.7370982212987656 [Eh]
	 Singles Energy            =      -0.0000000000000000 [Eh]
	 Same-Spin Energy          =      -0.1413289827911337 [Eh]
	 Opposite-Spin Energy      =      -0.3634096813824358 [Eh]
	 Correlation Energy        =      -0.5047386641735695 [Eh]
	 Total Energy              =   -1298.2418368854723667 [Eh]

	 ================> DF-SCS-MP2 Energies <==================
	-----------------------------------------------------------
	 SCS Same-Spin Scale       =       0.3333333333333333 [-]
	 SCS Opposite-Spin Scale   =       1.2000000000000000 [-]
	 SCS Same-Spin Energy      =      -0.0471096609303779 [Eh]
	 SCS Opposite-Spin Energy  =      -0.4360916176589230 [Eh]
	 SCS Correlation Energy    =      -0.4832012785893008 [Eh]
	 SCS Total Energy          =   -1298.2202994998881422 [Eh]
	-----------------------------------------------------------

*** Psi4 exiting successfully. Buy a developer a beer!
