                               Psi4 1.9 release

  ==> Input File <==

--------------------------------------------------------------------------
MEMORY 60 GB

molecule dimer {
1 1
F          0.000000     0.000000     0.000000
K          0.000000     2.175180     0.000000
K          2.827734     0.000000     0.000000

units ang
no_reorient
no_com
symmetry c1
}

set {
basis        aug-cc-pVTZ
scf_type     df
}

energy("mp2")
--------------------------------------------------------------------------

    Molecular point group: c1

    Geometry (in Angstrom), charge = 1, multiplicity = 1:

       Center              X                  Y                   Z               Mass
    ------------   -----------------  -----------------  -----------------  -----------------
         F            0.000000000000     0.000000000000     0.000000000000    18.998403162730
         K            0.000000000000     2.175180000000     0.000000000000    38.963706486400
         K            2.827734000000     0.000000000000     0.000000000000    38.963706486400

  Charge       = 1
  Multiplicity = 1
  Basis Set: AUG-CC-PVTZ
    Blend: AUG-CC-PVTZ
  Basis Set: (AUG-CC-PVTZ AUX)
    Blend: AUG-CC-PVTZ-JKFIT + DEF2-UNIVERSAL-JKFIT

    Orbital Energies [Eh]
    ---------------------

    Doubly Occupied:

       1A   -133.708223     2A   -133.639579     3A    -26.239743
       4A    -14.663998     5A    -14.597262     6A    -11.694130
       7A    -11.694055     8A    -11.693850     9A    -11.627186
      10A    -11.627083    11A    -11.626831    12A     -1.920383
      13A     -1.861739    14A     -1.504559    15A     -1.130564
      16A     -1.128460    17A     -1.123095    18A     -1.073810
      19A     -1.071401    20A     -1.063169    21A     -0.603808
      22A     -0.602343    23A     -0.599915

  @DF-RHF Final Energy: -1297.73709822129945

   => Energetics <=

    Nuclear Repulsion Energy =            127.1487042654633797
    One-Electron Energy =               -2036.7812316253825884
    Two-Electron Energy =                 611.8954291386198747
    Total Energy =                      -1297.7370982212992203
 Dipole X            :        -96.5766777          101.5292135            4.9525358
 Dipole Y            :        -74.5718964           78.0993950            3.5274986
 Dipole Z            :          0.0000000            0.0000000            0.0000000
 Magnitude           :                                                    6.0803665
  Basis Set: (AUG-CC-PVTZ AUX)
    Blend: AUG-CC-PVTZ-RI + DEF2-QZVPP-RI
	 Reference Energy          =   -1297.7370982212994477 [Eh]
	 Singles Energy            =      -0.0000000000000000 [Eh]
	 Same-Spin Energy          =      -0.1413289827913828 [Eh]
	 Opposite-Spin Energy      =      -0.3634096813831762 [Eh]
	 Correlation Energy        =      -0.5047386641745589 [Eh]
	 Total Energy              =   -1298.2418368854739583 [Eh]

	 ================> DF-SCS-MP2 Energies <==================
	-----------------------------------------------------------
	 SCS Same-Spin Scale       =       0.3333333333333333 [-]
	 SCS Opposite-Spin Scale   =       1.2000000000000000 [-]
	 SCS Same-Spin Energy      =      -0.0471096609304609 [Eh]
	 SCS Opposite-Spin Energy  =      -0.4360916176598114 [Eh]
	 SCS Correlation Energy    =      -0.4832012785902723 [Eh]
	 SCS Total Energy          =   -1298.2202994998897339 [Eh]
	-----------------------------------------------------------

*** Psi4 exiting successfully. Buy a developer a beer!
