                               Psi4 1.9 release

  ==> Input File <==

--------------------------------------------------------------------------
MEMORY 60 GB

molecule dimer {
-1 1
F          0.000000     0.000000     0.000000
Gh(K)      0.000000     2.175180     0.000000
Gh(K)      3.262770     0.000000     0.000000

units ang
no_reorient
no_com
symmetry c1
}

set {
basis        aug-cc-pVTZ
scf_type     df
}

energy("mp2")
--------------------------------------------------------------------------

    Molecular point group: c1

    Geometry (in Angstrom), charge = -1, multiplicity = 1:

       Center              X                  Y                   Z               Mass
    ------------   -----------------  -----------------  -----------------  -----------------
         F            0.000000000000     0.000000000000     0.000000000000    18.998403162730
      Gh(K)           0.000000000000     2.175180000000     0.000000000000    38.963706486400
      Gh(K)           3.262770000000     0.000000000000     0.000000000000    38.963706486400

  Charge       = -1
  Multiplicity = 1
  Basis Set: AUG-CC-PVTZ
    Blend: AUG-CC-PVTZ
  Basis Set: (AUG-CC-PVTZ AUX)
    Blend: AUG-CC-PVTZ-JKFIT + DEF2-UNIVERSAL-JKFIT

    Orbital Energies [Eh]
    ---------------------

    Doubly Occupied:

       1A    -25.833897     2A     -1.076104     3A     -0.181055
       4A     -0.181021     5A     -0.181021

  @DF-RHF Final Energy:   -99.45084907342587

   => Energetics <=

    Nuclear Repulsion Energy =              0.0000000000000000
    One-Electron Energy =                -143.9955004190845216
    Two-Electron Energy =                  44.5446513456586501
    Total Energy =                        -99.4508490734258714
 Dipole X            :         -0.0000022            0.0000000           -0.0000022
 Dipole Y            :         -0.0003878            0.0000000           -0.0003878
 Dipole Z            :         -0.0000000            0.0000000           -0.0000000
 Magnitude           :                                                    0.0003878
  Basis Set: (AUG-CC-PVTZ AUX)
    Blend: AUG-CC-PVTZ-RI + DEF2-QZVPP-RI
	 Reference Energy          =     -99.4508490734258714 [Eh]
	 Singles Energy            =      -0.0000000000000000 [Eh]
	 Same-Spin Energy          =      -0.0816678220467215 [Eh]
	 Opposite-Spin Energy      =      -0.2269265546929755 [Eh]
	 Correlation Energy        =      -0.3085943767396970 [Eh]
	 Total Energy              =     -99.7594434501655627 [Eh]

	 ================> DF-SCS-MP2 Energies <==================
	-----------------------------------------------------------
	 SCS Same-Spin Scale       =       0.3333333333333333 [-]
	 SCS Opposite-Spin Scale   =       1.2000000000000000 [-]
	 SCS Same-Spin Energy      =      -0.0272226073489072 [Eh]
	 SCS Opposite-Spin Energy  =      -0.2723118656315706 [Eh]
	 SCS Correlation Energy    =      -0.2995344729804778 [Eh]
	 SCS Total Energy          =     -99.7503835464063542 [Eh]
	-----------------------------------------------------------

*** Psi4 exiting successfully. Buy a developer a beer!
