                               Psi4 1.9 release

  ==> Input File <==

--------------------------------------------------------------------------
MEMORY 60 GB

molecule dimer {
-1 1
F      0.000000     0.000000     0.000000
--
1 1
K      0.000000     2.175180     0.000000
--
1 1
K      4.350360     0.000000     0.000000

units ang
no_reorient
no_com
symmetry c1
}

set {
basis        aug-cc-pVTZ
scf_type     df
}

energy("mp2", bsse_type="cp")
--------------------------------------------------------------------------

                               Psi4 1.9 release
    Molecular point group: c1
  Charge       = -1
  Multiplicity = 1
  Basis Set: AUG-CC-PVTZ
    Blend: AUG-CC-PVTZ
  Basis Set: (AUG-CC-PVTZ AUX)
    Blend: AUG-CC-PVTZ-JKFIT + DEF2-UNIVERSAL-JKFIT
  @DF-RHF Final Energy:   -99.45084542242409
    Total Energy =                        -99.4508454224240950
 Dipole X            :          0.0002333            0.0000000            0.0002333
 Dipole Y            :         -0.0002856            0.0000000           -0.0002856
 Dipole Z            :          0.0000000            0.0000000            0.0000000
 Magnitude           :                                                    0.0003688
  Basis Set: (AUG-CC-PVTZ AUX)
    Blend: AUG-CC-PVTZ-RI + DEF2-QZVPP-RI
	 Reference Energy          =     -99.4508454224240950 [Eh]
	 Singles Energy            =      -0.0000000000000000 [Eh]
	 Same-Spin Energy          =      -0.0816567291273178 [Eh]
	 Opposite-Spin Energy      =      -0.2268494361412765 [Eh]
	 Correlation Energy        =      -0.3085061652685943 [Eh]
	 Total Energy              =     -99.7593515876926915 [Eh]
	 SCS Total Energy          =     -99.7502836555027272 [Eh]
                               Psi4 1.9 release
    Molecular point group: c1
  Basis Set: AUG-CC-PVTZ
    Blend: AUG-CC-PVTZ
  Basis Set: (AUG-CC-PVTZ AUX)
    Blend: AUG-CC-PVTZ-JKFIT + DEF2-UNIVERSAL-JKFIT
  @DF-RHF Final Energy:  -599.01750869100374
    Total Energy =                       -599.0175086910037408
  Basis Set: (AUG-CC-PVTZ AUX)
                               Psi4 1.9 release
  @DF-RHF Final Energy: -1197.92693284984966
    Total Energy =                      -1197.9269328498496634
                               Psi4 1.9 release
  @DF-RHF Final Energy:  -698.59181968301039
    Total Energy =                       -698.5918196830103852
                               Psi4 1.9 release
  @DF-RHF Final Energy:  -698.68418123258925
    Total Energy =                       -698.6841812325892533
                               Psi4 1.9 release
  Multiplicity = 1
  @DF-RHF Final Energy:  -599.01750704551182
    Total Energy =                       -599.0175070455118203
	 Singles Energy            =      -0.0000000000000000 [Eh]
	 Same-Spin Energy          =      -0.0266388468244946 [Eh]
	 Opposite-Spin Energy      =      -0.0615765779768908 [Eh]
	 Correlation Energy        =      -0.0882154248013854 [Eh]
	 Total Energy              =    -599.1057224703132533 [Eh]
	 SCS Total Energy          =    -599.1002785546922951 [Eh]
                               Psi4 1.9 release
    Molecular point group: c1

    Geometry (in Bohr), charge = 1, multiplicity = 1:

       Center              X                  Y                   Z               Mass
    ------------   -----------------  -----------------  -----------------  -----------------
         F            0.000000000000     0.000000000000     0.000000000000    18.998403162730
         K            0.000000000000     4.110494473573     0.000000000000    38.963706486400
         K            8.220988947147     0.000000000000     0.000000000000    38.963706486400

  Charge       = 1
  Multiplicity = 1
  Basis Set: AUG-CC-PVTZ
    Blend: AUG-CC-PVTZ
  Basis Set: (AUG-CC-PVTZ AUX)
    Blend: AUG-CC-PVTZ-JKFIT + DEF2-UNIVERSAL-JKFIT

    Orbital Energies [Eh]
    ---------------------

    Doubly Occupied:

       1A   -133.740277     2A   -133.599024     3A    -26.179218
       4A    -14.695719     5A    -14.556607     6A    -11.725810
       7A    -11.725788     8A    -11.725744     9A    -11.586500
      10A    -11.586449    11A    -11.586171    12A     -1.950866
      13A     -1.820969    14A     -1.441937    15A     -1.158217
      16A     -1.157681    17A     -1.156445    18A     -1.032853
      19A     -1.031599    20A     -1.021591    21A     -0.542145
      22A     -0.538317    23A     -0.537963

  @DF-RHF Final Energy: -1297.71392002482298

   => Energetics <=

    Nuclear Repulsion Energy =            101.6773311976150751
    One-Electron Energy =               -1986.5867256392634772
    Two-Electron Energy =                 587.1954744168256184
    Total Energy =                      -1297.7139200248227553
 Dipole X            :       -148.1655773          156.1987900            8.0332127
 Dipole Y            :        -74.5976821           78.0993950            3.5017129
 Dipole Z            :         -0.0000000            0.0000000           -0.0000000
 Magnitude           :                                                    8.7632471
  Basis Set: (AUG-CC-PVTZ AUX)
    Blend: AUG-CC-PVTZ-RI + DEF2-QZVPP-RI
	 Reference Energy          =   -1297.7139200248229827 [Eh]
	 Singles Energy            =      -0.0000000000000000 [Eh]
	 Same-Spin Energy          =      -0.1382036938934709 [Eh]
	 Opposite-Spin Energy      =      -0.3556042571201911 [Eh]
	 Correlation Energy        =      -0.4938079510136620 [Eh]
	 Total Energy              =   -1298.2077279758366330 [Eh]

	 ================> DF-SCS-MP2 Energies <==================
	-----------------------------------------------------------
	 SCS Same-Spin Scale       =       0.3333333333333333 [-]
	 SCS Opposite-Spin Scale   =       1.2000000000000000 [-]
	 SCS Same-Spin Energy      =      -0.0460678979644903 [Eh]
	 SCS Opposite-Spin Energy  =      -0.4267251085442293 [Eh]
	 SCS Correlation Energy    =      -0.4727930065087196 [Eh]
	 SCS Total Energy          =   -1298.1867130313316920 [Eh]
	-----------------------------------------------------------

*** Psi4 exiting successfully. Buy a developer a beer!
