                               Psi4 1.9 release

  ==> Input File <==

--------------------------------------------------------------------------
MEMORY 60 GB

molecule dimer {
1 1
Gh(F)      0.000000     0.000000     0.000000
Gh(K)      0.000000     2.175180     0.000000
K          2.610216     0.000000     0.000000

units ang
no_reorient
no_com
symmetry c1
}

set {
basis        aug-cc-pVTZ
scf_type     df
}

energy("mp2")
--------------------------------------------------------------------------

    Molecular point group: c1

    Geometry (in Angstrom), charge = 1, multiplicity = 1:

       Center              X                  Y                   Z               Mass
    ------------   -----------------  -----------------  -----------------  -----------------
      Gh(F)           0.000000000000     0.000000000000     0.000000000000    18.998403162730
      Gh(K)           0.000000000000     2.175180000000     0.000000000000    38.963706486400
         K            2.610216000000     0.000000000000     0.000000000000    38.963706486400

  Charge       = 1
  Multiplicity = 1
  Basis Set: AUG-CC-PVTZ
    Blend: AUG-CC-PVTZ
  Basis Set: (AUG-CC-PVTZ AUX)
    Blend: AUG-CC-PVTZ-JKFIT + DEF2-UNIVERSAL-JKFIT

    Orbital Energies [Eh]
    ---------------------

    Doubly Occupied:

       1A   -133.753518     2A    -14.709017     3A    -11.739087
       4A    -11.739081     5A    -11.739080     6A     -1.964265
       7A     -1.170924     8A     -1.170874     9A     -1.170863

  @DF-RHF Final Energy:  -599.01750940031036

   => Energetics <=

    Nuclear Repulsion Energy =              0.0000000000000000
    One-Electron Energy =                -819.7216003556760597
    Two-Electron Energy =                 220.7040909553656434
    Total Energy =                       -599.0175094003104732
 Dipole X            :        -88.7869688           93.7192740            4.9323051
 Dipole Y            :          0.0001115            0.0000000            0.0001115
 Dipole Z            :          0.0000000            0.0000000            0.0000000
 Magnitude           :                                                    4.9323052
  Basis Set: (AUG-CC-PVTZ AUX)
    Blend: AUG-CC-PVTZ-RI + DEF2-QZVPP-RI
	 Reference Energy          =    -599.0175094003103595 [Eh]
	 Singles Energy            =      -0.0000000000000000 [Eh]
	 Same-Spin Energy          =      -0.0288491535213137 [Eh]
	 Opposite-Spin Energy      =      -0.0680293974590901 [Eh]
	 Correlation Energy        =      -0.0968785509804038 [Eh]
	 Total Energy              =    -599.1143879512907233 [Eh]

	 ================> DF-SCS-MP2 Energies <==================
	-----------------------------------------------------------
	 SCS Same-Spin Scale       =       0.3333333333333333 [-]
	 SCS Opposite-Spin Scale   =       1.2000000000000000 [-]
	 SCS Same-Spin Energy      =      -0.0096163845071046 [Eh]
	 SCS Opposite-Spin Energy  =      -0.0816352769509081 [Eh]
	 SCS Correlation Energy    =      -0.0912516614580127 [Eh]
	 SCS Total Energy          =    -599.1087610617684049 [Eh]
	-----------------------------------------------------------

*** Psi4 exiting successfully. Buy a developer a beer!
