                               Psi4 1.9 release

  ==> Input File <==

--------------------------------------------------------------------------
MEMORY 60 GB

molecule dimer {
1 1
Gh(F)      0.000000     0.000000     0.000000
Gh(K)      0.000000     2.175180     0.000000
K          2.392698     0.000000     0.000000

units ang
no_reorient
no_com
symmetry c1
}

set {
basis        aug-cc-pVTZ
scf_type     df
}

energy("mp2")
--------------------------------------------------------------------------

    Molecular point group: c1

    Geometry (in Angstrom), charge = 1, multiplicity = 1:

       Center              X                  Y                   Z               Mass
    ------------   -----------------  -----------------  -----------------  -----------------
      Gh(F)           0.000000000000     0.000000000000     0.000000000000    18.998403162730
      Gh(K)           0.000000000000     2.175180000000     0.000000000000    38.963706486400
         K            2.392698000000     0.000000000000     0.000000000000    38.963706486400

  Charge       = 1
  Multiplicity = 1
  Basis Set: AUG-CC-PVTZ
    Blend: AUG-CC-PVTZ
  Basis Set: (AUG-CC-PVTZ AUX)
    Blend: AUG-CC-PVTZ-JKFIT + DEF2-UNIVERSAL-JKFIT

    Orbital Energies [Eh]
    ---------------------

    Doubly Occupied:

       1A   -133.753455     2A    -14.708965     3A    -11.739036
       4A    -11.739030     5A    -11.739029     6A     -1.964242
       7A     -1.170910     8A     -1.170858     9A     -1.170842

  @DF-RHF Final Energy:  -599.01750975084906

   => Energetics <=

    Nuclear Repulsion Energy =              0.0000000000000000
    One-Electron Energy =                -819.7222881633160796
    Two-Electron Energy =                 220.7047784124670500
    Total Energy =                       -599.0175097508490580
 Dipole X            :        -81.3881416           85.9093345            4.5211929
 Dipole Y            :          0.0001455            0.0000000            0.0001455
 Dipole Z            :          0.0000000            0.0000000            0.0000000
 Magnitude           :                                                    4.5211929
  Basis Set: (AUG-CC-PVTZ AUX)
    Blend: AUG-CC-PVTZ-RI + DEF2-QZVPP-RI
	 Reference Energy          =    -599.0175097508490580 [Eh]
	 Singles Energy            =      -0.0000000000000000 [Eh]
	 Same-Spin Energy          =      -0.0295406863054283 [Eh]
	 Opposite-Spin Energy      =      -0.0700232611841093 [Eh]
	 Correlation Energy        =      -0.0995639474895376 [Eh]
	 Total Energy              =    -599.1170736983385723 [Eh]

	 ================> DF-SCS-MP2 Energies <==================
	-----------------------------------------------------------
	 SCS Same-Spin Scale       =       0.3333333333333333 [-]
	 SCS Opposite-Spin Scale   =       1.2000000000000000 [-]
	 SCS Same-Spin Energy      =      -0.0098468954351428 [Eh]
	 SCS Opposite-Spin Energy  =      -0.0840279134209311 [Eh]
	 SCS Correlation Energy    =      -0.0938748088560739 [Eh]
	 SCS Total Energy          =    -599.1113845597051295 [Eh]
	-----------------------------------------------------------

*** Psi4 exiting successfully. Buy a developer a beer!
