                               Psi4 1.9 release

  ==> Input File <==

--------------------------------------------------------------------------
MEMORY 60 GB

molecule dimer {
0 1
F      0.000000     0.000000     0.000000
K      0.000000     2.175180     0.000000
--
1 1
K      2.610216     0.000000     0.000000

units ang
no_reorient
no_com
symmetry c1
}

set {
basis        aug-cc-pVTZ
scf_type     df
}

energy("mp2", bsse_type="cp")
--------------------------------------------------------------------------

                               Psi4 1.9 release
    Molecular point group: c1
  Charge       = 1
  Multiplicity = 1
  Basis Set: AUG-CC-PVTZ
    Blend: AUG-CC-PVTZ
  Basis Set: (AUG-CC-PVTZ AUX)
    Blend: AUG-CC-PVTZ-JKFIT + DEF2-UNIVERSAL-JKFIT
  @DF-RHF Final Energy:  -599.01750940030956
    Total Energy =                       -599.0175094003095637
 Dipole X            :        -88.7869688           93.7192740            4.9323051
 Dipole Y            :          0.0001115            0.0000000            0.0001115
 Dipole Z            :          0.0000000            0.0000000            0.0000000
 Magnitude           :                                                    4.9323052
  Basis Set: (AUG-CC-PVTZ AUX)
    Blend: AUG-CC-PVTZ-RI + DEF2-QZVPP-RI
	 Reference Energy          =    -599.0175094003095637 [Eh]
	 Singles Energy            =      -0.0000000000000000 [Eh]
	 Same-Spin Energy          =      -0.0288491535212037 [Eh]
	 Opposite-Spin Energy      =      -0.0680293974588791 [Eh]
	 Correlation Energy        =      -0.0968785509800828 [Eh]
	 Total Energy              =    -599.1143879512897001 [Eh]
	 SCS Total Energy          =    -599.1087610617672681 [Eh]
                               Psi4 1.9 release
    Molecular point group: c1
  Multiplicity = 1
  Basis Set: AUG-CC-PVTZ
    Blend: AUG-CC-PVTZ
  Basis Set: (AUG-CC-PVTZ AUX)
    Blend: AUG-CC-PVTZ-JKFIT + DEF2-UNIVERSAL-JKFIT
  @DF-RHF Final Energy:  -698.68425356905016
    Total Energy =                       -698.6842535690500426
  Basis Set: (AUG-CC-PVTZ AUX)
	 Singles Energy            =      -0.0000000000000000 [Eh]
	 Same-Spin Energy          =      -0.1127184624980001 [Eh]
	 Opposite-Spin Energy      =      -0.2973889945699271 [Eh]
	 Correlation Energy        =      -0.4101074570679272 [Eh]
	 Total Energy              =    -699.0943610261181220 [Eh]
	 SCS Total Energy          =    -699.0786931833666813 [Eh]
                               Psi4 1.9 release
    Molecular point group: c1

    Geometry (in Bohr), charge = 1, multiplicity = 1:

       Center              X                  Y                   Z               Mass
    ------------   -----------------  -----------------  -----------------  -----------------
         F            0.000000000000     0.000000000000     0.000000000000    18.998403162730
         K            0.000000000000     4.110494473573     0.000000000000    38.963706486400
         K            4.932593368288     0.000000000000     0.000000000000    38.963706486400

  Charge       = 1
  Multiplicity = 1
  Basis Set: AUG-CC-PVTZ
    Blend: AUG-CC-PVTZ
  Basis Set: (AUG-CC-PVTZ AUX)
    Blend: AUG-CC-PVTZ-JKFIT + DEF2-UNIVERSAL-JKFIT

    Orbital Energies [Eh]
    ---------------------

    Doubly Occupied:

       1A   -133.697903     2A   -133.647354     3A    -26.250796
       4A    -14.653941     5A    -14.605042     6A    -11.684066
       7A    -11.683972     8A    -11.683723     9A    -11.634978
      10A    -11.634861    11A    -11.634613    12A     -1.911418
      13A     -1.869516    14A     -1.518294    15A     -1.122903
      16A     -1.119889    17A     -1.113763    18A     -1.081107
      19A     -1.078932    20A     -1.071151    21A     -0.617734
      22A     -0.615120    23A     -0.612608

  @DF-RHF Final Energy: -1297.74106118706823

   => Energetics <=

    Nuclear Repulsion Energy =            132.4917407820856852
    One-Electron Energy =               -2047.3782329271086837
    Two-Electron Energy =                 617.1454309579546589
    Total Energy =                      -1297.7410611870684534
 Dipole X            :        -89.2205507           93.7192740            4.4987233
 Dipole Y            :        -74.5645428           78.0993950            3.5348522
 Dipole Z            :          0.0000000            0.0000000            0.0000000
 Magnitude           :                                                    5.7213365
  Basis Set: (AUG-CC-PVTZ AUX)
    Blend: AUG-CC-PVTZ-RI + DEF2-QZVPP-RI
	 Reference Energy          =   -1297.7410611870682260 [Eh]
	 Singles Energy            =      -0.0000000000000000 [Eh]
	 Same-Spin Energy          =      -0.1423340300149046 [Eh]
	 Opposite-Spin Energy      =      -0.3657759241368444 [Eh]
	 Correlation Energy        =      -0.5081099541517491 [Eh]
	 Total Energy              =   -1298.2491711412199038 [Eh]

	 ================> DF-SCS-MP2 Energies <==================
	-----------------------------------------------------------
	 SCS Same-Spin Scale       =       0.3333333333333333 [-]
	 SCS Opposite-Spin Scale   =       1.2000000000000000 [-]
	 SCS Same-Spin Energy      =      -0.0474446766716349 [Eh]
	 SCS Opposite-Spin Energy  =      -0.4389311089642133 [Eh]
	 SCS Correlation Energy    =      -0.4863757856358482 [Eh]
	 SCS Total Energy          =   -1298.2274369727040266 [Eh]
	-----------------------------------------------------------

*** Psi4 exiting successfully. Buy a developer a beer!
