                               Psi4 1.9 release

  ==> Input File <==

--------------------------------------------------------------------------
MEMORY 60 GB

molecule dimer {
1 1
Gh(F)      0.000000     0.000000     0.000000
K          0.000000     2.175180     0.000000
Gh(K)      4.350360     0.000000     0.000000

units ang
no_reorient
no_com
symmetry c1
}

set {
basis        aug-cc-pVTZ
scf_type     df
}

energy("mp2")
--------------------------------------------------------------------------

    Molecular point group: c1

    Geometry (in Angstrom), charge = 1, multiplicity = 1:

       Center              X                  Y                   Z               Mass
    ------------   -----------------  -----------------  -----------------  -----------------
      Gh(F)           0.000000000000     0.000000000000     0.000000000000    18.998403162730
         K            0.000000000000     2.175180000000     0.000000000000    38.963706486400
      Gh(K)           4.350360000000     0.000000000000     0.000000000000    38.963706486400

  Charge       = 1
  Multiplicity = 1
  Basis Set: AUG-CC-PVTZ
    Blend: AUG-CC-PVTZ
  Basis Set: (AUG-CC-PVTZ AUX)
    Blend: AUG-CC-PVTZ-JKFIT + DEF2-UNIVERSAL-JKFIT

    Orbital Energies [Eh]
    ---------------------

    Doubly Occupied:

       1A   -133.753628     2A    -14.709101     3A    -11.739172
       4A    -11.739167     5A    -11.739164     6A     -1.964305
       7A     -1.170950     8A     -1.170908     9A     -1.170889

  @DF-RHF Final Energy:  -599.01750869100351

   => Energetics <=

    Nuclear Repulsion Energy =              0.0000000000000000
    One-Electron Energy =                -819.7204517484028656
    Two-Electron Energy =                 220.7029430573994375
    Total Energy =                       -599.0175086910033997
 Dipole X            :          0.0000400            0.0000000            0.0000400
 Dipole Y            :        -73.9893193           78.0993950            4.1100757
 Dipole Z            :         -0.0000000            0.0000000           -0.0000000
 Magnitude           :                                                    4.1100757
  Basis Set: (AUG-CC-PVTZ AUX)
    Blend: AUG-CC-PVTZ-RI + DEF2-QZVPP-RI
	 Reference Energy          =    -599.0175086910035134 [Eh]
	 Singles Energy            =      -0.0000000000000000 [Eh]
	 Same-Spin Energy          =      -0.0287996638375248 [Eh]
	 Opposite-Spin Energy      =      -0.0680487464753425 [Eh]
	 Correlation Energy        =      -0.0968484103128674 [Eh]
	 Total Energy              =    -599.1143571013163864 [Eh]

	 ================> DF-SCS-MP2 Energies <==================
	-----------------------------------------------------------
	 SCS Same-Spin Scale       =       0.3333333333333333 [-]
	 SCS Opposite-Spin Scale   =       1.2000000000000000 [-]
	 SCS Same-Spin Energy      =      -0.0095998879458416 [Eh]
	 SCS Opposite-Spin Energy  =      -0.0816584957704110 [Eh]
	 SCS Correlation Energy    =      -0.0912583837162526 [Eh]
	 SCS Total Energy          =    -599.1087670747198217 [Eh]
	-----------------------------------------------------------

*** Psi4 exiting successfully. Buy a developer a beer!
