                               Psi4 1.9 release

  ==> Input File <==

--------------------------------------------------------------------------
MEMORY 60 GB

molecule dimer {
-1 1
F          0.000000     0.000000     0.000000
Gh(K)      0.000000     2.175180     0.000000
Gh(K)      2.610216     0.000000     0.000000

units ang
no_reorient
no_com
symmetry c1
}

set {
basis        aug-cc-pVTZ
scf_type     df
}

energy("mp2")
--------------------------------------------------------------------------

    Molecular point group: c1

    Geometry (in Angstrom), charge = -1, multiplicity = 1:

       Center              X                  Y                   Z               Mass
    ------------   -----------------  -----------------  -----------------  -----------------
         F            0.000000000000     0.000000000000     0.000000000000    18.998403162730
      Gh(K)           0.000000000000     2.175180000000     0.000000000000    38.963706486400
      Gh(K)           2.610216000000     0.000000000000     0.000000000000    38.963706486400

  Charge       = -1
  Multiplicity = 1
  Basis Set: AUG-CC-PVTZ
    Blend: AUG-CC-PVTZ
  Basis Set: (AUG-CC-PVTZ AUX)
    Blend: AUG-CC-PVTZ-JKFIT + DEF2-UNIVERSAL-JKFIT

    Orbital Energies [Eh]
    ---------------------

    Doubly Occupied:

       1A    -25.833894     2A     -1.076099     3A     -0.181050
       4A     -0.181024     5A     -0.181016

  @DF-RHF Final Energy:   -99.45085438420776

   => Energetics <=

    Nuclear Repulsion Energy =              0.0000000000000000
    One-Electron Energy =                -143.9955412037898270
    Two-Electron Energy =                  44.5446868195820613
    Total Energy =                        -99.4508543842077586
 Dipole X            :         -0.0001108            0.0000000           -0.0001108
 Dipole Y            :         -0.0002314            0.0000000           -0.0002314
 Dipole Z            :          0.0000000            0.0000000            0.0000000
 Magnitude           :                                                    0.0002566
  Basis Set: (AUG-CC-PVTZ AUX)
    Blend: AUG-CC-PVTZ-RI + DEF2-QZVPP-RI
	 Reference Energy          =     -99.4508543842077586 [Eh]
	 Singles Energy            =      -0.0000000000000000 [Eh]
	 Same-Spin Energy          =      -0.0816781298941431 [Eh]
	 Opposite-Spin Energy      =      -0.2270043945530691 [Eh]
	 Correlation Energy        =      -0.3086825244472123 [Eh]
	 Total Energy              =     -99.7595369086549653 [Eh]

	 ================> DF-SCS-MP2 Energies <==================
	-----------------------------------------------------------
	 SCS Same-Spin Scale       =       0.3333333333333333 [-]
	 SCS Opposite-Spin Scale   =       1.2000000000000000 [-]
	 SCS Same-Spin Energy      =      -0.0272260432980477 [Eh]
	 SCS Opposite-Spin Energy  =      -0.2724052734636830 [Eh]
	 SCS Correlation Energy    =      -0.2996313167617307 [Eh]
	 SCS Total Energy          =     -99.7504857009694916 [Eh]
	-----------------------------------------------------------

*** Psi4 exiting successfully. Buy a developer a beer!
