                               Psi4 1.9 release

  ==> Input File <==

--------------------------------------------------------------------------
MEMORY 60 GB

molecule dimer {
-1 1
F      0.000000     0.000000     0.000000
--
1 1
K      0.000000     2.175180     0.000000
--
1 1
K      2.392698     0.000000     0.000000

units ang
no_reorient
no_com
symmetry c1
}

set {
basis        aug-cc-pVTZ
scf_type     df
}

energy("mp2", bsse_type="cp")
--------------------------------------------------------------------------

                               Psi4 1.9 release
    Molecular point group: c1
  Charge       = -1
  Multiplicity = 1
  Basis Set: AUG-CC-PVTZ
    Blend: AUG-CC-PVTZ
  Basis Set: (AUG-CC-PVTZ AUX)
    Blend: AUG-CC-PVTZ-JKFIT + DEF2-UNIVERSAL-JKFIT
  @DF-RHF Final Energy:   -99.45085924461904
    Total Energy =                        -99.4508592446190391
 Dipole X            :          0.0000190            0.0000000            0.0000190
 Dipole Y            :         -0.0000430            0.0000000           -0.0000430
 Dipole Z            :          0.0000000            0.0000000            0.0000000
 Magnitude           :                                                    0.0000471
  Basis Set: (AUG-CC-PVTZ AUX)
    Blend: AUG-CC-PVTZ-RI + DEF2-QZVPP-RI
	 Reference Energy          =     -99.4508592446190391 [Eh]
	 Singles Energy            =      -0.0000000000000000 [Eh]
	 Same-Spin Energy          =      -0.0816841775242770 [Eh]
	 Opposite-Spin Energy      =      -0.2270356535111427 [Eh]
	 Correlation Energy        =      -0.3087198310354197 [Eh]
	 Total Energy              =     -99.7595790756544574 [Eh]
	 SCS Total Energy          =     -99.7505300880071673 [Eh]
                               Psi4 1.9 release
    Molecular point group: c1
  Basis Set: AUG-CC-PVTZ
    Blend: AUG-CC-PVTZ
  Basis Set: (AUG-CC-PVTZ AUX)
    Blend: AUG-CC-PVTZ-JKFIT + DEF2-UNIVERSAL-JKFIT
  @DF-RHF Final Energy:  -599.01751003015852
    Total Energy =                       -599.0175100301585189
  Basis Set: (AUG-CC-PVTZ AUX)
                               Psi4 1.9 release
  @DF-RHF Final Energy: -1197.87447500808662
    Total Energy =                      -1197.8744750080863923
                               Psi4 1.9 release
  @DF-RHF Final Energy:  -698.68076859287544
    Total Energy =                       -698.6807685928754381
                               Psi4 1.9 release
  @DF-RHF Final Energy:  -698.68427483527034
    Total Energy =                       -698.6842748352703438
                               Psi4 1.9 release
  Multiplicity = 1
  @DF-RHF Final Energy:  -599.01750975084894
    Total Energy =                       -599.0175097508488307
	 Singles Energy            =      -0.0000000000000000 [Eh]
	 Same-Spin Energy          =      -0.0295406863054375 [Eh]
	 Opposite-Spin Energy      =      -0.0700232611841526 [Eh]
	 Correlation Energy        =      -0.0995639474895900 [Eh]
	 Total Energy              =    -599.1170736983385723 [Eh]
	 SCS Total Energy          =    -599.1113845597051295 [Eh]
                               Psi4 1.9 release
    Molecular point group: c1

    Geometry (in Bohr), charge = 1, multiplicity = 1:

       Center              X                  Y                   Z               Mass
    ------------   -----------------  -----------------  -----------------  -----------------
         F            0.000000000000     0.000000000000     0.000000000000    18.998403162730
         K            0.000000000000     4.110494473573     0.000000000000    38.963706486400
         K            4.521543920931     0.000000000000     0.000000000000    38.963706486400

  Charge       = 1
  Multiplicity = 1
  Basis Set: AUG-CC-PVTZ
    Blend: AUG-CC-PVTZ
  Basis Set: (AUG-CC-PVTZ AUX)
    Blend: AUG-CC-PVTZ-JKFIT + DEF2-UNIVERSAL-JKFIT

    Orbital Energies [Eh]
    ---------------------

    Doubly Occupied:

       1A   -133.684016     2A   -133.655730     3A    -26.262128
       4A    -14.640642     5A    -14.613456     6A    -11.670722
       7A    -11.670604     8A    -11.670327     9A    -11.643402
      10A    -11.643267    11A    -11.643027    12A     -1.900545
      13A     -1.877927    14A     -1.534637    15A     -1.114827
      16A     -1.109338    17A     -1.103217    18A     -1.087393
      19A     -1.087056    20A     -1.079711    21A     -0.632695
      22A     -0.629273    23A     -0.627025

  @DF-RHF Final Energy: -1297.74216770250132

   => Energetics <=

    Nuclear Repulsion Energy =            138.4965793646515522
    One-Electron Energy =               -2059.3155583443431169
    Two-Electron Energy =                 623.0768112771901315
    Total Energy =                      -1297.7421677025013196
 Dipole X            :        -81.8726578           85.9093345            4.0366767
 Dipole Y            :        -74.5548098           78.0993950            3.5445852
 Dipole Z            :          0.0000000            0.0000000            0.0000000
 Magnitude           :                                                    5.3720427
  Basis Set: (AUG-CC-PVTZ AUX)
    Blend: AUG-CC-PVTZ-RI + DEF2-QZVPP-RI
	 Reference Energy          =   -1297.7421677025013196 [Eh]
	 Singles Energy            =      -0.0000000000000000 [Eh]
	 Same-Spin Energy          =      -0.1435549992515913 [Eh]
	 Opposite-Spin Energy      =      -0.3682346734024262 [Eh]
	 Correlation Energy        =      -0.5117896726540175 [Eh]
	 Total Energy              =   -1298.2539573751553235 [Eh]

	 ================> DF-SCS-MP2 Energies <==================
	-----------------------------------------------------------
	 SCS Same-Spin Scale       =       0.3333333333333333 [-]
	 SCS Opposite-Spin Scale   =       1.2000000000000000 [-]
	 SCS Same-Spin Energy      =      -0.0478516664171971 [Eh]
	 SCS Opposite-Spin Energy  =      -0.4418816080829114 [Eh]
	 SCS Correlation Energy    =      -0.4897332745001085 [Eh]
	 SCS Total Energy          =   -1298.2319009770014873 [Eh]
	-----------------------------------------------------------

*** Psi4 exiting successfully. Buy a developer a beer!
