                               Psi4 1.9 release

  ==> Input File <==

--------------------------------------------------------------------------
MEMORY 60 GB

molecule dimer {
1 1
F          0.000000     0.000000     0.000000
K          0.000000     2.175180     0.000000
K          3.262770     0.000000     0.000000

units ang
no_reorient
no_com
symmetry c1
}

set {
basis        aug-cc-pVTZ
scf_type     df
}

energy("mp2")
--------------------------------------------------------------------------

    Molecular point group: c1

    Geometry (in Angstrom), charge = 1, multiplicity = 1:

       Center              X                  Y                   Z               Mass
    ------------   -----------------  -----------------  -----------------  -----------------
         F            0.000000000000     0.000000000000     0.000000000000    18.998403162730
         K            0.000000000000     2.175180000000     0.000000000000    38.963706486400
         K            3.262770000000     0.000000000000     0.000000000000    38.963706486400

  Charge       = 1
  Multiplicity = 1
  Basis Set: AUG-CC-PVTZ
    Blend: AUG-CC-PVTZ
  Basis Set: (AUG-CC-PVTZ AUX)
    Blend: AUG-CC-PVTZ-JKFIT + DEF2-UNIVERSAL-JKFIT

    Orbital Energies [Eh]
    ---------------------

    Doubly Occupied:

       1A   -133.722394     2A   -133.625899     3A    -26.219064
       4A    -14.677982     5A    -14.583537     6A    -11.708102
       7A    -11.708052     8A    -11.707919     9A    -11.613450
      10A    -11.613366    11A    -11.613099    12A     -1.933602
      13A     -1.847936    14A     -1.481862    15A     -1.142353
      16A     -1.141058    17A     -1.137466    18A     -1.060088
      19A     -1.057991    20A     -1.049024    21A     -0.581517
      22A     -0.578796    23A     -0.578067

  @DF-RHF Final Energy: -1297.72812223790720

   => Energetics <=

    Nuclear Repulsion Energy =            118.0507050811018814
    One-Electron Energy =               -2018.7924094680145117
    Two-Electron Energy =                 603.0135821490056287
    Total Energy =                      -1297.7281222379069732
 Dipole X            :       -111.3046146          117.1490925            5.8444779
 Dipole Y            :        -74.5832411           78.0993950            3.5161539
 Dipole Z            :         -0.0000000            0.0000000           -0.0000000
 Magnitude           :                                                    6.8206495
  Basis Set: (AUG-CC-PVTZ AUX)
    Blend: AUG-CC-PVTZ-RI + DEF2-QZVPP-RI
	 Reference Energy          =   -1297.7281222379072005 [Eh]
	 Singles Energy            =      -0.0000000000000000 [Eh]
	 Same-Spin Energy          =      -0.1399921043654272 [Eh]
	 Opposite-Spin Energy      =      -0.3600891139717632 [Eh]
	 Correlation Energy        =      -0.5000812183371904 [Eh]
	 Total Energy              =   -1298.2282034562445006 [Eh]

	 ================> DF-SCS-MP2 Energies <==================
	-----------------------------------------------------------
	 SCS Same-Spin Scale       =       0.3333333333333333 [-]
	 SCS Opposite-Spin Scale   =       1.2000000000000000 [-]
	 SCS Same-Spin Energy      =      -0.0466640347884757 [Eh]
	 SCS Opposite-Spin Energy  =      -0.4321069367661158 [Eh]
	 SCS Correlation Energy    =      -0.4787709715545916 [Eh]
	 SCS Total Energy          =   -1298.2068932094618958 [Eh]
	-----------------------------------------------------------

*** Psi4 exiting successfully. Buy a developer a beer!
