                               Psi4 1.9 release

  ==> Input File <==

--------------------------------------------------------------------------
MEMORY 60 GB

molecule dimer {
-1 1
Gh(K)      0.000000     0.000000     0.000000
Gh(F)      0.000000     2.175180     0.000000
F          2.610216     0.000000     0.000000

units ang
no_reorient
no_com
symmetry c1
}

set {
basis        aug-cc-pVTZ
scf_type     df
}

energy("mp2")
--------------------------------------------------------------------------

    Molecular point group: c1

    Geometry (in Angstrom), charge = -1, multiplicity = 1:

       Center              X                  Y                   Z               Mass
    ------------   -----------------  -----------------  -----------------  -----------------
      Gh(K)           0.000000000000     0.000000000000     0.000000000000    38.963706486400
      Gh(F)           0.000000000000     2.175180000000     0.000000000000    18.998403162730
         F            2.610216000000     0.000000000000     0.000000000000    18.998403162730

  Charge       = -1
  Multiplicity = 1
  Basis Set: AUG-CC-PVTZ
    Blend: AUG-CC-PVTZ
  Basis Set: (AUG-CC-PVTZ AUX)
    Blend: AUG-CC-PVTZ-JKFIT + DEF2-UNIVERSAL-JKFIT

    Orbital Energies [Eh]
    ---------------------

    Doubly Occupied:

       1A    -25.833898     2A     -1.076112     3A     -0.181048
       4A     -0.181035     5A     -0.181033

  @DF-RHF Final Energy:   -99.45083682319694

   => Energetics <=

    Nuclear Repulsion Energy =              0.0000000000000000
    One-Electron Energy =                -143.9954229461888531
    Two-Electron Energy =                  44.5445861229919160
    Total Energy =                        -99.4508368231969371
 Dipole X            :        -49.3256572           44.3933403           -4.9323169
 Dipole Y            :         -0.0000036            0.0000000           -0.0000036
 Dipole Z            :          0.0000000            0.0000000            0.0000000
 Magnitude           :                                                    4.9323169
  Basis Set: (AUG-CC-PVTZ AUX)
    Blend: AUG-CC-PVTZ-RI + DEF2-QZVPP-RI
	 Reference Energy          =     -99.4508368231969371 [Eh]
	 Singles Energy            =      -0.0000000000000000 [Eh]
	 Same-Spin Energy          =      -0.0816347703845483 [Eh]
	 Opposite-Spin Energy      =      -0.2267424376474526 [Eh]
	 Correlation Energy        =      -0.3083772080320009 [Eh]
	 Total Energy              =     -99.7592140312289359 [Eh]

	 ================> DF-SCS-MP2 Energies <==================
	-----------------------------------------------------------
	 SCS Same-Spin Scale       =       0.3333333333333333 [-]
	 SCS Opposite-Spin Scale   =       1.2000000000000000 [-]
	 SCS Same-Spin Energy      =      -0.0272115901281828 [Eh]
	 SCS Opposite-Spin Energy  =      -0.2720909251769431 [Eh]
	 SCS Correlation Energy    =      -0.2993025153051258 [Eh]
	 SCS Total Energy          =     -99.7501393385020663 [Eh]
	-----------------------------------------------------------

*** Psi4 exiting successfully. Buy a developer a beer!
