                               Psi4 1.9 release

  ==> Input File <==

--------------------------------------------------------------------------
MEMORY 60 GB

molecule dimer {
1 1
K      0.000000     0.000000     0.000000
--
-1 1
F      0.000000     2.175180     0.000000
--
-1 1
F      2.610216     0.000000     0.000000

units ang
no_reorient
no_com
symmetry c1
}

set {
basis        aug-cc-pVTZ
scf_type     df
}

energy("mp2", bsse_type="cp")
--------------------------------------------------------------------------

                               Psi4 1.9 release
    Molecular point group: c1
  Charge       = 1
  Multiplicity = 1
  Basis Set: AUG-CC-PVTZ
    Blend: AUG-CC-PVTZ
  Basis Set: (AUG-CC-PVTZ AUX)
    Blend: AUG-CC-PVTZ-JKFIT + DEF2-UNIVERSAL-JKFIT
  @DF-RHF Final Energy:  -599.01750913747708
    Total Energy =                       -599.0175091374770773
 Dipole X            :          0.0001897            0.0000000            0.0001897
 Dipole Y            :          0.0004158            0.0000000            0.0004158
 Dipole Z            :          0.0000000            0.0000000            0.0000000
 Magnitude           :                                                    0.0004571
  Basis Set: (AUG-CC-PVTZ AUX)
    Blend: AUG-CC-PVTZ-RI + DEF2-QZVPP-RI
	 Reference Energy          =    -599.0175091374770773 [Eh]
	 Singles Energy            =      -0.0000000000000000 [Eh]
	 Same-Spin Energy          =      -0.0290649995624133 [Eh]
	 Opposite-Spin Energy      =      -0.0687790340567670 [Eh]
	 Correlation Energy        =      -0.0978440336191804 [Eh]
	 Total Energy              =    -599.1153531710962170 [Eh]
	 SCS Total Energy          =    -599.1097323115326390 [Eh]
                               Psi4 1.9 release
    Molecular point group: c1
  Basis Set: AUG-CC-PVTZ
    Blend: AUG-CC-PVTZ
  Basis Set: (AUG-CC-PVTZ AUX)
    Blend: AUG-CC-PVTZ-JKFIT + DEF2-UNIVERSAL-JKFIT
  @DF-RHF Final Energy:   -99.45084847305863
    Total Energy =                        -99.4508484730586275
  Basis Set: (AUG-CC-PVTZ AUX)
                               Psi4 1.9 release
  @DF-RHF Final Energy:  -198.75136488505262
    Total Energy =                       -198.7513648850526238
                               Psi4 1.9 release
  @DF-RHF Final Energy:  -698.67032465167438
    Total Energy =                       -698.6703246516742638
                               Psi4 1.9 release
  @DF-RHF Final Energy:  -698.68419350298757
    Total Energy =                       -698.6841935029875685
                               Psi4 1.9 release
  Multiplicity = 1
  @DF-RHF Final Energy:   -99.45083682319681
    Total Energy =                        -99.4508368231968234
	 Singles Energy            =      -0.0000000000000000 [Eh]
	 Same-Spin Energy          =      -0.0816347703845486 [Eh]
	 Opposite-Spin Energy      =      -0.2267424376474525 [Eh]
	 Correlation Energy        =      -0.3083772080320011 [Eh]
	 Total Energy              =     -99.7592140312288080 [Eh]
	 SCS Total Energy          =     -99.7501393385019384 [Eh]
                               Psi4 1.9 release
    Molecular point group: c1

    Geometry (in Bohr), charge = -1, multiplicity = 1:

       Center              X                  Y                   Z               Mass
    ------------   -----------------  -----------------  -----------------  -----------------
         K            0.000000000000     0.000000000000     0.000000000000    38.963706486400
         F            0.000000000000     4.110494473573     0.000000000000    18.998403162730
         F            4.932593368288     0.000000000000     0.000000000000    18.998403162730

  Charge       = -1
  Multiplicity = 1
  Basis Set: AUG-CC-PVTZ
    Blend: AUG-CC-PVTZ
  Basis Set: (AUG-CC-PVTZ AUX)
    Blend: AUG-CC-PVTZ-JKFIT + DEF2-UNIVERSAL-JKFIT

    Orbital Energies [Eh]
    ---------------------

    Doubly Occupied:

       1A   -133.289549     2A    -25.901198     3A    -25.875681
       4A    -14.247118     5A    -11.277014     6A    -11.276767
       7A    -11.276682     8A     -1.512339     9A     -1.163674
      10A     -1.123693    11A     -0.726497    12A     -0.717809
      13A     -0.717186    14A     -0.263775    15A     -0.261062
      16A     -0.261021    17A     -0.231417    18A     -0.226556
      19A     -0.225661

  @DF-RHF Final Energy:  -798.17624535333982

   => Energetics <=

    Nuclear Repulsion Energy =             88.8834515462103099
    One-Electron Energy =               -1292.9699982268100484
    Two-Electron Energy =                 405.9103013272598446
    Total Energy =                       -798.1762453533398229
 Dipole X            :        -48.8753767           44.3933403           -4.4820364
 Dipole Y            :        -40.5018084           36.9944503           -3.5073582
 Dipole Z            :         -0.0000000            0.0000000           -0.0000000
 Magnitude           :                                                    5.6912399
  Basis Set: (AUG-CC-PVTZ AUX)
    Blend: AUG-CC-PVTZ-RI + DEF2-QZVPP-RI
	 Reference Energy          =    -798.1762453533398229 [Eh]
	 Singles Energy            =      -0.0000000000000000 [Eh]
	 Same-Spin Energy          =      -0.1938335770266715 [Eh]
	 Opposite-Spin Energy      =      -0.5210253597092882 [Eh]
	 Correlation Energy        =      -0.7148589367359597 [Eh]
	 Total Energy              =    -798.8911042900757593 [Eh]

	 ================> DF-SCS-MP2 Energies <==================
	-----------------------------------------------------------
	 SCS Same-Spin Scale       =       0.3333333333333333 [-]
	 SCS Opposite-Spin Scale   =       1.2000000000000000 [-]
	 SCS Same-Spin Energy      =      -0.0646111923422238 [Eh]
	 SCS Opposite-Spin Energy  =      -0.6252304316511458 [Eh]
	 SCS Correlation Energy    =      -0.6898416239933696 [Eh]
	 SCS Total Energy          =    -798.8660869773332251 [Eh]
	-----------------------------------------------------------

*** Psi4 exiting successfully. Buy a developer a beer!
