                               Psi4 1.9 release

  ==> Input File <==

--------------------------------------------------------------------------
MEMORY 60 GB

molecule dimer {
1 1
K      0.000000     0.000000     0.000000
--
-1 1
F      0.000000     2.175180     0.000000
--
-1 1
F      2.827734     0.000000     0.000000

units ang
no_reorient
no_com
symmetry c1
}

set {
basis        aug-cc-pVTZ
scf_type     df
}

energy("mp2", bsse_type="cp")
--------------------------------------------------------------------------

                               Psi4 1.9 release
    Molecular point group: c1
  Charge       = 1
  Multiplicity = 1
  Basis Set: AUG-CC-PVTZ
    Blend: AUG-CC-PVTZ
  Basis Set: (AUG-CC-PVTZ AUX)
    Blend: AUG-CC-PVTZ-JKFIT + DEF2-UNIVERSAL-JKFIT
  @DF-RHF Final Energy:  -599.01750891038614
    Total Energy =                       -599.0175089103861410
 Dipole X            :          0.0001347            0.0000000            0.0001347
 Dipole Y            :          0.0004159            0.0000000            0.0004159
 Dipole Z            :         -0.0000000            0.0000000           -0.0000000
 Magnitude           :                                                    0.0004372
  Basis Set: (AUG-CC-PVTZ AUX)
    Blend: AUG-CC-PVTZ-RI + DEF2-QZVPP-RI
	 Reference Energy          =    -599.0175089103861410 [Eh]
	 Singles Energy            =      -0.0000000000000000 [Eh]
	 Same-Spin Energy          =      -0.0285708736764318 [Eh]
	 Opposite-Spin Energy      =      -0.0674259752810943 [Eh]
	 Correlation Energy        =      -0.0959968489575261 [Eh]
	 Total Energy              =    -599.1135057593436386 [Eh]
	 SCS Total Energy          =    -599.1079437052823096 [Eh]
                               Psi4 1.9 release
    Molecular point group: c1
  Basis Set: AUG-CC-PVTZ
    Blend: AUG-CC-PVTZ
  Basis Set: (AUG-CC-PVTZ AUX)
    Blend: AUG-CC-PVTZ-JKFIT + DEF2-UNIVERSAL-JKFIT
  @DF-RHF Final Energy:   -99.45084531757607
    Total Energy =                        -99.4508453175760678
  Basis Set: (AUG-CC-PVTZ AUX)
                               Psi4 1.9 release
  @DF-RHF Final Energy:  -198.75791811375336
    Total Energy =                       -198.7579181137533908
                               Psi4 1.9 release
  @DF-RHF Final Energy:  -698.65797186382895
    Total Energy =                       -698.6579718638290615
                               Psi4 1.9 release
  @DF-RHF Final Energy:  -698.68416880820905
    Total Energy =                       -698.6841688082090513
                               Psi4 1.9 release
  Multiplicity = 1
  @DF-RHF Final Energy:   -99.45083190033392
    Total Energy =                        -99.4508319003339381
	 Singles Energy            =      -0.0000000000000000 [Eh]
	 Same-Spin Energy          =      -0.0816280982443168 [Eh]
	 Opposite-Spin Energy      =      -0.2266932373265584 [Eh]
	 Correlation Energy        =      -0.3083213355708752 [Eh]
	 Total Energy              =     -99.7591532359048045 [Eh]
	 SCS Total Energy          =     -99.7500731512072321 [Eh]
                               Psi4 1.9 release
    Molecular point group: c1

    Geometry (in Bohr), charge = -1, multiplicity = 1:

       Center              X                  Y                   Z               Mass
    ------------   -----------------  -----------------  -----------------  -----------------
         K            0.000000000000     0.000000000000     0.000000000000    38.963706486400
         F            0.000000000000     4.110494473573     0.000000000000    18.998403162730
         F            5.343642815645     0.000000000000     0.000000000000    18.998403162730

  Charge       = -1
  Multiplicity = 1
  Basis Set: AUG-CC-PVTZ
    Blend: AUG-CC-PVTZ
  Basis Set: (AUG-CC-PVTZ AUX)
    Blend: AUG-CC-PVTZ-JKFIT + DEF2-UNIVERSAL-JKFIT

    Orbital Energies [Eh]
    ---------------------

    Doubly Occupied:

       1A   -133.305378     2A    -25.908347     3A    -25.870902
       4A    -14.262790     5A    -11.292702     6A    -11.292468
       7A    -11.292401     8A     -1.527208     9A     -1.170970
      10A     -1.116145    11A     -0.740853    12A     -0.733159
      13A     -0.731326    14A     -0.271213    15A     -0.268141
      16A     -0.267817    17A     -0.223494    18A     -0.220004
      19A     -0.219563

  @DF-RHF Final Energy:  -798.17166976115709

   => Energetics <=

    Nuclear Repulsion Energy =             85.6162282737115987
    One-Electron Energy =               -1286.1460369562173582
    Two-Electron Energy =                 402.3581389213486545
    Total Energy =                       -798.1716697611570908
 Dipole X            :        -53.0329513           48.0927853           -4.9401660
 Dipole Y            :        -40.4953018           36.9944503           -3.5008515
 Dipole Z            :          0.0000000            0.0000000            0.0000000
 Magnitude           :                                                    6.0548494
  Basis Set: (AUG-CC-PVTZ AUX)
    Blend: AUG-CC-PVTZ-RI + DEF2-QZVPP-RI
	 Reference Energy          =    -798.1716697611570908 [Eh]
	 Singles Energy            =      -0.0000000000000000 [Eh]
	 Same-Spin Energy          =      -0.1931945110235154 [Eh]
	 Opposite-Spin Energy      =      -0.5198016004356358 [Eh]
	 Correlation Energy        =      -0.7129961114591512 [Eh]
	 Total Energy              =    -798.8846658726162104 [Eh]

	 ================> DF-SCS-MP2 Energies <==================
	-----------------------------------------------------------
	 SCS Same-Spin Scale       =       0.3333333333333333 [-]
	 SCS Opposite-Spin Scale   =       1.2000000000000000 [-]
	 SCS Same-Spin Energy      =      -0.0643981703411718 [Eh]
	 SCS Opposite-Spin Energy  =      -0.6237619205227630 [Eh]
	 SCS Correlation Energy    =      -0.6881600908639348 [Eh]
	 SCS Total Energy          =    -798.8598298520209937 [Eh]
	-----------------------------------------------------------

*** Psi4 exiting successfully. Buy a developer a beer!
