                               Psi4 1.9 release

  ==> Input File <==

--------------------------------------------------------------------------
MEMORY 60 GB

molecule dimer {
-1 1
Gh(K)      0.000000     0.000000     0.000000
F          0.000000     2.175180     0.000000
Gh(F)      2.392698     0.000000     0.000000

units ang
no_reorient
no_com
symmetry c1
}

set {
basis        aug-cc-pVTZ
scf_type     df
}

energy("mp2")
--------------------------------------------------------------------------

    Molecular point group: c1

    Geometry (in Angstrom), charge = -1, multiplicity = 1:

       Center              X                  Y                   Z               Mass
    ------------   -----------------  -----------------  -----------------  -----------------
      Gh(K)           0.000000000000     0.000000000000     0.000000000000    38.963706486400
         F            0.000000000000     2.175180000000     0.000000000000    18.998403162730
      Gh(F)           2.392698000000     0.000000000000     0.000000000000    18.998403162730

  Charge       = -1
  Multiplicity = 1
  Basis Set: AUG-CC-PVTZ
    Blend: AUG-CC-PVTZ
  Basis Set: (AUG-CC-PVTZ AUX)
    Blend: AUG-CC-PVTZ-JKFIT + DEF2-UNIVERSAL-JKFIT

    Orbital Energies [Eh]
    ---------------------

    Doubly Occupied:

       1A    -25.833885     2A     -1.076106     3A     -0.181057
       4A     -0.181025     5A     -0.181022

  @DF-RHF Final Energy:   -99.45085136553202

   => Energetics <=

    Nuclear Repulsion Energy =              0.0000000000000000
    One-Electron Energy =                -143.9955128205827748
    Two-Electron Energy =                  44.5446614550507576
    Total Energy =                        -99.4508513655320172
 Dipole X            :         -0.0000537            0.0000000           -0.0000537
 Dipole Y            :        -41.1046644           36.9944503           -4.1102141
 Dipole Z            :          0.0000000            0.0000000            0.0000000
 Magnitude           :                                                    4.1102141
  Basis Set: (AUG-CC-PVTZ AUX)
    Blend: AUG-CC-PVTZ-RI + DEF2-QZVPP-RI
	 Reference Energy          =     -99.4508513655320172 [Eh]
	 Singles Energy            =      -0.0000000000000000 [Eh]
	 Same-Spin Energy          =      -0.0816508776244948 [Eh]
	 Opposite-Spin Energy      =      -0.2268333468243736 [Eh]
	 Correlation Energy        =      -0.3084842244488684 [Eh]
	 Total Energy              =     -99.7593355899808927 [Eh]

	 ================> DF-SCS-MP2 Energies <==================
	-----------------------------------------------------------
	 SCS Same-Spin Scale       =       0.3333333333333333 [-]
	 SCS Opposite-Spin Scale   =       1.2000000000000000 [-]
	 SCS Same-Spin Energy      =      -0.0272169592081649 [Eh]
	 SCS Opposite-Spin Energy  =      -0.2722000161892483 [Eh]
	 SCS Correlation Energy    =      -0.2994169753974132 [Eh]
	 SCS Total Energy          =     -99.7502683409294235 [Eh]
	-----------------------------------------------------------

*** Psi4 exiting successfully. Buy a developer a beer!
