                               Psi4 1.9 release

  ==> Input File <==

--------------------------------------------------------------------------
MEMORY 60 GB

molecule dimer {
-1 1
K          0.000000     0.000000     0.000000
F          0.000000     2.175180     0.000000
F          2.827734     0.000000     0.000000

units ang
no_reorient
no_com
symmetry c1
}

set {
basis        aug-cc-pVTZ
scf_type     df
}

energy("mp2")
--------------------------------------------------------------------------

    Molecular point group: c1

    Geometry (in Angstrom), charge = -1, multiplicity = 1:

       Center              X                  Y                   Z               Mass
    ------------   -----------------  -----------------  -----------------  -----------------
         K            0.000000000000     0.000000000000     0.000000000000    38.963706486400
         F            0.000000000000     2.175180000000     0.000000000000    18.998403162730
         F            2.827734000000     0.000000000000     0.000000000000    18.998403162730

  Charge       = -1
  Multiplicity = 1
  Basis Set: AUG-CC-PVTZ
    Blend: AUG-CC-PVTZ
  Basis Set: (AUG-CC-PVTZ AUX)
    Blend: AUG-CC-PVTZ-JKFIT + DEF2-UNIVERSAL-JKFIT

    Orbital Energies [Eh]
    ---------------------

    Doubly Occupied:

       1A   -133.305378     2A    -25.908347     3A    -25.870902
       4A    -14.262790     5A    -11.292702     6A    -11.292468
       7A    -11.292401     8A     -1.527208     9A     -1.170970
      10A     -1.116145    11A     -0.740853    12A     -0.733159
      13A     -0.731326    14A     -0.271213    15A     -0.268141
      16A     -0.267817    17A     -0.223494    18A     -0.220004
      19A     -0.219563

  @DF-RHF Final Energy:  -798.17166976115698

   => Energetics <=

    Nuclear Repulsion Energy =             85.6162282737115987
    One-Electron Energy =               -1286.1460369564081248
    Two-Electron Energy =                 402.3581389215395347
    Total Energy =                       -798.1716697611569771
 Dipole X            :        -53.0329513           48.0927853           -4.9401660
 Dipole Y            :        -40.4953018           36.9944503           -3.5008515
 Dipole Z            :          0.0000000            0.0000000            0.0000000
 Magnitude           :                                                    6.0548494
  Basis Set: (AUG-CC-PVTZ AUX)
    Blend: AUG-CC-PVTZ-RI + DEF2-QZVPP-RI
	 Reference Energy          =    -798.1716697611569771 [Eh]
	 Singles Energy            =      -0.0000000000000000 [Eh]
	 Same-Spin Energy          =      -0.1931945110233651 [Eh]
	 Opposite-Spin Energy      =      -0.5198016004352258 [Eh]
	 Correlation Energy        =      -0.7129961114585910 [Eh]
	 Total Energy              =    -798.8846658726155283 [Eh]

	 ================> DF-SCS-MP2 Energies <==================
	-----------------------------------------------------------
	 SCS Same-Spin Scale       =       0.3333333333333333 [-]
	 SCS Opposite-Spin Scale   =       1.2000000000000000 [-]
	 SCS Same-Spin Energy      =      -0.0643981703411217 [Eh]
	 SCS Opposite-Spin Energy  =      -0.6237619205222710 [Eh]
	 SCS Correlation Energy    =      -0.6881600908633927 [Eh]
	 SCS Total Energy          =    -798.8598298520204253 [Eh]
	-----------------------------------------------------------

*** Psi4 exiting successfully. Buy a developer a beer!
