                               Psi4 1.9 release

  ==> Input File <==

--------------------------------------------------------------------------
MEMORY 60 GB

molecule dimer {
1 1
K          0.000000     0.000000     0.000000
Gh(F)      0.000000     2.175180     0.000000
Gh(F)      2.610216     0.000000     0.000000

units ang
no_reorient
no_com
symmetry c1
}

set {
basis        aug-cc-pVTZ
scf_type     df
}

energy("mp2")
--------------------------------------------------------------------------

    Molecular point group: c1

    Geometry (in Angstrom), charge = 1, multiplicity = 1:

       Center              X                  Y                   Z               Mass
    ------------   -----------------  -----------------  -----------------  -----------------
         K            0.000000000000     0.000000000000     0.000000000000    38.963706486400
      Gh(F)           0.000000000000     2.175180000000     0.000000000000    18.998403162730
      Gh(F)           2.610216000000     0.000000000000     0.000000000000    18.998403162730

  Charge       = 1
  Multiplicity = 1
  Basis Set: AUG-CC-PVTZ
    Blend: AUG-CC-PVTZ
  Basis Set: (AUG-CC-PVTZ AUX)
    Blend: AUG-CC-PVTZ-JKFIT + DEF2-UNIVERSAL-JKFIT

    Orbital Energies [Eh]
    ---------------------

    Doubly Occupied:

       1A   -133.753662     2A    -14.709121     3A    -11.739193
       4A    -11.739187     5A    -11.739184     6A     -1.964306
       7A     -1.170944     8A     -1.170919     9A     -1.170883

  @DF-RHF Final Energy:  -599.01750913747719

   => Energetics <=

    Nuclear Repulsion Energy =              0.0000000000000000
    One-Electron Energy =                -819.7202187505916982
    Two-Electron Energy =                 220.7027096131145072
    Total Energy =                       -599.0175091374771910
 Dipole X            :          0.0001897            0.0000000            0.0001897
 Dipole Y            :          0.0004158            0.0000000            0.0004158
 Dipole Z            :         -0.0000000            0.0000000           -0.0000000
 Magnitude           :                                                    0.0004571
  Basis Set: (AUG-CC-PVTZ AUX)
    Blend: AUG-CC-PVTZ-RI + DEF2-QZVPP-RI
	 Reference Energy          =    -599.0175091374771910 [Eh]
	 Singles Energy            =      -0.0000000000000000 [Eh]
	 Same-Spin Energy          =      -0.0290649995624272 [Eh]
	 Opposite-Spin Energy      =      -0.0687790340567896 [Eh]
	 Correlation Energy        =      -0.0978440336192168 [Eh]
	 Total Energy              =    -599.1153531710964444 [Eh]

	 ================> DF-SCS-MP2 Energies <==================
	-----------------------------------------------------------
	 SCS Same-Spin Scale       =       0.3333333333333333 [-]
	 SCS Opposite-Spin Scale   =       1.2000000000000000 [-]
	 SCS Same-Spin Energy      =      -0.0096883331874757 [Eh]
	 SCS Opposite-Spin Energy  =      -0.0825348408681475 [Eh]
	 SCS Correlation Energy    =      -0.0922231740556232 [Eh]
	 SCS Total Energy          =    -599.1097323115328663 [Eh]
	-----------------------------------------------------------

*** Psi4 exiting successfully. Buy a developer a beer!
