                               Psi4 1.9 release

  ==> Input File <==

--------------------------------------------------------------------------
MEMORY 60 GB

molecule dimer {
0 1
K      0.000000     0.000000     0.000000
F      0.000000     2.175180     0.000000
--
-1 1
F      2.392698     0.000000     0.000000

units ang
no_reorient
no_com
symmetry c1
}

set {
basis        aug-cc-pVTZ
scf_type     df
}

energy("mp2", bsse_type="cp")
--------------------------------------------------------------------------

                               Psi4 1.9 release
    Molecular point group: c1
  Charge       = -1
  Multiplicity = 1
  Basis Set: AUG-CC-PVTZ
    Blend: AUG-CC-PVTZ
  Basis Set: (AUG-CC-PVTZ AUX)
    Blend: AUG-CC-PVTZ-JKFIT + DEF2-UNIVERSAL-JKFIT
  @DF-RHF Final Energy:   -99.45084373647981
    Total Energy =                        -99.4508437364797970
 Dipole X            :        -45.2151489           40.6938953           -4.5212536
 Dipole Y            :         -0.0000084            0.0000000           -0.0000084
 Dipole Z            :         -0.0000000            0.0000000           -0.0000000
 Magnitude           :                                                    4.5212536
  Basis Set: (AUG-CC-PVTZ AUX)
    Blend: AUG-CC-PVTZ-RI + DEF2-QZVPP-RI
	 Reference Energy          =     -99.4508437364798112 [Eh]
	 Singles Energy            =      -0.0000000000000000 [Eh]
	 Same-Spin Energy          =      -0.0816425213305718 [Eh]
	 Opposite-Spin Energy      =      -0.2267914663085860 [Eh]
	 Correlation Energy        =      -0.3084339876391578 [Eh]
	 Total Energy              =     -99.7592777241189737 [Eh]
	 SCS Total Energy          =     -99.7502076698269775 [Eh]
                               Psi4 1.9 release
    Molecular point group: c1
  Multiplicity = 1
  Basis Set: AUG-CC-PVTZ
    Blend: AUG-CC-PVTZ
  Basis Set: (AUG-CC-PVTZ AUX)
    Blend: AUG-CC-PVTZ-JKFIT + DEF2-UNIVERSAL-JKFIT
  @DF-RHF Final Energy:  -698.68423056753159
    Total Energy =                       -698.6842305675315856
  Basis Set: (AUG-CC-PVTZ AUX)
	 Singles Energy            =      -0.0000000000000000 [Eh]
	 Same-Spin Energy          =      -0.1122135709499493 [Eh]
	 Opposite-Spin Energy      =      -0.2960293627938808 [Eh]
	 Correlation Energy        =      -0.4082429337438301 [Eh]
	 Total Energy              =    -699.0924735012754354 [Eh]
	 SCS Total Energy          =    -699.0768703265342765 [Eh]
                               Psi4 1.9 release
    Molecular point group: c1

    Geometry (in Bohr), charge = -1, multiplicity = 1:

       Center              X                  Y                   Z               Mass
    ------------   -----------------  -----------------  -----------------  -----------------
         K            0.000000000000     0.000000000000     0.000000000000    38.963706486400
         F            0.000000000000     4.110494473573     0.000000000000    18.998403162730
         F            4.521543920931     0.000000000000     0.000000000000    18.998403162730

  Charge       = -1
  Multiplicity = 1
  Basis Set: AUG-CC-PVTZ
    Blend: AUG-CC-PVTZ
  Basis Set: (AUG-CC-PVTZ AUX)
    Blend: AUG-CC-PVTZ-JKFIT + DEF2-UNIVERSAL-JKFIT

    Orbital Energies [Eh]
    ---------------------

    Doubly Occupied:

       1A   -133.269689     2A    -25.893699     3A    -25.880631
       4A    -14.227791     5A    -11.257624     6A    -11.257378
       7A    -11.257270     8A     -1.495138     9A     -1.155998
      10A     -1.133702    11A     -0.709795    12A     -0.700965
      13A     -0.700408    14A     -0.255890    15A     -0.254850
      16A     -0.253576    17A     -0.240012    18A     -0.234699
      19A     -0.232396

  @DF-RHF Final Energy:  -798.17840668702377

   => Energetics <=

    Nuclear Repulsion Energy =             92.6752351127928620
    One-Electron Energy =               -1300.8842615907276468
    Two-Electron Energy =                 410.0306197909109756
    Total Energy =                       -798.1784066870236529
 Dipole X            :        -44.7081604           40.6938953           -4.0142651
 Dipole Y            :        -40.5110654           36.9944503           -3.5166151
 Dipole Z            :          0.0000000            0.0000000            0.0000000
 Magnitude           :                                                    5.3367505
  Basis Set: (AUG-CC-PVTZ AUX)
    Blend: AUG-CC-PVTZ-RI + DEF2-QZVPP-RI
	 Reference Energy          =    -798.1784066870237666 [Eh]
	 Singles Energy            =      -0.0000000000000000 [Eh]
	 Same-Spin Energy          =      -0.1946910047863515 [Eh]
	 Opposite-Spin Energy      =      -0.5225098013629985 [Eh]
	 Correlation Energy        =      -0.7172008061493500 [Eh]
	 Total Energy              =    -798.8956074931730882 [Eh]

	 ================> DF-SCS-MP2 Energies <==================
	-----------------------------------------------------------
	 SCS Same-Spin Scale       =       0.3333333333333333 [-]
	 SCS Opposite-Spin Scale   =       1.2000000000000000 [-]
	 SCS Same-Spin Energy      =      -0.0648970015954505 [Eh]
	 SCS Opposite-Spin Energy  =      -0.6270117616355982 [Eh]
	 SCS Correlation Energy    =      -0.6919087632310488 [Eh]
	 SCS Total Energy          =    -798.8703154502547932 [Eh]
	-----------------------------------------------------------

*** Psi4 exiting successfully. Buy a developer a beer!
