                               Psi4 1.9 release

  ==> Input File <==

--------------------------------------------------------------------------
MEMORY 60 GB

molecule dimer {
0 1
K      0.000000     0.000000     0.000000
F      0.000000     2.175180     0.000000
--
-1 1
F      2.175180     0.000000     0.000000

units ang
no_reorient
no_com
symmetry c1
}

set {
basis        aug-cc-pVTZ
scf_type     df
}

energy("mp2", bsse_type="cp")
--------------------------------------------------------------------------

                               Psi4 1.9 release
    Molecular point group: c1
  Charge       = -1
  Multiplicity = 1
  Basis Set: AUG-CC-PVTZ
    Blend: AUG-CC-PVTZ
  Basis Set: (AUG-CC-PVTZ AUX)
    Blend: AUG-CC-PVTZ-JKFIT + DEF2-UNIVERSAL-JKFIT
  @DF-RHF Final Energy:   -99.45085219320215
    Total Energy =                        -99.4508521932021523
 Dipole X            :        -41.1048168           36.9944503           -4.1103666
 Dipole Y            :         -0.0000467            0.0000000           -0.0000467
 Dipole Z            :         -0.0000000            0.0000000           -0.0000000
 Magnitude           :                                                    4.1103666
  Basis Set: (AUG-CC-PVTZ AUX)
    Blend: AUG-CC-PVTZ-RI + DEF2-QZVPP-RI
	 Reference Energy          =     -99.4508521932021523 [Eh]
	 Singles Energy            =      -0.0000000000000000 [Eh]
	 Same-Spin Energy          =      -0.0816527582429607 [Eh]
	 Opposite-Spin Energy      =      -0.2268537895369974 [Eh]
	 Correlation Energy        =      -0.3085065477799581 [Eh]
	 Total Energy              =     -99.7593587409821083 [Eh]
	 SCS Total Energy          =     -99.7502943267275413 [Eh]
                               Psi4 1.9 release
    Molecular point group: c1
  Multiplicity = 1
  Basis Set: AUG-CC-PVTZ
    Blend: AUG-CC-PVTZ
  Basis Set: (AUG-CC-PVTZ AUX)
    Blend: AUG-CC-PVTZ-JKFIT + DEF2-UNIVERSAL-JKFIT
  @DF-RHF Final Energy:  -698.68427433277964
    Total Energy =                       -698.6842743327797507
  Basis Set: (AUG-CC-PVTZ AUX)
	 Singles Energy            =      -0.0000000000000000 [Eh]
	 Same-Spin Energy          =      -0.1128841026403900 [Eh]
	 Opposite-Spin Energy      =      -0.2980846064491402 [Eh]
	 Correlation Energy        =      -0.4109687090895302 [Eh]
	 Total Energy              =    -699.0952430418691392 [Eh]
	 SCS Total Energy          =    -699.0796038947320312 [Eh]
                               Psi4 1.9 release
    Molecular point group: c1

    Geometry (in Bohr), charge = -1, multiplicity = 1:

       Center              X                  Y                   Z               Mass
    ------------   -----------------  -----------------  -----------------  -----------------
         K            0.000000000000     0.000000000000     0.000000000000    38.963706486400
         F            0.000000000000     4.110494473573     0.000000000000    18.998403162730
         F            4.110494473573     0.000000000000     0.000000000000    18.998403162730

  Charge       = -1
  Multiplicity = 1
  Basis Set: AUG-CC-PVTZ
    Blend: AUG-CC-PVTZ
  Basis Set: (AUG-CC-PVTZ AUX)
    Blend: AUG-CC-PVTZ-JKFIT + DEF2-UNIVERSAL-JKFIT

    Orbital Energies [Eh]
    ---------------------

    Doubly Occupied:

       1A   -133.244391     2A    -25.885875     3A    -25.885873
       4A    -14.203636     5A    -11.233303     6A    -11.233090
       7A    -11.232991     8A     -1.475724     9A     -1.148572
      10A     -1.147358    11A     -0.690463    12A     -0.682188
      13A     -0.681593    14A     -0.253516    15A     -0.247457
      16A     -0.247293    17A     -0.246927    18A     -0.244467
      19A     -0.236805

  @DF-RHF Final Energy:  -798.17326420037284

   => Energetics <=

    Nuclear Repulsion Energy =             97.1356735407576792
    One-Electron Energy =               -1310.1748294304179581
    Two-Electron Energy =                 414.8658916892874799
    Total Energy =                       -798.1732642003728415
 Dipole X            :        -40.5243304           36.9944503           -3.5298802
 Dipole Y            :        -40.5243304           36.9944503           -3.5298802
 Dipole Z            :         -0.0000000            0.0000000           -0.0000000
 Magnitude           :                                                    4.9920044
  Basis Set: (AUG-CC-PVTZ AUX)
    Blend: AUG-CC-PVTZ-RI + DEF2-QZVPP-RI
	 Reference Energy          =    -798.1732642003728415 [Eh]
	 Singles Energy            =      -0.0000000000000000 [Eh]
	 Same-Spin Energy          =      -0.1959016192073327 [Eh]
	 Opposite-Spin Energy      =      -0.5243395193524549 [Eh]
	 Correlation Energy        =      -0.7202411385597876 [Eh]
	 Total Energy              =    -798.8935053389326413 [Eh]

	 ================> DF-SCS-MP2 Energies <==================
	-----------------------------------------------------------
	 SCS Same-Spin Scale       =       0.3333333333333333 [-]
	 SCS Opposite-Spin Scale   =       1.2000000000000000 [-]
	 SCS Same-Spin Energy      =      -0.0653005397357776 [Eh]
	 SCS Opposite-Spin Energy  =      -0.6292074232229459 [Eh]
	 SCS Correlation Energy    =      -0.6945079629587234 [Eh]
	 SCS Total Energy          =    -798.8677721633315514 [Eh]
	-----------------------------------------------------------

*** Psi4 exiting successfully. Buy a developer a beer!
