                               Psi4 1.9 release

  ==> Input File <==

--------------------------------------------------------------------------
MEMORY 60 GB

molecule dimer {
0 1
K      0.000000     0.000000     0.000000
F      0.000000     2.175180     0.000000
--
-1 1
F      2.610216     0.000000     0.000000

units ang
no_reorient
no_com
symmetry c1
}

set {
basis        aug-cc-pVTZ
scf_type     df
}

energy("mp2", bsse_type="cp")
--------------------------------------------------------------------------

                               Psi4 1.9 release
    Molecular point group: c1
  Charge       = -1
  Multiplicity = 1
  Basis Set: AUG-CC-PVTZ
    Blend: AUG-CC-PVTZ
  Basis Set: (AUG-CC-PVTZ AUX)
    Blend: AUG-CC-PVTZ-JKFIT + DEF2-UNIVERSAL-JKFIT
  @DF-RHF Final Energy:   -99.45083682319695
    Total Energy =                        -99.4508368231969513
 Dipole X            :        -49.3256572           44.3933403           -4.9323169
 Dipole Y            :         -0.0000036            0.0000000           -0.0000036
 Dipole Z            :          0.0000000            0.0000000            0.0000000
 Magnitude           :                                                    4.9323169
  Basis Set: (AUG-CC-PVTZ AUX)
    Blend: AUG-CC-PVTZ-RI + DEF2-QZVPP-RI
	 Reference Energy          =     -99.4508368231969513 [Eh]
	 Singles Energy            =      -0.0000000000000000 [Eh]
	 Same-Spin Energy          =      -0.0816347703845477 [Eh]
	 Opposite-Spin Energy      =      -0.2267424376474503 [Eh]
	 Correlation Energy        =      -0.3083772080319980 [Eh]
	 Total Energy              =     -99.7592140312289501 [Eh]
	 SCS Total Energy          =     -99.7501393385020805 [Eh]
                               Psi4 1.9 release
    Molecular point group: c1
  Multiplicity = 1
  Basis Set: AUG-CC-PVTZ
    Blend: AUG-CC-PVTZ
  Basis Set: (AUG-CC-PVTZ AUX)
    Blend: AUG-CC-PVTZ-JKFIT + DEF2-UNIVERSAL-JKFIT
  @DF-RHF Final Energy:  -698.68419350298723
    Total Energy =                       -698.6841935029872275
  Basis Set: (AUG-CC-PVTZ AUX)
	 Singles Energy            =      -0.0000000000000000 [Eh]
	 Same-Spin Energy          =      -0.1116315239136665 [Eh]
	 Opposite-Spin Energy      =      -0.2943396298391770 [Eh]
	 Correlation Energy        =      -0.4059711537528435 [Eh]
	 Total Energy              =    -699.0901646567400576 [Eh]
	 SCS Total Energy          =    -699.0746115667654976 [Eh]
                               Psi4 1.9 release
    Molecular point group: c1

    Geometry (in Bohr), charge = -1, multiplicity = 1:

       Center              X                  Y                   Z               Mass
    ------------   -----------------  -----------------  -----------------  -----------------
         K            0.000000000000     0.000000000000     0.000000000000    38.963706486400
         F            0.000000000000     4.110494473573     0.000000000000    18.998403162730
         F            4.932593368288     0.000000000000     0.000000000000    18.998403162730

  Charge       = -1
  Multiplicity = 1
  Basis Set: AUG-CC-PVTZ
    Blend: AUG-CC-PVTZ
  Basis Set: (AUG-CC-PVTZ AUX)
    Blend: AUG-CC-PVTZ-JKFIT + DEF2-UNIVERSAL-JKFIT

    Orbital Energies [Eh]
    ---------------------

    Doubly Occupied:

       1A   -133.289549     2A    -25.901198     3A    -25.875681
       4A    -14.247118     5A    -11.277014     6A    -11.276767
       7A    -11.276682     8A     -1.512339     9A     -1.163674
      10A     -1.123693    11A     -0.726497    12A     -0.717809
      13A     -0.717186    14A     -0.263775    15A     -0.261062
      16A     -0.261021    17A     -0.231417    18A     -0.226556
      19A     -0.225661

  @DF-RHF Final Energy:  -798.17624535333960

   => Energetics <=

    Nuclear Repulsion Energy =             88.8834515462103099
    One-Electron Energy =               -1292.9699982271288263
    Two-Electron Energy =                 405.9103013275788499
    Total Energy =                       -798.1762453533395956
 Dipole X            :        -48.8753767           44.3933403           -4.4820364
 Dipole Y            :        -40.5018084           36.9944503           -3.5073582
 Dipole Z            :         -0.0000000            0.0000000           -0.0000000
 Magnitude           :                                                    5.6912399
  Basis Set: (AUG-CC-PVTZ AUX)
    Blend: AUG-CC-PVTZ-RI + DEF2-QZVPP-RI
	 Reference Energy          =    -798.1762453533395956 [Eh]
	 Singles Energy            =      -0.0000000000000000 [Eh]
	 Same-Spin Energy          =      -0.1938335770265083 [Eh]
	 Opposite-Spin Energy      =      -0.5210253597089860 [Eh]
	 Correlation Energy        =      -0.7148589367354943 [Eh]
	 Total Energy              =    -798.8911042900750772 [Eh]

	 ================> DF-SCS-MP2 Energies <==================
	-----------------------------------------------------------
	 SCS Same-Spin Scale       =       0.3333333333333333 [-]
	 SCS Opposite-Spin Scale   =       1.2000000000000000 [-]
	 SCS Same-Spin Energy      =      -0.0646111923421694 [Eh]
	 SCS Opposite-Spin Energy  =      -0.6252304316507832 [Eh]
	 SCS Correlation Energy    =      -0.6898416239929526 [Eh]
	 SCS Total Energy          =    -798.8660869773325430 [Eh]
	-----------------------------------------------------------

*** Psi4 exiting successfully. Buy a developer a beer!
