                               Psi4 1.9 release

  ==> Input File <==

--------------------------------------------------------------------------
MEMORY 60 GB

molecule dimer {
1 1
K          0.000000     0.000000     0.000000
Gh(F)      0.000000     2.175180     0.000000
Gh(F)      2.827734     0.000000     0.000000

units ang
no_reorient
no_com
symmetry c1
}

set {
basis        aug-cc-pVTZ
scf_type     df
}

energy("mp2")
--------------------------------------------------------------------------

    Molecular point group: c1

    Geometry (in Angstrom), charge = 1, multiplicity = 1:

       Center              X                  Y                   Z               Mass
    ------------   -----------------  -----------------  -----------------  -----------------
         K            0.000000000000     0.000000000000     0.000000000000    38.963706486400
      Gh(F)           0.000000000000     2.175180000000     0.000000000000    18.998403162730
      Gh(F)           2.827734000000     0.000000000000     0.000000000000    18.998403162730

  Charge       = 1
  Multiplicity = 1
  Basis Set: AUG-CC-PVTZ
    Blend: AUG-CC-PVTZ
  Basis Set: (AUG-CC-PVTZ AUX)
    Blend: AUG-CC-PVTZ-JKFIT + DEF2-UNIVERSAL-JKFIT

    Orbital Energies [Eh]
    ---------------------

    Doubly Occupied:

       1A   -133.753667     2A    -14.709127     3A    -11.739198
       4A    -11.739192     5A    -11.739190     6A     -1.964313
       7A     -1.170949     8A     -1.170919     9A     -1.170889

  @DF-RHF Final Energy:  -599.01750891038637

   => Energetics <=

    Nuclear Repulsion Energy =              0.0000000000000000
    One-Electron Energy =                -819.7201299027834693
    Two-Electron Energy =                 220.7026209923971578
    Total Energy =                       -599.0175089103863684
 Dipole X            :          0.0001347            0.0000000            0.0001347
 Dipole Y            :          0.0004159            0.0000000            0.0004159
 Dipole Z            :          0.0000000            0.0000000            0.0000000
 Magnitude           :                                                    0.0004372
  Basis Set: (AUG-CC-PVTZ AUX)
    Blend: AUG-CC-PVTZ-RI + DEF2-QZVPP-RI
	 Reference Energy          =    -599.0175089103863684 [Eh]
	 Singles Energy            =      -0.0000000000000000 [Eh]
	 Same-Spin Energy          =      -0.0285708736764396 [Eh]
	 Opposite-Spin Energy      =      -0.0674259752811023 [Eh]
	 Correlation Energy        =      -0.0959968489575419 [Eh]
	 Total Energy              =    -599.1135057593438660 [Eh]

	 ================> DF-SCS-MP2 Energies <==================
	-----------------------------------------------------------
	 SCS Same-Spin Scale       =       0.3333333333333333 [-]
	 SCS Opposite-Spin Scale   =       1.2000000000000000 [-]
	 SCS Same-Spin Energy      =      -0.0095236245588132 [Eh]
	 SCS Opposite-Spin Energy  =      -0.0809111703373227 [Eh]
	 SCS Correlation Energy    =      -0.0904347948961359 [Eh]
	 SCS Total Energy          =    -599.1079437052825369 [Eh]
	-----------------------------------------------------------

*** Psi4 exiting successfully. Buy a developer a beer!
