                               Psi4 1.9 release

  ==> Input File <==

--------------------------------------------------------------------------
MEMORY 60 GB

molecule dimer {
1 1
K      0.000000     0.000000     0.000000
--
-1 1
F      0.000000     2.175180     0.000000
--
-1 1
F      3.045252     0.000000     0.000000

units ang
no_reorient
no_com
symmetry c1
}

set {
basis        aug-cc-pVTZ
scf_type     df
}

energy("mp2", bsse_type="cp")
--------------------------------------------------------------------------

                               Psi4 1.9 release
    Molecular point group: c1
  Charge       = 1
  Multiplicity = 1
  Basis Set: AUG-CC-PVTZ
    Blend: AUG-CC-PVTZ
  Basis Set: (AUG-CC-PVTZ AUX)
    Blend: AUG-CC-PVTZ-JKFIT + DEF2-UNIVERSAL-JKFIT
  @DF-RHF Final Energy:  -599.01750877779409
    Total Energy =                       -599.0175087777940917
 Dipole X            :          0.0001326            0.0000000            0.0001326
 Dipole Y            :          0.0004133            0.0000000            0.0004133
 Dipole Z            :          0.0000000            0.0000000            0.0000000
 Magnitude           :                                                    0.0004341
  Basis Set: (AUG-CC-PVTZ AUX)
    Blend: AUG-CC-PVTZ-RI + DEF2-QZVPP-RI
	 Reference Energy          =    -599.0175087777940917 [Eh]
	 Singles Energy            =      -0.0000000000000000 [Eh]
	 Same-Spin Energy          =      -0.0282208559365440 [Eh]
	 Opposite-Spin Energy      =      -0.0665118004102891 [Eh]
	 Correlation Energy        =      -0.0947326563468331 [Eh]
	 Total Energy              =    -599.1122414341409694 [Eh]
	 SCS Total Energy          =    -599.1067298902653420 [Eh]
                               Psi4 1.9 release
    Molecular point group: c1
  Basis Set: AUG-CC-PVTZ
    Blend: AUG-CC-PVTZ
  Basis Set: (AUG-CC-PVTZ AUX)
    Blend: AUG-CC-PVTZ-JKFIT + DEF2-UNIVERSAL-JKFIT
  @DF-RHF Final Energy:   -99.45084365158058
    Total Energy =                        -99.4508436515805698
  Basis Set: (AUG-CC-PVTZ AUX)
                               Psi4 1.9 release
  @DF-RHF Final Energy:  -198.76411301246603
    Total Energy =                       -198.7641130124659981
                               Psi4 1.9 release
  @DF-RHF Final Energy:  -698.64570181847103
    Total Energy =                       -698.6457018184711387
                               Psi4 1.9 release
  @DF-RHF Final Energy:  -698.68415691129303
    Total Energy =                       -698.6841569112930301
                               Psi4 1.9 release
  Multiplicity = 1
  @DF-RHF Final Energy:   -99.45082849126197
    Total Energy =                        -99.4508284912619729
	 Singles Energy            =      -0.0000000000000000 [Eh]
	 Same-Spin Energy          =      -0.0816214139584726 [Eh]
	 Opposite-Spin Energy      =      -0.2266408140951254 [Eh]
	 Correlation Energy        =      -0.3082622280535980 [Eh]
	 Total Energy              =     -99.7590907193155658 [Eh]
	 SCS Total Energy          =     -99.7500046061622783 [Eh]
                               Psi4 1.9 release
    Molecular point group: c1

    Geometry (in Bohr), charge = -1, multiplicity = 1:

       Center              X                  Y                   Z               Mass
    ------------   -----------------  -----------------  -----------------  -----------------
         K            0.000000000000     0.000000000000     0.000000000000    38.963706486400
         F            0.000000000000     4.110494473573     0.000000000000    18.998403162730
         F            5.754692263003     0.000000000000     0.000000000000    18.998403162730

  Charge       = -1
  Multiplicity = 1
  Basis Set: AUG-CC-PVTZ
    Blend: AUG-CC-PVTZ
  Basis Set: (AUG-CC-PVTZ AUX)
    Blend: AUG-CC-PVTZ-JKFIT + DEF2-UNIVERSAL-JKFIT

    Orbital Energies [Eh]
    ---------------------

    Doubly Occupied:

       1A   -133.318501     2A    -25.915122     3A    -25.866379
       4A    -14.275908     5A    -11.305817     6A    -11.305606
       7A    -11.305534     8A     -1.540085     9A     -1.177866
      10A     -1.110128    11A     -0.753290    12A     -0.746731
      13A     -0.743559    14A     -0.278200    15A     -0.274895
      16A     -0.274455    17A     -0.216718    18A     -0.214522
      19A     -0.214261

  @DF-RHF Final Energy:  -798.16670908148774

   => Energetics <=

    Nuclear Repulsion Energy =             82.7693974584861110
    One-Electron Energy =               -1280.1970560451652545
    Two-Electron Energy =                 399.2609495051914337
    Total Energy =                       -798.1667090814877383
 Dipole X            :        -57.1841379           51.7922304           -5.3919075
 Dipole Y            :        -40.4907177           36.9944503           -3.4962675
 Dipole Z            :         -0.0000000            0.0000000           -0.0000000
 Magnitude           :                                                    6.4262394
  Basis Set: (AUG-CC-PVTZ AUX)
    Blend: AUG-CC-PVTZ-RI + DEF2-QZVPP-RI
	 Reference Energy          =    -798.1667090814877383 [Eh]
	 Singles Energy            =      -0.0000000000000000 [Eh]
	 Same-Spin Energy          =      -0.1927644719638747 [Eh]
	 Opposite-Spin Energy      =      -0.5189595543703069 [Eh]
	 Correlation Energy        =      -0.7117240263341816 [Eh]
	 Total Energy              =    -798.8784331078219338 [Eh]

	 ================> DF-SCS-MP2 Energies <==================
	-----------------------------------------------------------
	 SCS Same-Spin Scale       =       0.3333333333333333 [-]
	 SCS Opposite-Spin Scale   =       1.2000000000000000 [-]
	 SCS Same-Spin Energy      =      -0.0642548239879582 [Eh]
	 SCS Opposite-Spin Energy  =      -0.6227514652443683 [Eh]
	 SCS Correlation Energy    =      -0.6870062892323265 [Eh]
	 SCS Total Energy          =    -798.8537153707200105 [Eh]
	-----------------------------------------------------------

*** Psi4 exiting successfully. Buy a developer a beer!
