                               Psi4 1.9 release

  ==> Input File <==

--------------------------------------------------------------------------
MEMORY 60 GB

molecule dimer {
-1 1
K          0.000000     0.000000     0.000000
F          0.000000     2.175180     0.000000
F          2.392698     0.000000     0.000000

units ang
no_reorient
no_com
symmetry c1
}

set {
basis        aug-cc-pVTZ
scf_type     df
}

energy("mp2")
--------------------------------------------------------------------------

    Molecular point group: c1

    Geometry (in Angstrom), charge = -1, multiplicity = 1:

       Center              X                  Y                   Z               Mass
    ------------   -----------------  -----------------  -----------------  -----------------
         K            0.000000000000     0.000000000000     0.000000000000    38.963706486400
         F            0.000000000000     2.175180000000     0.000000000000    18.998403162730
         F            2.392698000000     0.000000000000     0.000000000000    18.998403162730

  Charge       = -1
  Multiplicity = 1
  Basis Set: AUG-CC-PVTZ
    Blend: AUG-CC-PVTZ
  Basis Set: (AUG-CC-PVTZ AUX)
    Blend: AUG-CC-PVTZ-JKFIT + DEF2-UNIVERSAL-JKFIT

    Orbital Energies [Eh]
    ---------------------

    Doubly Occupied:

       1A   -133.269689     2A    -25.893699     3A    -25.880631
       4A    -14.227791     5A    -11.257624     6A    -11.257378
       7A    -11.257270     8A     -1.495138     9A     -1.155998
      10A     -1.133702    11A     -0.709795    12A     -0.700965
      13A     -0.700408    14A     -0.255890    15A     -0.254850
      16A     -0.253576    17A     -0.240012    18A     -0.234699
      19A     -0.232396

  @DF-RHF Final Energy:  -798.17840668702354

   => Energetics <=

    Nuclear Repulsion Energy =             92.6752351127928620
    One-Electron Energy =               -1300.8842615900432520
    Two-Electron Energy =                 410.0306197902266945
    Total Energy =                       -798.1784066870236529
 Dipole X            :        -44.7081604           40.6938953           -4.0142651
 Dipole Y            :        -40.5110654           36.9944503           -3.5166151
 Dipole Z            :         -0.0000000            0.0000000           -0.0000000
 Magnitude           :                                                    5.3367505
  Basis Set: (AUG-CC-PVTZ AUX)
    Blend: AUG-CC-PVTZ-RI + DEF2-QZVPP-RI
	 Reference Energy          =    -798.1784066870235392 [Eh]
	 Singles Energy            =      -0.0000000000000000 [Eh]
	 Same-Spin Energy          =      -0.1946910047868128 [Eh]
	 Opposite-Spin Energy      =      -0.5225098013638740 [Eh]
	 Correlation Energy        =      -0.7172008061506868 [Eh]
	 Total Energy              =    -798.8956074931742251 [Eh]

	 ================> DF-SCS-MP2 Energies <==================
	-----------------------------------------------------------
	 SCS Same-Spin Scale       =       0.3333333333333333 [-]
	 SCS Opposite-Spin Scale   =       1.2000000000000000 [-]
	 SCS Same-Spin Energy      =      -0.0648970015956043 [Eh]
	 SCS Opposite-Spin Energy  =      -0.6270117616366488 [Eh]
	 SCS Correlation Energy    =      -0.6919087632322531 [Eh]
	 SCS Total Energy          =    -798.8703154502558164 [Eh]
	-----------------------------------------------------------

*** Psi4 exiting successfully. Buy a developer a beer!
