                               Psi4 1.9 release

  ==> Input File <==

--------------------------------------------------------------------------
MEMORY 60 GB

molecule dimer {
1 1
K      0.000000     0.000000     0.000000
--
-1 1
F      0.000000     2.175180     0.000000
--
-1 1
F      4.350360     0.000000     0.000000

units ang
no_reorient
no_com
symmetry c1
}

set {
basis        aug-cc-pVTZ
scf_type     df
}

energy("mp2", bsse_type="cp")
--------------------------------------------------------------------------

                               Psi4 1.9 release
    Molecular point group: c1
  Charge       = 1
  Multiplicity = 1
  Basis Set: AUG-CC-PVTZ
    Blend: AUG-CC-PVTZ
  Basis Set: (AUG-CC-PVTZ AUX)
    Blend: AUG-CC-PVTZ-JKFIT + DEF2-UNIVERSAL-JKFIT
  @DF-RHF Final Energy:  -599.01750802283857
    Total Energy =                       -599.0175080228386832
 Dipole X            :          0.0000291            0.0000000            0.0000291
 Dipole Y            :          0.0004255            0.0000000            0.0004255
 Dipole Z            :          0.0000000            0.0000000            0.0000000
 Magnitude           :                                                    0.0004265
  Basis Set: (AUG-CC-PVTZ AUX)
    Blend: AUG-CC-PVTZ-RI + DEF2-QZVPP-RI
	 Reference Energy          =    -599.0175080228385696 [Eh]
	 Singles Energy            =      -0.0000000000000000 [Eh]
	 Same-Spin Energy          =      -0.0277528572356412 [Eh]
	 Opposite-Spin Energy      =      -0.0653102671035755 [Eh]
	 Correlation Energy        =      -0.0930631243392167 [Eh]
	 Total Energy              =    -599.1105711471777795 [Eh]
	 SCS Total Energy          =    -599.1051312957747541 [Eh]
                               Psi4 1.9 release
    Molecular point group: c1
  Basis Set: AUG-CC-PVTZ
    Blend: AUG-CC-PVTZ
  Basis Set: (AUG-CC-PVTZ AUX)
    Blend: AUG-CC-PVTZ-JKFIT + DEF2-UNIVERSAL-JKFIT
  @DF-RHF Final Energy:   -99.45084192973641
    Total Energy =                        -99.4508419297364128
  Basis Set: (AUG-CC-PVTZ AUX)
                               Psi4 1.9 release
  @DF-RHF Final Energy:  -198.79423663361379
    Total Energy =                       -198.7942366336137923
                               Psi4 1.9 release
  @DF-RHF Final Energy:  -698.59173177464152
    Total Energy =                       -698.5917317746414028
                               Psi4 1.9 release
  @DF-RHF Final Energy:  -698.68413958890392
    Total Energy =                       -698.6841395889039177
                               Psi4 1.9 release
  Multiplicity = 1
  @DF-RHF Final Energy:   -99.45081975462125
    Total Energy =                        -99.4508197546212500
	 Singles Energy            =      -0.0000000000000000 [Eh]
	 Same-Spin Energy          =      -0.0815902286817723 [Eh]
	 Opposite-Spin Energy      =      -0.2263984599653973 [Eh]
	 Correlation Energy        =      -0.3079886886471696 [Eh]
	 Total Energy              =     -99.7588084432684212 [Eh]
	 SCS Total Energy          =     -99.7496946494736534 [Eh]
                               Psi4 1.9 release
    Molecular point group: c1

    Geometry (in Bohr), charge = -1, multiplicity = 1:

       Center              X                  Y                   Z               Mass
    ------------   -----------------  -----------------  -----------------  -----------------
         K            0.000000000000     0.000000000000     0.000000000000    38.963706486400
         F            0.000000000000     4.110494473573     0.000000000000    18.998403162730
         F            8.220988947147     0.000000000000     0.000000000000    18.998403162730

  Charge       = -1
  Multiplicity = 1
  Basis Set: AUG-CC-PVTZ
    Blend: AUG-CC-PVTZ
  Basis Set: (AUG-CC-PVTZ AUX)
    Blend: AUG-CC-PVTZ-JKFIT + DEF2-UNIVERSAL-JKFIT

    Orbital Energies [Eh]
    ---------------------

    Doubly Occupied:

       1A   -133.369677     2A    -25.947884     3A    -25.847715
       4A    -14.327159     5A    -11.357038     6A    -11.356960
       7A    -11.356762     8A     -1.591314     9A     -1.211016
      10A     -1.089918    11A     -0.803231    12A     -0.800800
      13A     -0.792840    14A     -0.311511    15A     -0.307567
      16A     -0.307267    17A     -0.194956    18A     -0.194873
      19A     -0.194601

  @DF-RHF Final Energy:  -798.14763043636560

   => Energetics <=

    Nuclear Repulsion Energy =             71.2138899875527329
    One-Electron Energy =               -1255.9968650945795616
    Two-Electron Energy =                 386.6353446706613681
    Total Energy =                       -798.1476304363654890
 Dipole X            :        -82.0213774           73.9889005           -8.0324769
 Dipole Y            :        -40.4836809           36.9944503           -3.4892306
 Dipole Z            :          0.0000000            0.0000000            0.0000000
 Magnitude           :                                                    8.7575918
  Basis Set: (AUG-CC-PVTZ AUX)
    Blend: AUG-CC-PVTZ-RI + DEF2-QZVPP-RI
	 Reference Energy          =    -798.1476304363656027 [Eh]
	 Singles Energy            =      -0.0000000000000000 [Eh]
	 Same-Spin Energy          =      -0.1920146511649105 [Eh]
	 Opposite-Spin Energy      =      -0.5174453119572739 [Eh]
	 Correlation Energy        =      -0.7094599631221845 [Eh]
	 Total Energy              =    -798.8570903994877881 [Eh]

	 ================> DF-SCS-MP2 Energies <==================
	-----------------------------------------------------------
	 SCS Same-Spin Scale       =       0.3333333333333333 [-]
	 SCS Opposite-Spin Scale   =       1.2000000000000000 [-]
	 SCS Same-Spin Energy      =      -0.0640048837216368 [Eh]
	 SCS Opposite-Spin Energy  =      -0.6209343743487287 [Eh]
	 SCS Correlation Energy    =      -0.6849392580703655 [Eh]
	 SCS Total Energy          =    -798.8325696944359606 [Eh]
	-----------------------------------------------------------

*** Psi4 exiting successfully. Buy a developer a beer!
