                               Psi4 1.9 release

  ==> Input File <==

--------------------------------------------------------------------------
MEMORY 60 GB

molecule dimer {
1 1
K          0.000000     0.000000     0.000000
Gh(F)      0.000000     2.175180     0.000000
Gh(F)      2.175180     0.000000     0.000000

units ang
no_reorient
no_com
symmetry c1
}

set {
basis        aug-cc-pVTZ
scf_type     df
}

energy("mp2")
--------------------------------------------------------------------------

    Molecular point group: c1

    Geometry (in Angstrom), charge = 1, multiplicity = 1:

       Center              X                  Y                   Z               Mass
    ------------   -----------------  -----------------  -----------------  -----------------
         K            0.000000000000     0.000000000000     0.000000000000    38.963706486400
      Gh(F)           0.000000000000     2.175180000000     0.000000000000    18.998403162730
      Gh(F)           2.175180000000     0.000000000000     0.000000000000    18.998403162730

  Charge       = 1
  Multiplicity = 1
  Basis Set: AUG-CC-PVTZ
    Blend: AUG-CC-PVTZ
  Basis Set: (AUG-CC-PVTZ AUX)
    Blend: AUG-CC-PVTZ-JKFIT + DEF2-UNIVERSAL-JKFIT

    Orbital Energies [Eh]
    ---------------------

    Doubly Occupied:

       1A   -133.753538     2A    -14.709022     3A    -11.739093
       4A    -11.739092     5A    -11.739085     6A     -1.964261
       7A     -1.170906     8A     -1.170904     9A     -1.170843

  @DF-RHF Final Energy:  -599.01750976833364

   => Energetics <=

    Nuclear Repulsion Energy =              0.0000000000000000
    One-Electron Energy =                -819.7215343682793218
    Two-Electron Energy =                 220.7040245999455692
    Total Energy =                       -599.0175097683337526
 Dipole X            :          0.0003851            0.0000000            0.0003851
 Dipole Y            :          0.0003851            0.0000000            0.0003851
 Dipole Z            :         -0.0000000            0.0000000           -0.0000000
 Magnitude           :                                                    0.0005446
  Basis Set: (AUG-CC-PVTZ AUX)
    Blend: AUG-CC-PVTZ-RI + DEF2-QZVPP-RI
	 Reference Energy          =    -599.0175097683336389 [Eh]
	 Singles Energy            =      -0.0000000000000000 [Eh]
	 Same-Spin Energy          =      -0.0302996661121732 [Eh]
	 Opposite-Spin Energy      =      -0.0724586143867072 [Eh]
	 Correlation Energy        =      -0.1027582804988804 [Eh]
	 Total Energy              =    -599.1202680488324859 [Eh]

	 ================> DF-SCS-MP2 Energies <==================
	-----------------------------------------------------------
	 SCS Same-Spin Scale       =       0.3333333333333333 [-]
	 SCS Opposite-Spin Scale   =       1.2000000000000000 [-]
	 SCS Same-Spin Energy      =      -0.0100998887040577 [Eh]
	 SCS Opposite-Spin Energy  =      -0.0869503372640486 [Eh]
	 SCS Correlation Energy    =      -0.0970502259681063 [Eh]
	 SCS Total Energy          =    -599.1145599943017714 [Eh]
	-----------------------------------------------------------

*** Psi4 exiting successfully. Buy a developer a beer!
