                               Psi4 1.9 release

  ==> Input File <==

--------------------------------------------------------------------------
MEMORY 60 GB

molecule dimer {
1 1
K          0.000000     0.000000     0.000000
Gh(F)      0.000000     2.175180     0.000000
Gh(F)      3.262770     0.000000     0.000000

units ang
no_reorient
no_com
symmetry c1
}

set {
basis        aug-cc-pVTZ
scf_type     df
}

energy("mp2")
--------------------------------------------------------------------------

    Molecular point group: c1

    Geometry (in Angstrom), charge = 1, multiplicity = 1:

       Center              X                  Y                   Z               Mass
    ------------   -----------------  -----------------  -----------------  -----------------
         K            0.000000000000     0.000000000000     0.000000000000    38.963706486400
      Gh(F)           0.000000000000     2.175180000000     0.000000000000    18.998403162730
      Gh(F)           3.262770000000     0.000000000000     0.000000000000    18.998403162730

  Charge       = 1
  Multiplicity = 1
  Basis Set: AUG-CC-PVTZ
    Blend: AUG-CC-PVTZ
  Basis Set: (AUG-CC-PVTZ AUX)
    Blend: AUG-CC-PVTZ-JKFIT + DEF2-UNIVERSAL-JKFIT

    Orbital Energies [Eh]
    ---------------------

    Doubly Occupied:

       1A   -133.753678     2A    -14.709136     3A    -11.739208
       4A    -11.739202     5A    -11.739200     6A     -1.964318
       7A     -1.170955     8A     -1.170922     9A     -1.170895

  @DF-RHF Final Energy:  -599.01750868850320

   => Energetics <=

    Nuclear Repulsion Energy =              0.0000000000000000
    One-Electron Energy =                -819.7199954474482411
    Two-Electron Energy =                 220.7024867589450423
    Total Energy =                       -599.0175086885031988
 Dipole X            :          0.0001467            0.0000000            0.0001467
 Dipole Y            :          0.0004120            0.0000000            0.0004120
 Dipole Z            :          0.0000000            0.0000000            0.0000000
 Magnitude           :                                                    0.0004374
  Basis Set: (AUG-CC-PVTZ AUX)
    Blend: AUG-CC-PVTZ-RI + DEF2-QZVPP-RI
	 Reference Energy          =    -599.0175086885031988 [Eh]
	 Singles Energy            =      -0.0000000000000000 [Eh]
	 Same-Spin Energy          =      -0.0280187805455854 [Eh]
	 Opposite-Spin Energy      =      -0.0660012148245330 [Eh]
	 Correlation Energy        =      -0.0940199953701185 [Eh]
	 Total Energy              =    -599.1115286838733027 [Eh]

	 ================> DF-SCS-MP2 Energies <==================
	-----------------------------------------------------------
	 SCS Same-Spin Scale       =       0.3333333333333333 [-]
	 SCS Opposite-Spin Scale   =       1.2000000000000000 [-]
	 SCS Same-Spin Energy      =      -0.0093395935151951 [Eh]
	 SCS Opposite-Spin Energy  =      -0.0792014577894396 [Eh]
	 SCS Correlation Energy    =      -0.0885410513046348 [Eh]
	 SCS Total Energy          =    -599.1060497398078724 [Eh]
	-----------------------------------------------------------

*** Psi4 exiting successfully. Buy a developer a beer!
