                               Psi4 1.9 release

  ==> Input File <==

--------------------------------------------------------------------------
MEMORY 60 GB

molecule dimer {
0 1
K      0.000000     0.000000     0.000000
F      0.000000     2.175180     0.000000
--
-1 1
F      3.262770     0.000000     0.000000

units ang
no_reorient
no_com
symmetry c1
}

set {
basis        aug-cc-pVTZ
scf_type     df
}

energy("mp2", bsse_type="cp")
--------------------------------------------------------------------------

                               Psi4 1.9 release
    Molecular point group: c1
  Charge       = -1
  Multiplicity = 1
  Basis Set: AUG-CC-PVTZ
    Blend: AUG-CC-PVTZ
  Basis Set: (AUG-CC-PVTZ AUX)
    Blend: AUG-CC-PVTZ-JKFIT + DEF2-UNIVERSAL-JKFIT
  @DF-RHF Final Energy:   -99.45082660605827
    Total Energy =                        -99.4508266060582713
 Dipole X            :        -61.6571630           55.4916754           -6.1654876
 Dipole Y            :         -0.0001857            0.0000000           -0.0001857
 Dipole Z            :          0.0000000            0.0000000            0.0000000
 Magnitude           :                                                    6.1654876
  Basis Set: (AUG-CC-PVTZ AUX)
    Blend: AUG-CC-PVTZ-RI + DEF2-QZVPP-RI
	 Reference Energy          =     -99.4508266060582713 [Eh]
	 Singles Energy            =      -0.0000000000000000 [Eh]
	 Same-Spin Energy          =      -0.0816146533077945 [Eh]
	 Opposite-Spin Energy      =      -0.2265890646369137 [Eh]
	 Correlation Energy        =      -0.3082037179447082 [Eh]
	 Total Energy              =     -99.7590303240029783 [Eh]
	 SCS Total Energy          =     -99.7499383680584941 [Eh]
                               Psi4 1.9 release
    Molecular point group: c1
  Multiplicity = 1
  Basis Set: AUG-CC-PVTZ
    Blend: AUG-CC-PVTZ
  Basis Set: (AUG-CC-PVTZ AUX)
    Blend: AUG-CC-PVTZ-JKFIT + DEF2-UNIVERSAL-JKFIT
  @DF-RHF Final Energy:  -698.68415214663082
    Total Energy =                       -698.6841521466308222
  Basis Set: (AUG-CC-PVTZ AUX)
	 Singles Energy            =      -0.0000000000000000 [Eh]
	 Same-Spin Energy          =      -0.1105950250315910 [Eh]
	 Opposite-Spin Energy      =      -0.2915984503716990 [Eh]
	 Correlation Energy        =      -0.4021934754032900 [Eh]
	 Total Energy              =    -699.0863456220340595 [Eh]
	 SCS Total Energy          =    -699.0709352954206679 [Eh]
                               Psi4 1.9 release
    Molecular point group: c1

    Geometry (in Bohr), charge = -1, multiplicity = 1:

       Center              X                  Y                   Z               Mass
    ------------   -----------------  -----------------  -----------------  -----------------
         K            0.000000000000     0.000000000000     0.000000000000    38.963706486400
         F            0.000000000000     4.110494473573     0.000000000000    18.998403162730
         F            6.165741710360     0.000000000000     0.000000000000    18.998403162730

  Charge       = -1
  Multiplicity = 1
  Basis Set: AUG-CC-PVTZ
    Blend: AUG-CC-PVTZ
  Basis Set: (AUG-CC-PVTZ AUX)
    Blend: AUG-CC-PVTZ-JKFIT + DEF2-UNIVERSAL-JKFIT

    Orbital Energies [Eh]
    ---------------------

    Doubly Occupied:

       1A   -133.329825     2A    -25.921515     3A    -25.862206
       4A    -14.287250     5A    -11.317154     6A    -11.316971
       7A    -11.316878     8A     -1.551358     9A     -1.184358
      10A     -1.105161    11A     -0.764210    12A     -0.758688
      13A     -0.754308    14A     -0.284753    15A     -0.281269
      16A     -0.280807    17A     -0.211090    18A     -0.209843
      19A     -0.209652

  @DF-RHF Final Energy:  -798.16212342749259

   => Energetics <=

    Nuclear Repulsion Energy =             80.2654566294614966
    One-Electron Energy =               -1274.9605651049657808
    Two-Electron Energy =                 396.5329850480115397
    Total Energy =                       -798.1621234274925882
 Dipole X            :        -61.3312765           55.4916754           -5.8396011
 Dipole Y            :        -40.4876105           36.9944503           -3.4931603
 Dipole Z            :         -0.0000000            0.0000000           -0.0000000
 Magnitude           :                                                    6.8046388
  Basis Set: (AUG-CC-PVTZ AUX)
    Blend: AUG-CC-PVTZ-RI + DEF2-QZVPP-RI
	 Reference Energy          =    -798.1621234274925882 [Eh]
	 Singles Energy            =      -0.0000000000000000 [Eh]
	 Same-Spin Energy          =      -0.1925062650984415 [Eh]
	 Opposite-Spin Energy      =      -0.5184656603992140 [Eh]
	 Correlation Energy        =      -0.7109719254976555 [Eh]
	 Total Energy              =    -798.8730953529902763 [Eh]

	 ================> DF-SCS-MP2 Energies <==================
	-----------------------------------------------------------
	 SCS Same-Spin Scale       =       0.3333333333333333 [-]
	 SCS Opposite-Spin Scale   =       1.2000000000000000 [-]
	 SCS Same-Spin Energy      =      -0.0641687550328138 [Eh]
	 SCS Opposite-Spin Energy  =      -0.6221587924790568 [Eh]
	 SCS Correlation Energy    =      -0.6863275475118706 [Eh]
	 SCS Total Energy          =    -798.8484509750044253 [Eh]
	-----------------------------------------------------------

*** Psi4 exiting successfully. Buy a developer a beer!
