                               Psi4 1.9 release

  ==> Input File <==

--------------------------------------------------------------------------
MEMORY 60 GB

molecule dimer {
-1 1
K          0.000000     0.000000     0.000000
F          0.000000     2.175180     0.000000
F          2.175180     0.000000     0.000000

units ang
no_reorient
no_com
symmetry c1
}

set {
basis        aug-cc-pVTZ
scf_type     df
}

energy("mp2")
--------------------------------------------------------------------------

    Molecular point group: c1

    Geometry (in Angstrom), charge = -1, multiplicity = 1:

       Center              X                  Y                   Z               Mass
    ------------   -----------------  -----------------  -----------------  -----------------
         K            0.000000000000     0.000000000000     0.000000000000    38.963706486400
         F            0.000000000000     2.175180000000     0.000000000000    18.998403162730
         F            2.175180000000     0.000000000000     0.000000000000    18.998403162730

  Charge       = -1
  Multiplicity = 1
  Basis Set: AUG-CC-PVTZ
    Blend: AUG-CC-PVTZ
  Basis Set: (AUG-CC-PVTZ AUX)
    Blend: AUG-CC-PVTZ-JKFIT + DEF2-UNIVERSAL-JKFIT

    Orbital Energies [Eh]
    ---------------------

    Doubly Occupied:

       1A   -133.244391     2A    -25.885875     3A    -25.885873
       4A    -14.203636     5A    -11.233303     6A    -11.233090
       7A    -11.232991     8A     -1.475724     9A     -1.148572
      10A     -1.147358    11A     -0.690463    12A     -0.682188
      13A     -0.681593    14A     -0.253516    15A     -0.247457
      16A     -0.247293    17A     -0.246927    18A     -0.244467
      19A     -0.236805

  @DF-RHF Final Energy:  -798.17326420037375

   => Energetics <=

    Nuclear Repulsion Energy =             97.1356735407576792
    One-Electron Energy =               -1310.1748294315373187
    Two-Electron Energy =                 414.8658916904061016
    Total Energy =                       -798.1732642003736373
 Dipole X            :        -40.5243304           36.9944503           -3.5298802
 Dipole Y            :        -40.5243304           36.9944503           -3.5298802
 Dipole Z            :          0.0000000            0.0000000            0.0000000
 Magnitude           :                                                    4.9920044
  Basis Set: (AUG-CC-PVTZ AUX)
    Blend: AUG-CC-PVTZ-RI + DEF2-QZVPP-RI
	 Reference Energy          =    -798.1732642003737510 [Eh]
	 Singles Energy            =      -0.0000000000000000 [Eh]
	 Same-Spin Energy          =      -0.1959016192073146 [Eh]
	 Opposite-Spin Energy      =      -0.5243395193524106 [Eh]
	 Correlation Energy        =      -0.7202411385597253 [Eh]
	 Total Energy              =    -798.8935053389334371 [Eh]

	 ================> DF-SCS-MP2 Energies <==================
	-----------------------------------------------------------
	 SCS Same-Spin Scale       =       0.3333333333333333 [-]
	 SCS Opposite-Spin Scale   =       1.2000000000000000 [-]
	 SCS Same-Spin Energy      =      -0.0653005397357715 [Eh]
	 SCS Opposite-Spin Energy  =      -0.6292074232228927 [Eh]
	 SCS Correlation Energy    =      -0.6945079629586642 [Eh]
	 SCS Total Energy          =    -798.8677721633324609 [Eh]
	-----------------------------------------------------------

*** Psi4 exiting successfully. Buy a developer a beer!
