                               Psi4 1.9 release

  ==> Input File <==

--------------------------------------------------------------------------
MEMORY 60 GB

molecule dimer {
1 1
K          0.000000     0.000000     0.000000
Gh(F)      0.000000     2.175180     0.000000
Gh(F)      2.392698     0.000000     0.000000

units ang
no_reorient
no_com
symmetry c1
}

set {
basis        aug-cc-pVTZ
scf_type     df
}

energy("mp2")
--------------------------------------------------------------------------

    Molecular point group: c1

    Geometry (in Angstrom), charge = 1, multiplicity = 1:

       Center              X                  Y                   Z               Mass
    ------------   -----------------  -----------------  -----------------  -----------------
         K            0.000000000000     0.000000000000     0.000000000000    38.963706486400
      Gh(F)           0.000000000000     2.175180000000     0.000000000000    18.998403162730
      Gh(F)           2.392698000000     0.000000000000     0.000000000000    18.998403162730

  Charge       = 1
  Multiplicity = 1
  Basis Set: AUG-CC-PVTZ
    Blend: AUG-CC-PVTZ
  Basis Set: (AUG-CC-PVTZ AUX)
    Blend: AUG-CC-PVTZ-JKFIT + DEF2-UNIVERSAL-JKFIT

    Orbital Energies [Eh]
    ---------------------

    Doubly Occupied:

       1A   -133.753620     2A    -14.709085     3A    -11.739157
       4A    -11.739154     5A    -11.739149     6A     -1.964288
       7A     -1.170928     8A     -1.170915     9A     -1.170867

  @DF-RHF Final Energy:  -599.01750944981757

   => Energetics <=

    Nuclear Repulsion Energy =              0.0000000000000000
    One-Electron Energy =                -819.7206979788094259
    Two-Electron Energy =                 220.7031885289918876
    Total Energy =                       -599.0175094498175667
 Dipole X            :          0.0002883            0.0000000            0.0002883
 Dipole Y            :          0.0004062            0.0000000            0.0004062
 Dipole Z            :         -0.0000000            0.0000000           -0.0000000
 Magnitude           :                                                    0.0004981
  Basis Set: (AUG-CC-PVTZ AUX)
    Blend: AUG-CC-PVTZ-RI + DEF2-QZVPP-RI
	 Reference Energy          =    -599.0175094498175667 [Eh]
	 Singles Energy            =      -0.0000000000000000 [Eh]
	 Same-Spin Energy          =      -0.0296421400831676 [Eh]
	 Opposite-Spin Energy      =      -0.0704491060186111 [Eh]
	 Correlation Energy        =      -0.1000912461017787 [Eh]
	 Total Energy              =    -599.1176006959193501 [Eh]

	 ================> DF-SCS-MP2 Energies <==================
	-----------------------------------------------------------
	 SCS Same-Spin Scale       =       0.3333333333333333 [-]
	 SCS Opposite-Spin Scale   =       1.2000000000000000 [-]
	 SCS Same-Spin Energy      =      -0.0098807133610559 [Eh]
	 SCS Opposite-Spin Energy  =      -0.0845389272223333 [Eh]
	 SCS Correlation Energy    =      -0.0944196405833892 [Eh]
	 SCS Total Energy          =    -599.1119290904009631 [Eh]
	-----------------------------------------------------------

*** Psi4 exiting successfully. Buy a developer a beer!
