                               Psi4 1.9 release

  ==> Input File <==

--------------------------------------------------------------------------
MEMORY 60 GB

molecule dimer {
-1 1
K          0.000000     0.000000     0.000000
F          0.000000     2.175180     0.000000
F          2.610216     0.000000     0.000000

units ang
no_reorient
no_com
symmetry c1
}

set {
basis        aug-cc-pVTZ
scf_type     df
}

energy("mp2")
--------------------------------------------------------------------------

    Molecular point group: c1

    Geometry (in Angstrom), charge = -1, multiplicity = 1:

       Center              X                  Y                   Z               Mass
    ------------   -----------------  -----------------  -----------------  -----------------
         K            0.000000000000     0.000000000000     0.000000000000    38.963706486400
         F            0.000000000000     2.175180000000     0.000000000000    18.998403162730
         F            2.610216000000     0.000000000000     0.000000000000    18.998403162730

  Charge       = -1
  Multiplicity = 1
  Basis Set: AUG-CC-PVTZ
    Blend: AUG-CC-PVTZ
  Basis Set: (AUG-CC-PVTZ AUX)
    Blend: AUG-CC-PVTZ-JKFIT + DEF2-UNIVERSAL-JKFIT

    Orbital Energies [Eh]
    ---------------------

    Doubly Occupied:

       1A   -133.289549     2A    -25.901198     3A    -25.875681
       4A    -14.247118     5A    -11.277014     6A    -11.276767
       7A    -11.276682     8A     -1.512339     9A     -1.163674
      10A     -1.123693    11A     -0.726497    12A     -0.717809
      13A     -0.717186    14A     -0.263775    15A     -0.261062
      16A     -0.261021    17A     -0.231417    18A     -0.226556
      19A     -0.225661

  @DF-RHF Final Energy:  -798.17624535333937

   => Energetics <=

    Nuclear Repulsion Energy =             88.8834515462103099
    One-Electron Energy =               -1292.9699982268055010
    Two-Electron Energy =                 405.9103013272556950
    Total Energy =                       -798.1762453533394819
 Dipole X            :        -48.8753767           44.3933403           -4.4820364
 Dipole Y            :        -40.5018084           36.9944503           -3.5073582
 Dipole Z            :         -0.0000000            0.0000000           -0.0000000
 Magnitude           :                                                    5.6912399
  Basis Set: (AUG-CC-PVTZ AUX)
    Blend: AUG-CC-PVTZ-RI + DEF2-QZVPP-RI
	 Reference Energy          =    -798.1762453533393682 [Eh]
	 Singles Energy            =      -0.0000000000000000 [Eh]
	 Same-Spin Energy          =      -0.1938335770266562 [Eh]
	 Opposite-Spin Energy      =      -0.5210253597092405 [Eh]
	 Correlation Energy        =      -0.7148589367358966 [Eh]
	 Total Energy              =    -798.8911042900753046 [Eh]

	 ================> DF-SCS-MP2 Energies <==================
	-----------------------------------------------------------
	 SCS Same-Spin Scale       =       0.3333333333333333 [-]
	 SCS Opposite-Spin Scale   =       1.2000000000000000 [-]
	 SCS Same-Spin Energy      =      -0.0646111923422187 [Eh]
	 SCS Opposite-Spin Energy  =      -0.6252304316510885 [Eh]
	 SCS Correlation Energy    =      -0.6898416239933072 [Eh]
	 SCS Total Energy          =    -798.8660869773326567 [Eh]
	-----------------------------------------------------------

*** Psi4 exiting successfully. Buy a developer a beer!
