                               Psi4 1.9 release

  ==> Input File <==

--------------------------------------------------------------------------
MEMORY 60 GB

molecule dimer {
0 1
K      0.000000     0.000000     0.000000
F      0.000000     2.175180     0.000000
--
-1 1
F      2.827734     0.000000     0.000000

units ang
no_reorient
no_com
symmetry c1
}

set {
basis        aug-cc-pVTZ
scf_type     df
}

energy("mp2", bsse_type="cp")
--------------------------------------------------------------------------

                               Psi4 1.9 release
    Molecular point group: c1
  Charge       = -1
  Multiplicity = 1
  Basis Set: AUG-CC-PVTZ
    Blend: AUG-CC-PVTZ
  Basis Set: (AUG-CC-PVTZ AUX)
    Blend: AUG-CC-PVTZ-JKFIT + DEF2-UNIVERSAL-JKFIT
  @DF-RHF Final Energy:   -99.45083190033375
    Total Energy =                        -99.4508319003337533
 Dipole X            :        -53.4362318           48.0927853           -5.3434464
 Dipole Y            :         -0.0000550            0.0000000           -0.0000550
 Dipole Z            :          0.0000000            0.0000000            0.0000000
 Magnitude           :                                                    5.3434464
  Basis Set: (AUG-CC-PVTZ AUX)
    Blend: AUG-CC-PVTZ-RI + DEF2-QZVPP-RI
	 Reference Energy          =     -99.4508319003337533 [Eh]
	 Singles Energy            =      -0.0000000000000000 [Eh]
	 Same-Spin Energy          =      -0.0816280982443164 [Eh]
	 Opposite-Spin Energy      =      -0.2266932373265574 [Eh]
	 Correlation Energy        =      -0.3083213355708738 [Eh]
	 Total Energy              =     -99.7591532359046340 [Eh]
	 SCS Total Energy          =     -99.7500731512070615 [Eh]
                               Psi4 1.9 release
    Molecular point group: c1
  Multiplicity = 1
  Basis Set: AUG-CC-PVTZ
    Blend: AUG-CC-PVTZ
  Basis Set: (AUG-CC-PVTZ AUX)
    Blend: AUG-CC-PVTZ-JKFIT + DEF2-UNIVERSAL-JKFIT
  @DF-RHF Final Energy:  -698.68416880820848
    Total Energy =                       -698.6841688082084829
  Basis Set: (AUG-CC-PVTZ AUX)
	 Singles Energy            =      -0.0000000000000000 [Eh]
	 Same-Spin Energy          =      -0.1111404038405002 [Eh]
	 Opposite-Spin Energy      =      -0.2929952050484482 [Eh]
	 Correlation Energy        =      -0.4041356088889484 [Eh]
	 Total Energy              =    -699.0883044170974472 [Eh]
	 SCS Total Energy          =    -699.0728098555467795 [Eh]
                               Psi4 1.9 release
    Molecular point group: c1

    Geometry (in Bohr), charge = -1, multiplicity = 1:

       Center              X                  Y                   Z               Mass
    ------------   -----------------  -----------------  -----------------  -----------------
         K            0.000000000000     0.000000000000     0.000000000000    38.963706486400
         F            0.000000000000     4.110494473573     0.000000000000    18.998403162730
         F            5.343642815645     0.000000000000     0.000000000000    18.998403162730

  Charge       = -1
  Multiplicity = 1
  Basis Set: AUG-CC-PVTZ
    Blend: AUG-CC-PVTZ
  Basis Set: (AUG-CC-PVTZ AUX)
    Blend: AUG-CC-PVTZ-JKFIT + DEF2-UNIVERSAL-JKFIT

    Orbital Energies [Eh]
    ---------------------

    Doubly Occupied:

       1A   -133.305378     2A    -25.908347     3A    -25.870902
       4A    -14.262790     5A    -11.292702     6A    -11.292468
       7A    -11.292401     8A     -1.527208     9A     -1.170970
      10A     -1.116145    11A     -0.740853    12A     -0.733159
      13A     -0.731326    14A     -0.271213    15A     -0.268141
      16A     -0.267817    17A     -0.223494    18A     -0.220004
      19A     -0.219563

  @DF-RHF Final Energy:  -798.17166976115664

   => Energetics <=

    Nuclear Repulsion Energy =             85.6162282737115987
    One-Electron Energy =               -1286.1460369563974382
    Two-Electron Energy =                 402.3581389215291892
    Total Energy =                       -798.1716697611566360
 Dipole X            :        -53.0329513           48.0927853           -4.9401660
 Dipole Y            :        -40.4953018           36.9944503           -3.5008515
 Dipole Z            :          0.0000000            0.0000000            0.0000000
 Magnitude           :                                                    6.0548494
  Basis Set: (AUG-CC-PVTZ AUX)
    Blend: AUG-CC-PVTZ-RI + DEF2-QZVPP-RI
	 Reference Energy          =    -798.1716697611566360 [Eh]
	 Singles Energy            =      -0.0000000000000000 [Eh]
	 Same-Spin Energy          =      -0.1931945110233767 [Eh]
	 Opposite-Spin Energy      =      -0.5198016004352164 [Eh]
	 Correlation Energy        =      -0.7129961114585931 [Eh]
	 Total Energy              =    -798.8846658726151873 [Eh]

	 ================> DF-SCS-MP2 Energies <==================
	-----------------------------------------------------------
	 SCS Same-Spin Scale       =       0.3333333333333333 [-]
	 SCS Opposite-Spin Scale   =       1.2000000000000000 [-]
	 SCS Same-Spin Energy      =      -0.0643981703411255 [Eh]
	 SCS Opposite-Spin Energy  =      -0.6237619205222596 [Eh]
	 SCS Correlation Energy    =      -0.6881600908633851 [Eh]
	 SCS Total Energy          =    -798.8598298520199705 [Eh]
	-----------------------------------------------------------

*** Psi4 exiting successfully. Buy a developer a beer!
