                               Psi4 1.9 release

  ==> Input File <==

--------------------------------------------------------------------------
MEMORY 60 GB

molecule dimer {
-1 1
K          0.000000     0.000000     0.000000
F          0.000000     2.175180     0.000000
F          3.045252     0.000000     0.000000

units ang
no_reorient
no_com
symmetry c1
}

set {
basis        aug-cc-pVTZ
scf_type     df
}

energy("mp2")
--------------------------------------------------------------------------

    Molecular point group: c1

    Geometry (in Angstrom), charge = -1, multiplicity = 1:

       Center              X                  Y                   Z               Mass
    ------------   -----------------  -----------------  -----------------  -----------------
         K            0.000000000000     0.000000000000     0.000000000000    38.963706486400
         F            0.000000000000     2.175180000000     0.000000000000    18.998403162730
         F            3.045252000000     0.000000000000     0.000000000000    18.998403162730

  Charge       = -1
  Multiplicity = 1
  Basis Set: AUG-CC-PVTZ
    Blend: AUG-CC-PVTZ
  Basis Set: (AUG-CC-PVTZ AUX)
    Blend: AUG-CC-PVTZ-JKFIT + DEF2-UNIVERSAL-JKFIT

    Orbital Energies [Eh]
    ---------------------

    Doubly Occupied:

       1A   -133.318501     2A    -25.915122     3A    -25.866379
       4A    -14.275908     5A    -11.305817     6A    -11.305606
       7A    -11.305534     8A     -1.540085     9A     -1.177866
      10A     -1.110128    11A     -0.753290    12A     -0.746731
      13A     -0.743559    14A     -0.278200    15A     -0.274895
      16A     -0.274455    17A     -0.216718    18A     -0.214522
      19A     -0.214261

  @DF-RHF Final Energy:  -798.16670908148831

   => Energetics <=

    Nuclear Repulsion Energy =             82.7693974584861110
    One-Electron Energy =               -1280.1970560451552501
    Two-Electron Energy =                 399.2609495051809176
    Total Energy =                       -798.1667090814883068
 Dipole X            :        -57.1841379           51.7922304           -5.3919075
 Dipole Y            :        -40.4907177           36.9944503           -3.4962675
 Dipole Z            :          0.0000000            0.0000000            0.0000000
 Magnitude           :                                                    6.4262394
  Basis Set: (AUG-CC-PVTZ AUX)
    Blend: AUG-CC-PVTZ-RI + DEF2-QZVPP-RI
	 Reference Energy          =    -798.1667090814883068 [Eh]
	 Singles Energy            =      -0.0000000000000000 [Eh]
	 Same-Spin Energy          =      -0.1927644719638480 [Eh]
	 Opposite-Spin Energy      =      -0.5189595543702666 [Eh]
	 Correlation Energy        =      -0.7117240263341146 [Eh]
	 Total Energy              =    -798.8784331078223886 [Eh]

	 ================> DF-SCS-MP2 Energies <==================
	-----------------------------------------------------------
	 SCS Same-Spin Scale       =       0.3333333333333333 [-]
	 SCS Opposite-Spin Scale   =       1.2000000000000000 [-]
	 SCS Same-Spin Energy      =      -0.0642548239879493 [Eh]
	 SCS Opposite-Spin Energy  =      -0.6227514652443199 [Eh]
	 SCS Correlation Energy    =      -0.6870062892322693 [Eh]
	 SCS Total Energy          =    -798.8537153707205789 [Eh]
	-----------------------------------------------------------

*** Psi4 exiting successfully. Buy a developer a beer!
