                               Psi4 1.9 release

  ==> Input File <==

--------------------------------------------------------------------------
MEMORY 60 GB

molecule dimer {
1 1
K      0.000000     0.000000     0.000000
--
-1 1
F      0.000000     2.175180     0.000000
--
-1 1
F      2.175180     0.000000     0.000000

units ang
no_reorient
no_com
symmetry c1
}

set {
basis        aug-cc-pVTZ
scf_type     df
}

energy("mp2", bsse_type="cp")
--------------------------------------------------------------------------

                               Psi4 1.9 release
    Molecular point group: c1
  Charge       = 1
  Multiplicity = 1
  Basis Set: AUG-CC-PVTZ
    Blend: AUG-CC-PVTZ
  Basis Set: (AUG-CC-PVTZ AUX)
    Blend: AUG-CC-PVTZ-JKFIT + DEF2-UNIVERSAL-JKFIT
  @DF-RHF Final Energy:  -599.01750976833398
    Total Energy =                       -599.0175097683338663
 Dipole X            :          0.0003851            0.0000000            0.0003851
 Dipole Y            :          0.0003851            0.0000000            0.0003851
 Dipole Z            :          0.0000000            0.0000000            0.0000000
 Magnitude           :                                                    0.0005446
  Basis Set: (AUG-CC-PVTZ AUX)
    Blend: AUG-CC-PVTZ-RI + DEF2-QZVPP-RI
	 Reference Energy          =    -599.0175097683339800 [Eh]
	 Singles Energy            =      -0.0000000000000000 [Eh]
	 Same-Spin Energy          =      -0.0302996661121485 [Eh]
	 Opposite-Spin Energy      =      -0.0724586143865490 [Eh]
	 Correlation Energy        =      -0.1027582804986976 [Eh]
	 Total Energy              =    -599.1202680488327132 [Eh]
	 SCS Total Energy          =    -599.1145599943018851 [Eh]
                               Psi4 1.9 release
    Molecular point group: c1
  Basis Set: AUG-CC-PVTZ
    Blend: AUG-CC-PVTZ
  Basis Set: (AUG-CC-PVTZ AUX)
    Blend: AUG-CC-PVTZ-JKFIT + DEF2-UNIVERSAL-JKFIT
  @DF-RHF Final Energy:   -99.45085219320822
    Total Energy =                        -99.4508521932082203
  Basis Set: (AUG-CC-PVTZ AUX)
                               Psi4 1.9 release
  @DF-RHF Final Energy:  -198.73721561641065
    Total Energy =                       -198.7372156164106514
                               Psi4 1.9 release
  @DF-RHF Final Energy:  -698.68427433276793
    Total Energy =                       -698.6842743327679273
                               Psi4 1.9 release
  @DF-RHF Final Energy:  -698.68427433278100
    Total Energy =                       -698.6842743327811149
                               Psi4 1.9 release
  Multiplicity = 1
  @DF-RHF Final Energy:   -99.45085219320245
    Total Energy =                        -99.4508521932024507
	 Singles Energy            =      -0.0000000000000000 [Eh]
	 Same-Spin Energy          =      -0.0816527582429596 [Eh]
	 Opposite-Spin Energy      =      -0.2268537895369955 [Eh]
	 Correlation Energy        =      -0.3085065477799551 [Eh]
	 Total Energy              =     -99.7593587409824067 [Eh]
	 SCS Total Energy          =     -99.7502943267278255 [Eh]
                               Psi4 1.9 release
    Molecular point group: c1

    Geometry (in Bohr), charge = -1, multiplicity = 1:

       Center              X                  Y                   Z               Mass
    ------------   -----------------  -----------------  -----------------  -----------------
         K            0.000000000000     0.000000000000     0.000000000000    38.963706486400
         F            0.000000000000     4.110494473573     0.000000000000    18.998403162730
         F            4.110494473573     0.000000000000     0.000000000000    18.998403162730

  Charge       = -1
  Multiplicity = 1
  Basis Set: AUG-CC-PVTZ
    Blend: AUG-CC-PVTZ
  Basis Set: (AUG-CC-PVTZ AUX)
    Blend: AUG-CC-PVTZ-JKFIT + DEF2-UNIVERSAL-JKFIT

    Orbital Energies [Eh]
    ---------------------

    Doubly Occupied:

       1A   -133.244391     2A    -25.885875     3A    -25.885873
       4A    -14.203636     5A    -11.233303     6A    -11.233090
       7A    -11.232991     8A     -1.475724     9A     -1.148572
      10A     -1.147358    11A     -0.690463    12A     -0.682188
      13A     -0.681593    14A     -0.253516    15A     -0.247457
      16A     -0.247293    17A     -0.246927    18A     -0.244467
      19A     -0.236805

  @DF-RHF Final Energy:  -798.17326420037352

   => Energetics <=

    Nuclear Repulsion Energy =             97.1356735407576792
    One-Electron Energy =               -1310.1748294303645253
    Two-Electron Energy =                 414.8658916892334787
    Total Energy =                       -798.1732642003735236
 Dipole X            :        -40.5243304           36.9944503           -3.5298802
 Dipole Y            :        -40.5243304           36.9944503           -3.5298802
 Dipole Z            :          0.0000000            0.0000000            0.0000000
 Magnitude           :                                                    4.9920044
  Basis Set: (AUG-CC-PVTZ AUX)
    Blend: AUG-CC-PVTZ-RI + DEF2-QZVPP-RI
	 Reference Energy          =    -798.1732642003735236 [Eh]
	 Singles Energy            =      -0.0000000000000000 [Eh]
	 Same-Spin Energy          =      -0.1959016192073272 [Eh]
	 Opposite-Spin Energy      =      -0.5243395193524399 [Eh]
	 Correlation Energy        =      -0.7202411385597671 [Eh]
	 Total Energy              =    -798.8935053389333234 [Eh]

	 ================> DF-SCS-MP2 Energies <==================
	-----------------------------------------------------------
	 SCS Same-Spin Scale       =       0.3333333333333333 [-]
	 SCS Opposite-Spin Scale   =       1.2000000000000000 [-]
	 SCS Same-Spin Energy      =      -0.0653005397357757 [Eh]
	 SCS Opposite-Spin Energy  =      -0.6292074232229279 [Eh]
	 SCS Correlation Energy    =      -0.6945079629587037 [Eh]
	 SCS Total Energy          =    -798.8677721633322335 [Eh]
	-----------------------------------------------------------

*** Psi4 exiting successfully. Buy a developer a beer!
