                               Psi4 1.9 release

  ==> Input File <==

--------------------------------------------------------------------------
MEMORY 60 GB

molecule dimer {
-1 1
Gh(K)      0.000000     0.000000     0.000000
Gh(F)      0.000000     2.175180     0.000000
F          3.045252     0.000000     0.000000

units ang
no_reorient
no_com
symmetry c1
}

set {
basis        aug-cc-pVTZ
scf_type     df
}

energy("mp2")
--------------------------------------------------------------------------

    Molecular point group: c1

    Geometry (in Angstrom), charge = -1, multiplicity = 1:

       Center              X                  Y                   Z               Mass
    ------------   -----------------  -----------------  -----------------  -----------------
      Gh(K)           0.000000000000     0.000000000000     0.000000000000    38.963706486400
      Gh(F)           0.000000000000     2.175180000000     0.000000000000    18.998403162730
         F            3.045252000000     0.000000000000     0.000000000000    18.998403162730

  Charge       = -1
  Multiplicity = 1
  Basis Set: AUG-CC-PVTZ
    Blend: AUG-CC-PVTZ
  Basis Set: (AUG-CC-PVTZ AUX)
    Blend: AUG-CC-PVTZ-JKFIT + DEF2-UNIVERSAL-JKFIT

    Orbital Energies [Eh]
    ---------------------

    Doubly Occupied:

       1A    -25.833893     2A     -1.076115     3A     -0.181042
       4A     -0.181037     5A     -0.181037

  @DF-RHF Final Energy:   -99.45082849126190

   => Energetics <=

    Nuclear Repulsion Energy =              0.0000000000000000
    One-Electron Energy =                -143.9954086825213722
    Two-Electron Energy =                  44.5445801912594703
    Total Energy =                        -99.4508284912619018
 Dipole X            :        -57.5467314           51.7922304           -5.7545010
 Dipole Y            :         -0.0001299            0.0000000           -0.0001299
 Dipole Z            :          0.0000000            0.0000000            0.0000000
 Magnitude           :                                                    5.7545010
  Basis Set: (AUG-CC-PVTZ AUX)
    Blend: AUG-CC-PVTZ-RI + DEF2-QZVPP-RI
	 Reference Energy          =     -99.4508284912619018 [Eh]
	 Singles Energy            =      -0.0000000000000000 [Eh]
	 Same-Spin Energy          =      -0.0816214139584717 [Eh]
	 Opposite-Spin Energy      =      -0.2266408140951226 [Eh]
	 Correlation Energy        =      -0.3082622280535943 [Eh]
	 Total Energy              =     -99.7590907193154948 [Eh]

	 ================> DF-SCS-MP2 Energies <==================
	-----------------------------------------------------------
	 SCS Same-Spin Scale       =       0.3333333333333333 [-]
	 SCS Opposite-Spin Scale   =       1.2000000000000000 [-]
	 SCS Same-Spin Energy      =      -0.0272071379861572 [Eh]
	 SCS Opposite-Spin Energy  =      -0.2719689769141471 [Eh]
	 SCS Correlation Energy    =      -0.2991761149003043 [Eh]
	 SCS Total Energy          =     -99.7500046061622072 [Eh]
	-----------------------------------------------------------

*** Psi4 exiting successfully. Buy a developer a beer!
