                               Psi4 1.9 release

  ==> Input File <==

--------------------------------------------------------------------------
MEMORY 60 GB

molecule dimer {
-1 1
Gh(K)      0.000000     0.000000     0.000000
F          0.000000     2.175180     0.000000
Gh(F)      3.045252     0.000000     0.000000

units ang
no_reorient
no_com
symmetry c1
}

set {
basis        aug-cc-pVTZ
scf_type     df
}

energy("mp2")
--------------------------------------------------------------------------

    Molecular point group: c1

    Geometry (in Angstrom), charge = -1, multiplicity = 1:

       Center              X                  Y                   Z               Mass
    ------------   -----------------  -----------------  -----------------  -----------------
      Gh(K)           0.000000000000     0.000000000000     0.000000000000    38.963706486400
         F            0.000000000000     2.175180000000     0.000000000000    18.998403162730
      Gh(F)           3.045252000000     0.000000000000     0.000000000000    18.998403162730

  Charge       = -1
  Multiplicity = 1
  Basis Set: AUG-CC-PVTZ
    Blend: AUG-CC-PVTZ
  Basis Set: (AUG-CC-PVTZ AUX)
    Blend: AUG-CC-PVTZ-JKFIT + DEF2-UNIVERSAL-JKFIT

    Orbital Energies [Eh]
    ---------------------

    Doubly Occupied:

       1A    -25.833883     2A     -1.076109     3A     -0.181059
       4A     -0.181024     5A     -0.181023

  @DF-RHF Final Energy:   -99.45084365158070

   => Energetics <=

    Nuclear Repulsion Energy =              0.0000000000000000
    One-Electron Energy =                -143.9954894451051644
    Two-Electron Energy =                  44.5446457935244666
    Total Energy =                        -99.4508436515806977
 Dipole X            :         -0.0001329            0.0000000           -0.0001329
 Dipole Y            :        -41.1046393           36.9944503           -4.1101890
 Dipole Z            :         -0.0000000            0.0000000           -0.0000000
 Magnitude           :                                                    4.1101890
  Basis Set: (AUG-CC-PVTZ AUX)
    Blend: AUG-CC-PVTZ-RI + DEF2-QZVPP-RI
	 Reference Energy          =     -99.4508436515806977 [Eh]
	 Singles Energy            =      -0.0000000000000000 [Eh]
	 Same-Spin Energy          =      -0.0816493798819790 [Eh]
	 Opposite-Spin Energy      =      -0.2268010988904567 [Eh]
	 Correlation Energy        =      -0.3084504787724357 [Eh]
	 Total Energy              =     -99.7592941303531404 [Eh]

	 ================> DF-SCS-MP2 Energies <==================
	-----------------------------------------------------------
	 SCS Same-Spin Scale       =       0.3333333333333333 [-]
	 SCS Opposite-Spin Scale   =       1.2000000000000000 [-]
	 SCS Same-Spin Energy      =      -0.0272164599606597 [Eh]
	 SCS Opposite-Spin Energy  =      -0.2721613186685480 [Eh]
	 SCS Correlation Energy    =      -0.2993777786292077 [Eh]
	 SCS Total Energy          =     -99.7502214302099048 [Eh]
	-----------------------------------------------------------

*** Psi4 exiting successfully. Buy a developer a beer!
