                               Psi4 1.9 release

  ==> Input File <==

--------------------------------------------------------------------------
MEMORY 60 GB

molecule dimer {
1 1
K      0.000000     0.000000     0.000000
--
-1 1
F      0.000000     2.175180     0.000000
--
-1 1
F      3.262770     0.000000     0.000000

units ang
no_reorient
no_com
symmetry c1
}

set {
basis        aug-cc-pVTZ
scf_type     df
}

energy("mp2", bsse_type="cp")
--------------------------------------------------------------------------

                               Psi4 1.9 release
    Molecular point group: c1
  Charge       = 1
  Multiplicity = 1
  Basis Set: AUG-CC-PVTZ
    Blend: AUG-CC-PVTZ
  Basis Set: (AUG-CC-PVTZ AUX)
    Blend: AUG-CC-PVTZ-JKFIT + DEF2-UNIVERSAL-JKFIT
  @DF-RHF Final Energy:  -599.01750868850388
    Total Energy =                       -599.0175086885039946
 Dipole X            :          0.0001467            0.0000000            0.0001467
 Dipole Y            :          0.0004120            0.0000000            0.0004120
 Dipole Z            :          0.0000000            0.0000000            0.0000000
 Magnitude           :                                                    0.0004374
  Basis Set: (AUG-CC-PVTZ AUX)
    Blend: AUG-CC-PVTZ-RI + DEF2-QZVPP-RI
	 Reference Energy          =    -599.0175086885038809 [Eh]
	 Singles Energy            =      -0.0000000000000000 [Eh]
	 Same-Spin Energy          =      -0.0280187805455766 [Eh]
	 Opposite-Spin Energy      =      -0.0660012148245193 [Eh]
	 Correlation Energy        =      -0.0940199953700959 [Eh]
	 Total Energy              =    -599.1115286838739848 [Eh]
	 SCS Total Energy          =    -599.1060497398084408 [Eh]
                               Psi4 1.9 release
    Molecular point group: c1
  Basis Set: AUG-CC-PVTZ
    Blend: AUG-CC-PVTZ
  Basis Set: (AUG-CC-PVTZ AUX)
    Blend: AUG-CC-PVTZ-JKFIT + DEF2-UNIVERSAL-JKFIT
  @DF-RHF Final Energy:   -99.45084343717768
    Total Energy =                        -99.4508434371776957
  Basis Set: (AUG-CC-PVTZ AUX)
                               Psi4 1.9 release
  @DF-RHF Final Energy:  -198.76994979238029
    Total Energy =                       -198.7699497923803165
                               Psi4 1.9 release
  @DF-RHF Final Energy:  -698.63425216093424
    Total Energy =                       -698.6342521609342384
                               Psi4 1.9 release
  @DF-RHF Final Energy:  -698.68415214663105
    Total Energy =                       -698.6841521466310496
                               Psi4 1.9 release
  Multiplicity = 1
  @DF-RHF Final Energy:   -99.45082660605823
    Total Energy =                        -99.4508266060582287
	 Singles Energy            =      -0.0000000000000000 [Eh]
	 Same-Spin Energy          =      -0.0816146533077938 [Eh]
	 Opposite-Spin Energy      =      -0.2265890646369125 [Eh]
	 Correlation Energy        =      -0.3082037179447063 [Eh]
	 Total Energy              =     -99.7590303240029357 [Eh]
	 SCS Total Energy          =     -99.7499383680584515 [Eh]
                               Psi4 1.9 release
    Molecular point group: c1

    Geometry (in Bohr), charge = -1, multiplicity = 1:

       Center              X                  Y                   Z               Mass
    ------------   -----------------  -----------------  -----------------  -----------------
         K            0.000000000000     0.000000000000     0.000000000000    38.963706486400
         F            0.000000000000     4.110494473573     0.000000000000    18.998403162730
         F            6.165741710360     0.000000000000     0.000000000000    18.998403162730

  Charge       = -1
  Multiplicity = 1
  Basis Set: AUG-CC-PVTZ
    Blend: AUG-CC-PVTZ
  Basis Set: (AUG-CC-PVTZ AUX)
    Blend: AUG-CC-PVTZ-JKFIT + DEF2-UNIVERSAL-JKFIT

    Orbital Energies [Eh]
    ---------------------

    Doubly Occupied:

       1A   -133.329825     2A    -25.921515     3A    -25.862206
       4A    -14.287250     5A    -11.317154     6A    -11.316971
       7A    -11.316878     8A     -1.551358     9A     -1.184358
      10A     -1.105161    11A     -0.764210    12A     -0.758688
      13A     -0.754308    14A     -0.284753    15A     -0.281269
      16A     -0.280807    17A     -0.211090    18A     -0.209843
      19A     -0.209652

  @DF-RHF Final Energy:  -798.16212342749191

   => Energetics <=

    Nuclear Repulsion Energy =             80.2654566294614966
    One-Electron Energy =               -1274.9605651048689197
    Two-Electron Energy =                 396.5329850479154175
    Total Energy =                       -798.1621234274919061
 Dipole X            :        -61.3312765           55.4916754           -5.8396011
 Dipole Y            :        -40.4876105           36.9944503           -3.4931603
 Dipole Z            :         -0.0000000            0.0000000           -0.0000000
 Magnitude           :                                                    6.8046388
  Basis Set: (AUG-CC-PVTZ AUX)
    Blend: AUG-CC-PVTZ-RI + DEF2-QZVPP-RI
	 Reference Energy          =    -798.1621234274919061 [Eh]
	 Singles Energy            =      -0.0000000000000000 [Eh]
	 Same-Spin Energy          =      -0.1925062650984244 [Eh]
	 Opposite-Spin Energy      =      -0.5184656603990958 [Eh]
	 Correlation Energy        =      -0.7109719254975202 [Eh]
	 Total Energy              =    -798.8730953529894805 [Eh]

	 ================> DF-SCS-MP2 Energies <==================
	-----------------------------------------------------------
	 SCS Same-Spin Scale       =       0.3333333333333333 [-]
	 SCS Opposite-Spin Scale   =       1.2000000000000000 [-]
	 SCS Same-Spin Energy      =      -0.0641687550328081 [Eh]
	 SCS Opposite-Spin Energy  =      -0.6221587924789149 [Eh]
	 SCS Correlation Energy    =      -0.6863275475117230 [Eh]
	 SCS Total Energy          =    -798.8484509750036295 [Eh]
	-----------------------------------------------------------

*** Psi4 exiting successfully. Buy a developer a beer!
