                               Psi4 1.9 release

  ==> Input File <==

--------------------------------------------------------------------------
MEMORY 60 GB

molecule dimer {
-1 1
Gh(K)      0.000000     0.000000     0.000000
Gh(F)      0.000000     2.175180     0.000000
F          3.262770     0.000000     0.000000

units ang
no_reorient
no_com
symmetry c1
}

set {
basis        aug-cc-pVTZ
scf_type     df
}

energy("mp2")
--------------------------------------------------------------------------

    Molecular point group: c1

    Geometry (in Angstrom), charge = -1, multiplicity = 1:

       Center              X                  Y                   Z               Mass
    ------------   -----------------  -----------------  -----------------  -----------------
      Gh(K)           0.000000000000     0.000000000000     0.000000000000    38.963706486400
      Gh(F)           0.000000000000     2.175180000000     0.000000000000    18.998403162730
         F            3.262770000000     0.000000000000     0.000000000000    18.998403162730

  Charge       = -1
  Multiplicity = 1
  Basis Set: AUG-CC-PVTZ
    Blend: AUG-CC-PVTZ
  Basis Set: (AUG-CC-PVTZ AUX)
    Blend: AUG-CC-PVTZ-JKFIT + DEF2-UNIVERSAL-JKFIT

    Orbital Energies [Eh]
    ---------------------

    Doubly Occupied:

       1A    -25.833888     2A     -1.076116     3A     -0.181040
       4A     -0.181038     5A     -0.181038

  @DF-RHF Final Energy:   -99.45082660605826

   => Energetics <=

    Nuclear Repulsion Energy =              0.0000000000000000
    One-Electron Energy =                -143.9954133177910194
    Two-Electron Energy =                  44.5445867117327694
    Total Energy =                        -99.4508266060582571
 Dipole X            :        -61.6571630           55.4916754           -6.1654876
 Dipole Y            :         -0.0001857            0.0000000           -0.0001857
 Dipole Z            :          0.0000000            0.0000000            0.0000000
 Magnitude           :                                                    6.1654876
  Basis Set: (AUG-CC-PVTZ AUX)
    Blend: AUG-CC-PVTZ-RI + DEF2-QZVPP-RI
	 Reference Energy          =     -99.4508266060582571 [Eh]
	 Singles Energy            =      -0.0000000000000000 [Eh]
	 Same-Spin Energy          =      -0.0816146533077951 [Eh]
	 Opposite-Spin Energy      =      -0.2265890646369154 [Eh]
	 Correlation Energy        =      -0.3082037179447105 [Eh]
	 Total Energy              =     -99.7590303240029641 [Eh]

	 ================> DF-SCS-MP2 Energies <==================
	-----------------------------------------------------------
	 SCS Same-Spin Scale       =       0.3333333333333333 [-]
	 SCS Opposite-Spin Scale   =       1.2000000000000000 [-]
	 SCS Same-Spin Energy      =      -0.0272048844359317 [Eh]
	 SCS Opposite-Spin Energy  =      -0.2719068775642984 [Eh]
	 SCS Correlation Energy    =      -0.2991117620002302 [Eh]
	 SCS Total Energy          =     -99.7499383680584941 [Eh]
	-----------------------------------------------------------

*** Psi4 exiting successfully. Buy a developer a beer!
