                               Psi4 1.9 release

  ==> Input File <==

--------------------------------------------------------------------------
MEMORY 60 GB

molecule dimer {
0 1
K      0.000000     0.000000     0.000000
F      0.000000     2.175180     0.000000
--
-1 1
F      4.350360     0.000000     0.000000

units ang
no_reorient
no_com
symmetry c1
}

set {
basis        aug-cc-pVTZ
scf_type     df
}

energy("mp2", bsse_type="cp")
--------------------------------------------------------------------------

                               Psi4 1.9 release
    Molecular point group: c1
  Charge       = -1
  Multiplicity = 1
  Basis Set: AUG-CC-PVTZ
    Blend: AUG-CC-PVTZ
  Basis Set: (AUG-CC-PVTZ AUX)
    Blend: AUG-CC-PVTZ-JKFIT + DEF2-UNIVERSAL-JKFIT
  @DF-RHF Final Energy:   -99.45081975462132
    Total Energy =                        -99.4508197546213211
 Dipole X            :        -82.2103493           73.9889005           -8.2214488
 Dipole Y            :          0.0000705            0.0000000            0.0000705
 Dipole Z            :         -0.0000000            0.0000000           -0.0000000
 Magnitude           :                                                    8.2214488
  Basis Set: (AUG-CC-PVTZ AUX)
    Blend: AUG-CC-PVTZ-RI + DEF2-QZVPP-RI
	 Reference Energy          =     -99.4508197546213211 [Eh]
	 Singles Energy            =      -0.0000000000000000 [Eh]
	 Same-Spin Energy          =      -0.0815902286817730 [Eh]
	 Opposite-Spin Energy      =      -0.2263984599653987 [Eh]
	 Correlation Energy        =      -0.3079886886471717 [Eh]
	 Total Energy              =     -99.7588084432684923 [Eh]
	 SCS Total Energy          =     -99.7496946494737244 [Eh]
                               Psi4 1.9 release
    Molecular point group: c1
  Multiplicity = 1
  Basis Set: AUG-CC-PVTZ
    Blend: AUG-CC-PVTZ
  Basis Set: (AUG-CC-PVTZ AUX)
    Blend: AUG-CC-PVTZ-JKFIT + DEF2-UNIVERSAL-JKFIT
  @DF-RHF Final Energy:  -698.68413958890369
    Total Energy =                       -698.6841395889036903
  Basis Set: (AUG-CC-PVTZ AUX)
	 Singles Energy            =      -0.0000000000000000 [Eh]
	 Same-Spin Energy          =      -0.1103155660457485 [Eh]
	 Opposite-Spin Energy      =      -0.2908765424477272 [Eh]
	 Correlation Energy        =      -0.4011921084934756 [Eh]
	 Total Energy              =    -699.0853316973971232 [Eh]
	 SCS Total Energy          =    -699.0699632951894955 [Eh]
                               Psi4 1.9 release
    Molecular point group: c1

    Geometry (in Bohr), charge = -1, multiplicity = 1:

       Center              X                  Y                   Z               Mass
    ------------   -----------------  -----------------  -----------------  -----------------
         K            0.000000000000     0.000000000000     0.000000000000    38.963706486400
         F            0.000000000000     4.110494473573     0.000000000000    18.998403162730
         F            8.220988947147     0.000000000000     0.000000000000    18.998403162730

  Charge       = -1
  Multiplicity = 1
  Basis Set: AUG-CC-PVTZ
    Blend: AUG-CC-PVTZ
  Basis Set: (AUG-CC-PVTZ AUX)
    Blend: AUG-CC-PVTZ-JKFIT + DEF2-UNIVERSAL-JKFIT

    Orbital Energies [Eh]
    ---------------------

    Doubly Occupied:

       1A   -133.369677     2A    -25.947884     3A    -25.847715
       4A    -14.327159     5A    -11.357038     6A    -11.356960
       7A    -11.356762     8A     -1.591314     9A     -1.211016
      10A     -1.089918    11A     -0.803231    12A     -0.800800
      13A     -0.792840    14A     -0.311511    15A     -0.307567
      16A     -0.307267    17A     -0.194956    18A     -0.194873
      19A     -0.194601

  @DF-RHF Final Energy:  -798.14763043636572

   => Energetics <=

    Nuclear Repulsion Energy =             71.2138899875527329
    One-Electron Energy =               -1255.9968650942130353
    Two-Electron Energy =                 386.6353446702946144
    Total Energy =                       -798.1476304363657164
 Dipole X            :        -82.0213774           73.9889005           -8.0324769
 Dipole Y            :        -40.4836809           36.9944503           -3.4892306
 Dipole Z            :          0.0000000            0.0000000            0.0000000
 Magnitude           :                                                    8.7575918
  Basis Set: (AUG-CC-PVTZ AUX)
    Blend: AUG-CC-PVTZ-RI + DEF2-QZVPP-RI
	 Reference Energy          =    -798.1476304363657164 [Eh]
	 Singles Energy            =      -0.0000000000000000 [Eh]
	 Same-Spin Energy          =      -0.1920146511649150 [Eh]
	 Opposite-Spin Energy      =      -0.5174453119573830 [Eh]
	 Correlation Energy        =      -0.7094599631222980 [Eh]
	 Total Energy              =    -798.8570903994880155 [Eh]

	 ================> DF-SCS-MP2 Energies <==================
	-----------------------------------------------------------
	 SCS Same-Spin Scale       =       0.3333333333333333 [-]
	 SCS Opposite-Spin Scale   =       1.2000000000000000 [-]
	 SCS Same-Spin Energy      =      -0.0640048837216383 [Eh]
	 SCS Opposite-Spin Energy  =      -0.6209343743488596 [Eh]
	 SCS Correlation Energy    =      -0.6849392580704979 [Eh]
	 SCS Total Energy          =    -798.8325696944361880 [Eh]
	-----------------------------------------------------------

*** Psi4 exiting successfully. Buy a developer a beer!
