                               Psi4 1.9 release

  ==> Input File <==

--------------------------------------------------------------------------
MEMORY 60 GB

molecule dimer {
1 1
Gh(Cl)     0.000000     0.000000     0.000000
Gh(K)      0.000000     2.633546     0.000000
K          3.423610     0.000000     0.000000

units ang
no_reorient
no_com
symmetry c1
}

set {
basis        aug-cc-pVTZ
scf_type     df
}

energy("mp2")
--------------------------------------------------------------------------

    Molecular point group: c1

    Geometry (in Angstrom), charge = 1, multiplicity = 1:

       Center              X                  Y                   Z               Mass
    ------------   -----------------  -----------------  -----------------  -----------------
      Gh(CL)          0.000000000000     0.000000000000     0.000000000000    34.968852682000
      Gh(K)           0.000000000000     2.633546000000     0.000000000000    38.963706486400
         K            3.423610000000     0.000000000000     0.000000000000    38.963706486400

  Charge       = 1
  Multiplicity = 1
  Basis Set: AUG-CC-PVTZ
    Blend: AUG-CC-PVTZ
  Basis Set: (AUG-CC-PVTZ AUX)
    Blend: AUG-CC-PVTZ-JKFIT + DEF2-UNIVERSAL-JKFIT

    Orbital Energies [Eh]
    ---------------------

    Doubly Occupied:

       1A   -133.753615     2A    -14.709096     3A    -11.739161
       4A    -11.739157     5A    -11.739156     6A     -1.964317
       7A     -1.170939     8A     -1.170903     9A     -1.170895

  @DF-RHF Final Energy:  -599.01750818020821

   => Energetics <=

    Nuclear Repulsion Energy =              0.0000000000000000
    One-Electron Energy =                -819.7205395274435205
    Two-Electron Energy =                 220.7030313472352532
    Total Energy =                       -599.0175081802083241
 Dipole X            :       -116.4547002          122.9240199            6.4693198
 Dipole Y            :          0.0001189            0.0000000            0.0001189
 Dipole Z            :          0.0000000            0.0000000            0.0000000
 Magnitude           :                                                    6.4693198
  Basis Set: (AUG-CC-PVTZ AUX)
    Blend: AUG-CC-PVTZ-RI + DEF2-QZVPP-RI
	 Reference Energy          =    -599.0175081802082104 [Eh]
	 Singles Energy            =      -0.0000000000000000 [Eh]
	 Same-Spin Energy          =      -0.0276811019032790 [Eh]
	 Opposite-Spin Energy      =      -0.0644066598103987 [Eh]
	 Correlation Energy        =      -0.0920877617136777 [Eh]
	 Total Energy              =    -599.1095959419218389 [Eh]

	 ================> DF-SCS-MP2 Energies <==================
	-----------------------------------------------------------
	 SCS Same-Spin Scale       =       0.3333333333333333 [-]
	 SCS Opposite-Spin Scale   =       1.2000000000000000 [-]
	 SCS Same-Spin Energy      =      -0.0092270339677597 [Eh]
	 SCS Opposite-Spin Energy  =      -0.0772879917724784 [Eh]
	 SCS Correlation Energy    =      -0.0865150257402381 [Eh]
	 SCS Total Energy          =    -599.1040232059484651 [Eh]
	-----------------------------------------------------------

*** Psi4 exiting successfully. Buy a developer a beer!
