                               Psi4 1.9 release

  ==> Input File <==

--------------------------------------------------------------------------
MEMORY 60 GB

molecule dimer {
-1 1
Cl     0.000000     0.000000     0.000000
--
1 1
K      0.000000     2.633546     0.000000
--
1 1
K      3.686964     0.000000     0.000000

units ang
no_reorient
no_com
symmetry c1
}

set {
basis        aug-cc-pVTZ
scf_type     df
}

energy("mp2", bsse_type="cp")
--------------------------------------------------------------------------

                               Psi4 1.9 release
    Molecular point group: c1
  Charge       = -1
  Multiplicity = 1
  Basis Set: AUG-CC-PVTZ
    Blend: AUG-CC-PVTZ
  Basis Set: (AUG-CC-PVTZ AUX)
    Blend: AUG-CC-PVTZ-JKFIT + DEF2-UNIVERSAL-JKFIT
  @DF-RHF Final Energy:  -459.57350526557394
    Total Energy =                       -459.5735052655738855
 Dipole X            :          0.0001794            0.0000000            0.0001794
 Dipole Y            :          0.0005087            0.0000000            0.0005087
 Dipole Z            :         -0.0000000            0.0000000           -0.0000000
 Magnitude           :                                                    0.0005394
  Basis Set: (AUG-CC-PVTZ AUX)
    Blend: AUG-CC-PVTZ-RI + DEF2-QZVPP-RI
	 Reference Energy          =    -459.5735052655739423 [Eh]
	 Singles Energy            =      -0.0000000000000000 [Eh]
	 Same-Spin Energy          =      -0.0625964904947292 [Eh]
	 Opposite-Spin Energy      =      -0.1797036138345841 [Eh]
	 Correlation Energy        =      -0.2423001043293133 [Eh]
	 Total Energy              =    -459.8158053699032735 [Eh]
	 SCS Total Energy          =    -459.8100150990070460 [Eh]
                               Psi4 1.9 release
    Molecular point group: c1
  Basis Set: AUG-CC-PVTZ
    Blend: AUG-CC-PVTZ
  Basis Set: (AUG-CC-PVTZ AUX)
    Blend: AUG-CC-PVTZ-JKFIT + DEF2-UNIVERSAL-JKFIT
  @DF-RHF Final Energy:  -599.01750901427863
    Total Energy =                       -599.0175090142785166
  Basis Set: (AUG-CC-PVTZ AUX)
                               Psi4 1.9 release
  @DF-RHF Final Energy: -1197.91917750033826
    Total Energy =                      -1197.9191775003382645
                               Psi4 1.9 release
  @DF-RHF Final Energy: -1058.74004846209255
    Total Energy =                      -1058.7400484620925454
                               Psi4 1.9 release
  @DF-RHF Final Energy: -1058.76873768332734
    Total Energy =                      -1058.7687376833273447
                               Psi4 1.9 release
  Multiplicity = 1
  @DF-RHF Final Energy:  -599.01750791025449
    Total Energy =                       -599.0175079102543805
	 Singles Energy            =      -0.0000000000000000 [Eh]
	 Same-Spin Energy          =      -0.0273042314570238 [Eh]
	 Opposite-Spin Energy      =      -0.0634286491153641 [Eh]
	 Correlation Energy        =      -0.0907328805723879 [Eh]
	 Total Energy              =    -599.1082407908269261 [Eh]
	 SCS Total Energy          =    -599.1027236996785632 [Eh]
                               Psi4 1.9 release
    Molecular point group: c1

    Geometry (in Bohr), charge = 1, multiplicity = 1:

       Center              X                  Y                   Z               Mass
    ------------   -----------------  -----------------  -----------------  -----------------
         CL           0.000000000000     0.000000000000     0.000000000000    34.968852682000
         K            0.000000000000     4.976680678795     0.000000000000    38.963706486400
         K            6.967352194422     0.000000000000     0.000000000000    38.963706486400

  Charge       = 1
  Multiplicity = 1
  Basis Set: AUG-CC-PVTZ
    Blend: AUG-CC-PVTZ
  Basis Set: (AUG-CC-PVTZ AUX)
    Blend: AUG-CC-PVTZ-JKFIT + DEF2-UNIVERSAL-JKFIT

    Orbital Energies [Eh]
    ---------------------

    Doubly Occupied:

       1A   -133.716139     2A   -133.641717     3A   -104.830971
       4A    -14.671788     5A    -14.599581     6A    -11.701874
       7A    -11.701842     8A    -11.701742     9A    -11.629353
      10A    -11.629292    11A    -11.629239    12A    -10.556617
      13A     -8.022674    14A     -8.022589    15A     -8.022453
      16A     -1.927582    17A     -1.862770    18A     -1.135766
      19A     -1.134971    20A     -1.132344    21A     -1.100633
      22A     -1.072754    23A     -1.071569    24A     -1.039584
      25A     -0.490130    26A     -0.486483    27A     -0.481571

  @DF-RHF Final Energy: -1657.81507569737119

   => Energetics <=

    Nuclear Repulsion Energy =            153.4238105740042215
    One-Electron Energy =               -2584.4497147421252521
    Two-Electron Energy =                 773.2108284707497887
    Total Energy =                      -1657.8150756973714124
 Dipole X            :       -126.0126397          132.3796917            6.3670520
 Dipole Y            :        -90.4091704           94.5569329            4.1477625
 Dipole Z            :         -0.0000000            0.0000000           -0.0000000
 Magnitude           :                                                    7.5989003
  Basis Set: (AUG-CC-PVTZ AUX)
    Blend: AUG-CC-PVTZ-RI + DEF2-QZVPP-RI
	 Reference Energy          =   -1657.8150756973711850 [Eh]
	 Singles Energy            =      -0.0000000000000000 [Eh]
	 Same-Spin Energy          =      -0.1225925165120143 [Eh]
	 Opposite-Spin Energy      =      -0.3153379693519689 [Eh]
	 Correlation Energy        =      -0.4379304858639832 [Eh]
	 Total Energy              =   -1658.2530061832351294 [Eh]

	 ================> DF-SCS-MP2 Energies <==================
	-----------------------------------------------------------
	 SCS Same-Spin Scale       =       0.3333333333333333 [-]
	 SCS Opposite-Spin Scale   =       1.2000000000000000 [-]
	 SCS Same-Spin Energy      =      -0.0408641721706714 [Eh]
	 SCS Opposite-Spin Energy  =      -0.3784055632223627 [Eh]
	 SCS Correlation Energy    =      -0.4192697353930341 [Eh]
	 SCS Total Energy          =   -1658.2343454327642576 [Eh]
	-----------------------------------------------------------

*** Psi4 exiting successfully. Buy a developer a beer!
