                               Psi4 1.9 release

  ==> Input File <==

--------------------------------------------------------------------------
MEMORY 60 GB

molecule dimer {
1 1
Cl         0.000000     0.000000     0.000000
K          0.000000     2.633546     0.000000
K          2.896901     0.000000     0.000000

units ang
no_reorient
no_com
symmetry c1
}

set {
basis        aug-cc-pVTZ
scf_type     df
}

energy("mp2")
--------------------------------------------------------------------------

    Molecular point group: c1

    Geometry (in Angstrom), charge = 1, multiplicity = 1:

       Center              X                  Y                   Z               Mass
    ------------   -----------------  -----------------  -----------------  -----------------
         CL           0.000000000000     0.000000000000     0.000000000000    34.968852682000
         K            0.000000000000     2.633546000000     0.000000000000    38.963706486400
         K            2.896901000000     0.000000000000     0.000000000000    38.963706486400

  Charge       = 1
  Multiplicity = 1
  Basis Set: AUG-CC-PVTZ
    Blend: AUG-CC-PVTZ
  Basis Set: (AUG-CC-PVTZ AUX)
    Blend: AUG-CC-PVTZ-JKFIT + DEF2-UNIVERSAL-JKFIT

    Orbital Energies [Eh]
    ---------------------

    Doubly Occupied:

       1A   -133.685251     2A   -133.660876     3A   -104.857121
       4A    -14.641923     5A    -14.618747     6A    -11.671893
       7A    -11.671826     8A    -11.671698     9A    -11.648538
      10A    -11.648457    11A    -11.648415    12A    -10.583775
      13A     -8.049836    14A     -8.049759    15A     -8.049606
      16A     -1.901053    17A     -1.881859    18A     -1.134767
      19A     -1.110562    20A     -1.109212    21A     -1.101843
      22A     -1.091737    23A     -1.090283    24A     -1.062061
      25A     -0.522178    26A     -0.520042    27A     -0.512261

  @DF-RHF Final Energy: -1657.82433824005761

   => Energetics <=

    Nuclear Repulsion Energy =            172.6996845564198111
    One-Electron Energy =               -2622.6568896098374353
    Two-Electron Energy =                 792.1328668133600104
    Total Energy =                      -1657.8243382400573864
 Dipole X            :        -99.2792619          104.0126405            4.7333786
 Dipole Y            :        -90.3733912           94.5569329            4.1835417
 Dipole Z            :          0.0000000            0.0000000            0.0000000
 Magnitude           :                                                    6.3171904
  Basis Set: (AUG-CC-PVTZ AUX)
    Blend: AUG-CC-PVTZ-RI + DEF2-QZVPP-RI
	 Reference Energy          =   -1657.8243382400576138 [Eh]
	 Singles Energy            =      -0.0000000000000000 [Eh]
	 Same-Spin Energy          =      -0.1258285855809675 [Eh]
	 Opposite-Spin Energy      =      -0.3218166949622994 [Eh]
	 Correlation Energy        =      -0.4476452805432669 [Eh]
	 Total Energy              =   -1658.2719835206007701 [Eh]

	 ================> DF-SCS-MP2 Energies <==================
	-----------------------------------------------------------
	 SCS Same-Spin Scale       =       0.3333333333333333 [-]
	 SCS Opposite-Spin Scale   =       1.2000000000000000 [-]
	 SCS Same-Spin Energy      =      -0.0419428618603225 [Eh]
	 SCS Opposite-Spin Energy  =      -0.3861800339547593 [Eh]
	 SCS Correlation Energy    =      -0.4281228958150818 [Eh]
	 SCS Total Energy          =   -1658.2524611358726361 [Eh]
	-----------------------------------------------------------

*** Psi4 exiting successfully. Buy a developer a beer!
