                               Psi4 1.9 release

  ==> Input File <==

--------------------------------------------------------------------------
MEMORY 60 GB

molecule dimer {
0 1
Cl     0.000000     0.000000     0.000000
K      0.000000     2.633546     0.000000
--
1 1
K      5.267092     0.000000     0.000000

units ang
no_reorient
no_com
symmetry c1
}

set {
basis        aug-cc-pVTZ
scf_type     df
}

energy("mp2", bsse_type="cp")
--------------------------------------------------------------------------

                               Psi4 1.9 release
    Molecular point group: c1
  Charge       = 1
  Multiplicity = 1
  Basis Set: AUG-CC-PVTZ
    Blend: AUG-CC-PVTZ
  Basis Set: (AUG-CC-PVTZ AUX)
    Blend: AUG-CC-PVTZ-JKFIT + DEF2-UNIVERSAL-JKFIT
  @DF-RHF Final Energy:  -599.01750647935648
    Total Energy =                       -599.0175064793564843
 Dipole X            :       -179.1605523          189.1138658            9.9533135
 Dipole Y            :          0.0000223            0.0000000            0.0000223
 Dipole Z            :         -0.0000000            0.0000000           -0.0000000
 Magnitude           :                                                    9.9533135
  Basis Set: (AUG-CC-PVTZ AUX)
    Blend: AUG-CC-PVTZ-RI + DEF2-QZVPP-RI
	 Reference Energy          =    -599.0175064793564843 [Eh]
	 Singles Energy            =      -0.0000000000000000 [Eh]
	 Same-Spin Energy          =      -0.0260641845748858 [Eh]
	 Opposite-Spin Energy      =      -0.0599835425865538 [Eh]
	 Correlation Energy        =      -0.0860477271614396 [Eh]
	 Total Energy              =    -599.1035542065179698 [Eh]
	 SCS Total Energy          =    -599.0981747919853433 [Eh]
                               Psi4 1.9 release
    Molecular point group: c1
  Multiplicity = 1
  Basis Set: AUG-CC-PVTZ
    Blend: AUG-CC-PVTZ
  Basis Set: (AUG-CC-PVTZ AUX)
    Blend: AUG-CC-PVTZ-JKFIT + DEF2-UNIVERSAL-JKFIT
  @DF-RHF Final Energy: -1058.76870010471589
    Total Energy =                      -1058.7687001047158901
  Basis Set: (AUG-CC-PVTZ AUX)
	 Singles Energy            =      -0.0000000000000000 [Eh]
	 Same-Spin Energy          =      -0.0938222291922399 [Eh]
	 Opposite-Spin Energy      =      -0.2487288232901479 [Eh]
	 Correlation Energy        =      -0.3425510524823878 [Eh]
	 Total Energy              =   -1059.1112511571982395 [Eh]
	 SCS Total Energy          =   -1059.0984487690614060 [Eh]
                               Psi4 1.9 release
    Molecular point group: c1

    Geometry (in Bohr), charge = 1, multiplicity = 1:

       Center              X                  Y                   Z               Mass
    ------------   -----------------  -----------------  -----------------  -----------------
         CL           0.000000000000     0.000000000000     0.000000000000    34.968852682000
         K            0.000000000000     4.976680678795     0.000000000000    38.963706486400
         K            9.953361357590     0.000000000000     0.000000000000    38.963706486400

  Charge       = 1
  Multiplicity = 1
  Basis Set: AUG-CC-PVTZ
    Blend: AUG-CC-PVTZ
  Basis Set: (AUG-CC-PVTZ AUX)
    Blend: AUG-CC-PVTZ-JKFIT + DEF2-UNIVERSAL-JKFIT

    Orbital Energies [Eh]
    ---------------------

    Doubly Occupied:

       1A   -133.741045     2A   -133.613006     3A   -104.787542
       4A    -14.696471     5A    -14.570899     6A    -11.726548
       7A    -11.726536     8A    -11.726511     9A    -11.600638
      10A    -11.600605    11A    -11.600545    12A    -10.513271
      13A     -7.979359    14A     -7.979220    15A     -7.979151
      16A     -1.951572    17A     -1.834267    18A     -1.158577
      19A     -1.158302    20A     -1.157555    21A     -1.065427
      22A     -1.044138    23A     -1.043460    24A     -1.002915
      25A     -0.448240    26A     -0.440726    27A     -0.439444

  @DF-RHF Final Energy: -1657.79733072743238

   => Energetics <=

    Nuclear Repulsion Energy =            129.7941639550584512
    One-Electron Energy =               -2538.0110522627928731
    Two-Electron Energy =                 750.4195575803018983
    Total Energy =                      -1657.7973307274323815
 Dipole X            :       -179.4728128          189.1138658            9.6410530
 Dipole Y            :        -90.4365048           94.5569329            4.1204281
 Dipole Z            :         -0.0000000            0.0000000           -0.0000000
 Magnitude           :                                                   10.4846474
  Basis Set: (AUG-CC-PVTZ AUX)
    Blend: AUG-CC-PVTZ-RI + DEF2-QZVPP-RI
	 Reference Energy          =   -1657.7973307274323815 [Eh]
	 Singles Energy            =      -0.0000000000000000 [Eh]
	 Same-Spin Energy          =      -0.1199858080632479 [Eh]
	 Opposite-Spin Energy      =      -0.3089306970878642 [Eh]
	 Correlation Energy        =      -0.4289165051511121 [Eh]
	 Total Energy              =   -1658.2262472325835461 [Eh]

	 ================> DF-SCS-MP2 Energies <==================
	-----------------------------------------------------------
	 SCS Same-Spin Scale       =       0.3333333333333333 [-]
	 SCS Opposite-Spin Scale   =       1.2000000000000000 [-]
	 SCS Same-Spin Energy      =      -0.0399952693544159 [Eh]
	 SCS Opposite-Spin Energy  =      -0.3707168365054371 [Eh]
	 SCS Correlation Energy    =      -0.4107121058598530 [Eh]
	 SCS Total Energy          =   -1658.2080428332922111 [Eh]
	-----------------------------------------------------------

*** Psi4 exiting successfully. Buy a developer a beer!
