                               Psi4 1.9 release

  ==> Input File <==

--------------------------------------------------------------------------
MEMORY 60 GB

molecule dimer {
1 1
Cl         0.000000     0.000000     0.000000
K          0.000000     2.633546     0.000000
K          5.267092     0.000000     0.000000

units ang
no_reorient
no_com
symmetry c1
}

set {
basis        aug-cc-pVTZ
scf_type     df
}

energy("mp2")
--------------------------------------------------------------------------

    Molecular point group: c1

    Geometry (in Angstrom), charge = 1, multiplicity = 1:

       Center              X                  Y                   Z               Mass
    ------------   -----------------  -----------------  -----------------  -----------------
         CL           0.000000000000     0.000000000000     0.000000000000    34.968852682000
         K            0.000000000000     2.633546000000     0.000000000000    38.963706486400
         K            5.267092000000     0.000000000000     0.000000000000    38.963706486400

  Charge       = 1
  Multiplicity = 1
  Basis Set: AUG-CC-PVTZ
    Blend: AUG-CC-PVTZ
  Basis Set: (AUG-CC-PVTZ AUX)
    Blend: AUG-CC-PVTZ-JKFIT + DEF2-UNIVERSAL-JKFIT

    Orbital Energies [Eh]
    ---------------------

    Doubly Occupied:

       1A   -133.741045     2A   -133.613006     3A   -104.787542
       4A    -14.696471     5A    -14.570899     6A    -11.726548
       7A    -11.726536     8A    -11.726511     9A    -11.600638
      10A    -11.600605    11A    -11.600545    12A    -10.513271
      13A     -7.979359    14A     -7.979220    15A     -7.979151
      16A     -1.951572    17A     -1.834267    18A     -1.158577
      19A     -1.158302    20A     -1.157555    21A     -1.065427
      22A     -1.044138    23A     -1.043460    24A     -1.002915
      25A     -0.448240    26A     -0.440726    27A     -0.439444

  @DF-RHF Final Energy: -1657.79733072743306

   => Energetics <=

    Nuclear Repulsion Energy =            129.7941639550584512
    One-Electron Energy =               -2538.0110522679383394
    Two-Electron Energy =                 750.4195575854466824
    Total Energy =                      -1657.7973307274330637
 Dipole X            :       -179.4728128          189.1138658            9.6410530
 Dipole Y            :        -90.4365048           94.5569329            4.1204281
 Dipole Z            :         -0.0000000            0.0000000           -0.0000000
 Magnitude           :                                                   10.4846474
  Basis Set: (AUG-CC-PVTZ AUX)
    Blend: AUG-CC-PVTZ-RI + DEF2-QZVPP-RI
	 Reference Energy          =   -1657.7973307274330637 [Eh]
	 Singles Energy            =      -0.0000000000000000 [Eh]
	 Same-Spin Energy          =      -0.1199858080567864 [Eh]
	 Opposite-Spin Energy      =      -0.3089306970764387 [Eh]
	 Correlation Energy        =      -0.4289165051332251 [Eh]
	 Total Energy              =   -1658.2262472325662657 [Eh]

	 ================> DF-SCS-MP2 Energies <==================
	-----------------------------------------------------------
	 SCS Same-Spin Scale       =       0.3333333333333333 [-]
	 SCS Opposite-Spin Scale   =       1.2000000000000000 [-]
	 SCS Same-Spin Energy      =      -0.0399952693522621 [Eh]
	 SCS Opposite-Spin Energy  =      -0.3707168364917264 [Eh]
	 SCS Correlation Energy    =      -0.4107121058439885 [Eh]
	 SCS Total Energy          =   -1658.2080428332769770 [Eh]
	-----------------------------------------------------------

*** Psi4 exiting successfully. Buy a developer a beer!
