                               Psi4 1.9 release

  ==> Input File <==

--------------------------------------------------------------------------
MEMORY 60 GB

molecule dimer {
1 1
Gh(Cl)     0.000000     0.000000     0.000000
K          0.000000     2.633546     0.000000
Gh(K)      3.686964     0.000000     0.000000

units ang
no_reorient
no_com
symmetry c1
}

set {
basis        aug-cc-pVTZ
scf_type     df
}

energy("mp2")
--------------------------------------------------------------------------

    Molecular point group: c1

    Geometry (in Angstrom), charge = 1, multiplicity = 1:

       Center              X                  Y                   Z               Mass
    ------------   -----------------  -----------------  -----------------  -----------------
      Gh(CL)          0.000000000000     0.000000000000     0.000000000000    34.968852682000
         K            0.000000000000     2.633546000000     0.000000000000    38.963706486400
      Gh(K)           3.686964000000     0.000000000000     0.000000000000    38.963706486400

  Charge       = 1
  Multiplicity = 1
  Basis Set: AUG-CC-PVTZ
    Blend: AUG-CC-PVTZ
  Basis Set: (AUG-CC-PVTZ AUX)
    Blend: AUG-CC-PVTZ-JKFIT + DEF2-UNIVERSAL-JKFIT

    Orbital Energies [Eh]
    ---------------------

    Doubly Occupied:

       1A   -133.753542     2A    -14.709035     3A    -11.739103
       4A    -11.739097     5A    -11.739095     6A     -1.964279
       7A     -1.170925     8A     -1.170883     9A     -1.170863

  @DF-RHF Final Energy:  -599.01750901427897

   => Energetics <=

    Nuclear Repulsion Energy =              0.0000000000000000
    One-Electron Energy =                -819.7213741133342637
    Two-Electron Energy =                 220.7038650990552640
    Total Energy =                       -599.0175090142789713
 Dipole X            :          0.0000928            0.0000000            0.0000928
 Dipole Y            :        -89.5807513           94.5569329            4.9761816
 Dipole Z            :          0.0000000            0.0000000            0.0000000
 Magnitude           :                                                    4.9761816
  Basis Set: (AUG-CC-PVTZ AUX)
    Blend: AUG-CC-PVTZ-RI + DEF2-QZVPP-RI
	 Reference Energy          =    -599.0175090142789713 [Eh]
	 Singles Energy            =      -0.0000000000000000 [Eh]
	 Same-Spin Energy          =      -0.0293919978049397 [Eh]
	 Opposite-Spin Energy      =      -0.0691779146452700 [Eh]
	 Correlation Energy        =      -0.0985699124502097 [Eh]
	 Total Energy              =    -599.1160789267291875 [Eh]

	 ================> DF-SCS-MP2 Energies <==================
	-----------------------------------------------------------
	 SCS Same-Spin Scale       =       0.3333333333333333 [-]
	 SCS Opposite-Spin Scale   =       1.2000000000000000 [-]
	 SCS Same-Spin Energy      =      -0.0097973326016466 [Eh]
	 SCS Opposite-Spin Energy  =      -0.0830134975743240 [Eh]
	 SCS Correlation Energy    =      -0.0928108301759706 [Eh]
	 SCS Total Energy          =    -599.1103198444549207 [Eh]
	-----------------------------------------------------------

*** Psi4 exiting successfully. Buy a developer a beer!
