                               Psi4 1.9 release

  ==> Input File <==

--------------------------------------------------------------------------
MEMORY 60 GB

molecule dimer {
-1 1
Cl         0.000000     0.000000     0.000000
Gh(K)      0.000000     2.633546     0.000000
Gh(K)      2.633546     0.000000     0.000000

units ang
no_reorient
no_com
symmetry c1
}

set {
basis        aug-cc-pVTZ
scf_type     df
}

energy("mp2")
--------------------------------------------------------------------------

    Molecular point group: c1

    Geometry (in Angstrom), charge = -1, multiplicity = 1:

       Center              X                  Y                   Z               Mass
    ------------   -----------------  -----------------  -----------------  -----------------
         CL           0.000000000000     0.000000000000     0.000000000000    34.968852682000
      Gh(K)           0.000000000000     2.633546000000     0.000000000000    38.963706486400
      Gh(K)           2.633546000000     0.000000000000     0.000000000000    38.963706486400

  Charge       = -1
  Multiplicity = 1
  Basis Set: AUG-CC-PVTZ
    Blend: AUG-CC-PVTZ
  Basis Set: (AUG-CC-PVTZ AUX)
    Blend: AUG-CC-PVTZ-JKFIT + DEF2-UNIVERSAL-JKFIT

    Orbital Energies [Eh]
    ---------------------

    Doubly Occupied:

       1A   -104.506441     2A    -10.229858     3A     -7.695911
       4A     -7.695898     5A     -7.695894     6A     -0.733493
       7A     -0.150326     8A     -0.150323     9A     -0.150320

  @DF-RHF Final Energy:  -459.57350985722417

   => Energetics <=

    Nuclear Repulsion Energy =              0.0000000000000000
    One-Electron Energy =                -641.1300896895975256
    Two-Electron Energy =                 181.5565798323733304
    Total Energy =                       -459.5735098572241668
 Dipole X            :          0.0004249            0.0000000            0.0004249
 Dipole Y            :          0.0004249            0.0000000            0.0004249
 Dipole Z            :         -0.0000000            0.0000000           -0.0000000
 Magnitude           :                                                    0.0006009
  Basis Set: (AUG-CC-PVTZ AUX)
    Blend: AUG-CC-PVTZ-RI + DEF2-QZVPP-RI
	 Reference Energy          =    -459.5735098572241668 [Eh]
	 Singles Energy            =      -0.0000000000000000 [Eh]
	 Same-Spin Energy          =      -0.0626586402811483 [Eh]
	 Opposite-Spin Energy      =      -0.1799244712818699 [Eh]
	 Correlation Energy        =      -0.2425831115630182 [Eh]
	 Total Energy              =    -459.8160929687871885 [Eh]

	 ================> DF-SCS-MP2 Energies <==================
	-----------------------------------------------------------
	 SCS Same-Spin Scale       =       0.3333333333333333 [-]
	 SCS Opposite-Spin Scale   =       1.2000000000000000 [-]
	 SCS Same-Spin Energy      =      -0.0208862134270494 [Eh]
	 SCS Opposite-Spin Energy  =      -0.2159093655382438 [Eh]
	 SCS Correlation Energy    =      -0.2367955789652933 [Eh]
	 SCS Total Energy          =    -459.8103054361894806 [Eh]
	-----------------------------------------------------------

*** Psi4 exiting successfully. Buy a developer a beer!
