                               Psi4 1.9 release

  ==> Input File <==

--------------------------------------------------------------------------
MEMORY 60 GB

molecule dimer {
1 1
Gh(Cl)     0.000000     0.000000     0.000000
K          0.000000     2.633546     0.000000
Gh(K)      3.160255     0.000000     0.000000

units ang
no_reorient
no_com
symmetry c1
}

set {
basis        aug-cc-pVTZ
scf_type     df
}

energy("mp2")
--------------------------------------------------------------------------

    Molecular point group: c1

    Geometry (in Angstrom), charge = 1, multiplicity = 1:

       Center              X                  Y                   Z               Mass
    ------------   -----------------  -----------------  -----------------  -----------------
      Gh(CL)          0.000000000000     0.000000000000     0.000000000000    34.968852682000
         K            0.000000000000     2.633546000000     0.000000000000    38.963706486400
      Gh(K)           3.160255000000     0.000000000000     0.000000000000    38.963706486400

  Charge       = 1
  Multiplicity = 1
  Basis Set: AUG-CC-PVTZ
    Blend: AUG-CC-PVTZ
  Basis Set: (AUG-CC-PVTZ AUX)
    Blend: AUG-CC-PVTZ-JKFIT + DEF2-UNIVERSAL-JKFIT

    Orbital Energies [Eh]
    ---------------------

    Doubly Occupied:

       1A   -133.753473     2A    -14.708980     3A    -11.739048
       4A    -11.739043     5A    -11.739041     6A     -1.964255
       7A     -1.170907     8A     -1.170865     9A     -1.170843

  @DF-RHF Final Energy:  -599.01750940650004

   => Energetics <=

    Nuclear Repulsion Energy =              0.0000000000000000
    One-Electron Energy =                -819.7221137853142636
    Two-Electron Energy =                 220.7046043788142811
    Total Energy =                       -599.0175094065000394
 Dipole X            :          0.0001318            0.0000000            0.0001318
 Dipole Y            :        -89.5807328           94.5569329            4.9762001
 Dipole Z            :          0.0000000            0.0000000            0.0000000
 Magnitude           :                                                    4.9762001
  Basis Set: (AUG-CC-PVTZ AUX)
    Blend: AUG-CC-PVTZ-RI + DEF2-QZVPP-RI
	 Reference Energy          =    -599.0175094065000394 [Eh]
	 Singles Energy            =      -0.0000000000000000 [Eh]
	 Same-Spin Energy          =      -0.0296402848857801 [Eh]
	 Opposite-Spin Energy      =      -0.0698993649554512 [Eh]
	 Correlation Energy        =      -0.0995396498412313 [Eh]
	 Total Energy              =    -599.1170490563412159 [Eh]

	 ================> DF-SCS-MP2 Energies <==================
	-----------------------------------------------------------
	 SCS Same-Spin Scale       =       0.3333333333333333 [-]
	 SCS Opposite-Spin Scale   =       1.2000000000000000 [-]
	 SCS Same-Spin Energy      =      -0.0098800949619267 [Eh]
	 SCS Opposite-Spin Energy  =      -0.0838792379465414 [Eh]
	 SCS Correlation Energy    =      -0.0937593329084681 [Eh]
	 SCS Total Energy          =    -599.1112687394085015 [Eh]
	-----------------------------------------------------------

*** Psi4 exiting successfully. Buy a developer a beer!
