                               Psi4 1.9 release

  ==> Input File <==

--------------------------------------------------------------------------
MEMORY 60 GB

molecule dimer {
1 1
Gh(Cl)     0.000000     0.000000     0.000000
Gh(K)      0.000000     2.633546     0.000000
K          3.160255     0.000000     0.000000

units ang
no_reorient
no_com
symmetry c1
}

set {
basis        aug-cc-pVTZ
scf_type     df
}

energy("mp2")
--------------------------------------------------------------------------

    Molecular point group: c1

    Geometry (in Angstrom), charge = 1, multiplicity = 1:

       Center              X                  Y                   Z               Mass
    ------------   -----------------  -----------------  -----------------  -----------------
      Gh(CL)          0.000000000000     0.000000000000     0.000000000000    34.968852682000
      Gh(K)           0.000000000000     2.633546000000     0.000000000000    38.963706486400
         K            3.160255000000     0.000000000000     0.000000000000    38.963706486400

  Charge       = 1
  Multiplicity = 1
  Basis Set: AUG-CC-PVTZ
    Blend: AUG-CC-PVTZ
  Basis Set: (AUG-CC-PVTZ AUX)
    Blend: AUG-CC-PVTZ-JKFIT + DEF2-UNIVERSAL-JKFIT

    Orbital Energies [Eh]
    ---------------------

    Doubly Occupied:

       1A   -133.753566     2A    -14.709057     3A    -11.739122
       4A    -11.739118     5A    -11.739117     6A     -1.964299
       7A     -1.170927     8A     -1.170888     9A     -1.170878

  @DF-RHF Final Energy:  -599.01750855168768

   => Energetics <=

    Nuclear Repulsion Energy =              0.0000000000000000
    One-Electron Energy =                -819.7210744120179697
    Two-Electron Energy =                 220.7035658603304000
    Total Energy =                       -599.0175085516875697
 Dipole X            :       -107.4966605          113.4683123            5.9716518
 Dipole Y            :          0.0001450            0.0000000            0.0001450
 Dipole Z            :          0.0000000            0.0000000            0.0000000
 Magnitude           :                                                    5.9716518
  Basis Set: (AUG-CC-PVTZ AUX)
    Blend: AUG-CC-PVTZ-RI + DEF2-QZVPP-RI
	 Reference Energy          =    -599.0175085516876834 [Eh]
	 Singles Energy            =      -0.0000000000000000 [Eh]
	 Same-Spin Energy          =      -0.0282176070363586 [Eh]
	 Opposite-Spin Energy      =      -0.0657995825896506 [Eh]
	 Correlation Energy        =      -0.0940171896260092 [Eh]
	 Total Energy              =    -599.1115257413136987 [Eh]

	 ================> DF-SCS-MP2 Energies <==================
	-----------------------------------------------------------
	 SCS Same-Spin Scale       =       0.3333333333333333 [-]
	 SCS Opposite-Spin Scale   =       1.2000000000000000 [-]
	 SCS Same-Spin Energy      =      -0.0094058690121195 [Eh]
	 SCS Opposite-Spin Energy  =      -0.0789594991075807 [Eh]
	 SCS Correlation Energy    =      -0.0883653681197003 [Eh]
	 SCS Total Energy          =    -599.1058739198074363 [Eh]
	-----------------------------------------------------------

*** Psi4 exiting successfully. Buy a developer a beer!
