                               Psi4 1.9 release

  ==> Input File <==

--------------------------------------------------------------------------
MEMORY 60 GB

molecule dimer {
1 1
Gh(Cl)     0.000000     0.000000     0.000000
Gh(K)      0.000000     2.633546     0.000000
K          5.267092     0.000000     0.000000

units ang
no_reorient
no_com
symmetry c1
}

set {
basis        aug-cc-pVTZ
scf_type     df
}

energy("mp2")
--------------------------------------------------------------------------

    Molecular point group: c1

    Geometry (in Angstrom), charge = 1, multiplicity = 1:

       Center              X                  Y                   Z               Mass
    ------------   -----------------  -----------------  -----------------  -----------------
      Gh(CL)          0.000000000000     0.000000000000     0.000000000000    34.968852682000
      Gh(K)           0.000000000000     2.633546000000     0.000000000000    38.963706486400
         K            5.267092000000     0.000000000000     0.000000000000    38.963706486400

  Charge       = 1
  Multiplicity = 1
  Basis Set: AUG-CC-PVTZ
    Blend: AUG-CC-PVTZ
  Basis Set: (AUG-CC-PVTZ AUX)
    Blend: AUG-CC-PVTZ-JKFIT + DEF2-UNIVERSAL-JKFIT

    Orbital Energies [Eh]
    ---------------------

    Doubly Occupied:

       1A   -133.753896     2A    -14.709322     3A    -11.739386
       4A    -11.739383     5A    -11.739383     6A     -1.964420
       7A     -1.171002     8A     -1.170986     9A     -1.170985

  @DF-RHF Final Energy:  -599.01750647935603

   => Energetics <=

    Nuclear Repulsion Energy =              0.0000000000000000
    One-Electron Energy =                -819.7174888666536390
    Two-Electron Energy =                 220.6999823872976094
    Total Energy =                       -599.0175064793560296
 Dipole X            :       -179.1605523          189.1138658            9.9533135
 Dipole Y            :          0.0000223            0.0000000            0.0000223
 Dipole Z            :          0.0000000            0.0000000            0.0000000
 Magnitude           :                                                    9.9533135
  Basis Set: (AUG-CC-PVTZ AUX)
    Blend: AUG-CC-PVTZ-RI + DEF2-QZVPP-RI
	 Reference Energy          =    -599.0175064793560296 [Eh]
	 Singles Energy            =      -0.0000000000000000 [Eh]
	 Same-Spin Energy          =      -0.0260641845748355 [Eh]
	 Opposite-Spin Energy      =      -0.0599835425864812 [Eh]
	 Correlation Energy        =      -0.0860477271613167 [Eh]
	 Total Energy              =    -599.1035542065174013 [Eh]

	 ================> DF-SCS-MP2 Energies <==================
	-----------------------------------------------------------
	 SCS Same-Spin Scale       =       0.3333333333333333 [-]
	 SCS Opposite-Spin Scale   =       1.2000000000000000 [-]
	 SCS Same-Spin Energy      =      -0.0086880615249452 [Eh]
	 SCS Opposite-Spin Energy  =      -0.0719802511037775 [Eh]
	 SCS Correlation Energy    =      -0.0806683126287226 [Eh]
	 SCS Total Energy          =    -599.0981747919847749 [Eh]
	-----------------------------------------------------------

*** Psi4 exiting successfully. Buy a developer a beer!
