                               Psi4 1.9 release

  ==> Input File <==

--------------------------------------------------------------------------
MEMORY 60 GB

molecule dimer {
0 1
Cl     0.000000     0.000000     0.000000
K      0.000000     2.633546     0.000000
--
1 1
K      3.950319     0.000000     0.000000

units ang
no_reorient
no_com
symmetry c1
}

set {
basis        aug-cc-pVTZ
scf_type     df
}

energy("mp2", bsse_type="cp")
--------------------------------------------------------------------------

                               Psi4 1.9 release
    Molecular point group: c1
  Charge       = 1
  Multiplicity = 1
  Basis Set: AUG-CC-PVTZ
    Blend: AUG-CC-PVTZ
  Basis Set: (AUG-CC-PVTZ AUX)
    Blend: AUG-CC-PVTZ-JKFIT + DEF2-UNIVERSAL-JKFIT
  @DF-RHF Final Energy:  -599.01750767073577
    Total Energy =                       -599.0175076707357675
 Dipole X            :       -134.3707017          141.8353993            7.4646976
 Dipole Y            :          0.0000709            0.0000000            0.0000709
 Dipole Z            :          0.0000000            0.0000000            0.0000000
 Magnitude           :                                                    7.4646976
  Basis Set: (AUG-CC-PVTZ AUX)
    Blend: AUG-CC-PVTZ-RI + DEF2-QZVPP-RI
	 Reference Energy          =    -599.0175076707357675 [Eh]
	 Singles Energy            =      -0.0000000000000000 [Eh]
	 Same-Spin Energy          =      -0.0270291921321539 [Eh]
	 Opposite-Spin Energy      =      -0.0626828112692242 [Eh]
	 Correlation Energy        =      -0.0897120034013781 [Eh]
	 Total Energy              =    -599.1072196741371272 [Eh]
	 SCS Total Energy          =    -599.1017367749695950 [Eh]
                               Psi4 1.9 release
    Molecular point group: c1
  Multiplicity = 1
  Basis Set: AUG-CC-PVTZ
    Blend: AUG-CC-PVTZ
  Basis Set: (AUG-CC-PVTZ AUX)
    Blend: AUG-CC-PVTZ-JKFIT + DEF2-UNIVERSAL-JKFIT
  @DF-RHF Final Energy: -1058.76872726966189
    Total Energy =                      -1058.7687272696618948
  Basis Set: (AUG-CC-PVTZ AUX)
	 Singles Energy            =      -0.0000000000000000 [Eh]
	 Same-Spin Energy          =      -0.0945377984245271 [Eh]
	 Opposite-Spin Energy      =      -0.2506239290624759 [Eh]
	 Correlation Energy        =      -0.3451617274870031 [Eh]
	 Total Energy              =   -1059.1138889971489334 [Eh]
	 SCS Total Energy          =   -1059.1009885840117022 [Eh]
                               Psi4 1.9 release
    Molecular point group: c1

    Geometry (in Bohr), charge = 1, multiplicity = 1:

       Center              X                  Y                   Z               Mass
    ------------   -----------------  -----------------  -----------------  -----------------
         CL           0.000000000000     0.000000000000     0.000000000000    34.968852682000
         K            0.000000000000     4.976680678795     0.000000000000    38.963706486400
         K            7.465021018192     0.000000000000     0.000000000000    38.963706486400

  Charge       = 1
  Multiplicity = 1
  Basis Set: AUG-CC-PVTZ
    Blend: AUG-CC-PVTZ
  Basis Set: (AUG-CC-PVTZ AUX)
    Blend: AUG-CC-PVTZ-JKFIT + DEF2-UNIVERSAL-JKFIT

    Orbital Energies [Eh]
    ---------------------

    Doubly Occupied:

       1A   -133.722727     2A   -133.636041     3A   -104.822208
       4A    -14.678284     5A    -14.593913     6A    -11.708373
       7A    -11.708347     8A    -11.708266     9A    -11.623679
      10A    -11.623624    11A    -11.623569    12A    -10.547830
      13A     -8.013888    14A     -8.013799    15A     -8.013670
      16A     -1.933787    17A     -1.857149    18A     -1.141628
      19A     -1.140983    20A     -1.138735    21A     -1.093372
      22A     -1.067121    23A     -1.066039    24A     -1.032216
      25A     -0.481424    26A     -0.476521    27A     -0.472828

  @DF-RHF Final Energy: -1657.81083138198028

   => Energetics <=

    Nuclear Repulsion Energy =            148.4081764212122607
    One-Electron Energy =               -2574.5579734053862921
    Two-Electron Energy =                 768.3389656021936389
    Total Energy =                      -1657.8108313819802788
 Dipole X            :       -134.9151655          141.8353993            6.9202338
 Dipole Y            :        -90.4165308           94.5569329            4.1404021
 Dipole Z            :         -0.0000000            0.0000000           -0.0000000
 Magnitude           :                                                    8.0642772
  Basis Set: (AUG-CC-PVTZ AUX)
    Blend: AUG-CC-PVTZ-RI + DEF2-QZVPP-RI
	 Reference Energy          =   -1657.8108313819802788 [Eh]
	 Singles Energy            =      -0.0000000000000000 [Eh]
	 Same-Spin Energy          =      -0.1219930105719334 [Eh]
	 Opposite-Spin Energy      =      -0.3139782803037587 [Eh]
	 Correlation Energy        =      -0.4359712908756921 [Eh]
	 Total Energy              =   -1658.2468026728558925 [Eh]

	 ================> DF-SCS-MP2 Energies <==================
	-----------------------------------------------------------
	 SCS Same-Spin Scale       =       0.3333333333333333 [-]
	 SCS Opposite-Spin Scale   =       1.2000000000000000 [-]
	 SCS Same-Spin Energy      =      -0.0406643368573111 [Eh]
	 SCS Opposite-Spin Energy  =      -0.3767739363645105 [Eh]
	 SCS Correlation Energy    =      -0.4174382732218216 [Eh]
	 SCS Total Energy          =   -1658.2282696552022117 [Eh]
	-----------------------------------------------------------

*** Psi4 exiting successfully. Buy a developer a beer!
