                               Psi4 1.9 release

  ==> Input File <==

--------------------------------------------------------------------------
MEMORY 60 GB

molecule dimer {
-1 1
Cl     0.000000     0.000000     0.000000
--
1 1
K      0.000000     2.633546     0.000000
--
1 1
K      2.896901     0.000000     0.000000

units ang
no_reorient
no_com
symmetry c1
}

set {
basis        aug-cc-pVTZ
scf_type     df
}

energy("mp2", bsse_type="cp")
--------------------------------------------------------------------------

                               Psi4 1.9 release
    Molecular point group: c1
  Charge       = -1
  Multiplicity = 1
  Basis Set: AUG-CC-PVTZ
    Blend: AUG-CC-PVTZ
  Basis Set: (AUG-CC-PVTZ AUX)
    Blend: AUG-CC-PVTZ-JKFIT + DEF2-UNIVERSAL-JKFIT
  @DF-RHF Final Energy:  -459.57350972414457
    Total Energy =                       -459.5735097241445715
 Dipole X            :          0.0003105            0.0000000            0.0003105
 Dipole Y            :          0.0004506            0.0000000            0.0004506
 Dipole Z            :         -0.0000000            0.0000000           -0.0000000
 Magnitude           :                                                    0.0005472
  Basis Set: (AUG-CC-PVTZ AUX)
    Blend: AUG-CC-PVTZ-RI + DEF2-QZVPP-RI
	 Reference Energy          =    -459.5735097241445715 [Eh]
	 Singles Energy            =      -0.0000000000000000 [Eh]
	 Same-Spin Energy          =      -0.0626501094306297 [Eh]
	 Opposite-Spin Energy      =      -0.1798739851975221 [Eh]
	 Correlation Energy        =      -0.2425240946281518 [Eh]
	 Total Energy              =    -459.8160338187727234 [Eh]
	 SCS Total Energy          =    -459.8102418761918102 [Eh]
                               Psi4 1.9 release
    Molecular point group: c1
  Basis Set: AUG-CC-PVTZ
    Blend: AUG-CC-PVTZ
  Basis Set: (AUG-CC-PVTZ AUX)
    Blend: AUG-CC-PVTZ-JKFIT + DEF2-UNIVERSAL-JKFIT
  @DF-RHF Final Energy:  -599.01750959497861
    Total Energy =                       -599.0175095949787192
  Basis Set: (AUG-CC-PVTZ AUX)
                               Psi4 1.9 release
  @DF-RHF Final Energy: -1197.90156082561248
    Total Energy =                      -1197.9015608256124779
                               Psi4 1.9 release
  @DF-RHF Final Energy: -1058.76838874498617
    Total Energy =                      -1058.7683887449861686
                               Psi4 1.9 release
  @DF-RHF Final Energy: -1058.76876417941594
    Total Energy =                      -1058.7687641794159390
                               Psi4 1.9 release
  Multiplicity = 1
  @DF-RHF Final Energy:  -599.01750909993939
    Total Energy =                       -599.0175090999393888
	 Singles Energy            =      -0.0000000000000000 [Eh]
	 Same-Spin Energy          =      -0.0289436416728397 [Eh]
	 Opposite-Spin Energy      =      -0.0678254909391817 [Eh]
	 Correlation Energy        =      -0.0967691326120214 [Eh]
	 Total Energy              =    -599.1142782325514418 [Eh]
	 SCS Total Energy          =    -599.1085475696239655 [Eh]
                               Psi4 1.9 release
    Molecular point group: c1

    Geometry (in Bohr), charge = 1, multiplicity = 1:

       Center              X                  Y                   Z               Mass
    ------------   -----------------  -----------------  -----------------  -----------------
         CL           0.000000000000     0.000000000000     0.000000000000    34.968852682000
         K            0.000000000000     4.976680678795     0.000000000000    38.963706486400
         K            5.474349502565     0.000000000000     0.000000000000    38.963706486400

  Charge       = 1
  Multiplicity = 1
  Basis Set: AUG-CC-PVTZ
    Blend: AUG-CC-PVTZ
  Basis Set: (AUG-CC-PVTZ AUX)
    Blend: AUG-CC-PVTZ-JKFIT + DEF2-UNIVERSAL-JKFIT

    Orbital Energies [Eh]
    ---------------------

    Doubly Occupied:

       1A   -133.685251     2A   -133.660876     3A   -104.857121
       4A    -14.641923     5A    -14.618747     6A    -11.671893
       7A    -11.671826     8A    -11.671698     9A    -11.648538
      10A    -11.648457    11A    -11.648415    12A    -10.583775
      13A     -8.049836    14A     -8.049759    15A     -8.049606
      16A     -1.901053    17A     -1.881859    18A     -1.134767
      19A     -1.110562    20A     -1.109212    21A     -1.101843
      22A     -1.091737    23A     -1.090283    24A     -1.062061
      25A     -0.522178    26A     -0.520042    27A     -0.512261

  @DF-RHF Final Energy: -1657.82433824005602

   => Energetics <=

    Nuclear Repulsion Energy =            172.6996845564198111
    One-Electron Energy =               -2622.6568896164021680
    Two-Electron Energy =                 792.1328668199262211
    Total Energy =                      -1657.8243382400560222
 Dipole X            :        -99.2792619          104.0126405            4.7333786
 Dipole Y            :        -90.3733912           94.5569329            4.1835417
 Dipole Z            :          0.0000000            0.0000000            0.0000000
 Magnitude           :                                                    6.3171904
  Basis Set: (AUG-CC-PVTZ AUX)
    Blend: AUG-CC-PVTZ-RI + DEF2-QZVPP-RI
	 Reference Energy          =   -1657.8243382400560222 [Eh]
	 Singles Energy            =      -0.0000000000000000 [Eh]
	 Same-Spin Energy          =      -0.1258285855745736 [Eh]
	 Opposite-Spin Energy      =      -0.3218166949532191 [Eh]
	 Correlation Energy        =      -0.4476452805277927 [Eh]
	 Total Energy              =   -1658.2719835205837171 [Eh]

	 ================> DF-SCS-MP2 Energies <==================
	-----------------------------------------------------------
	 SCS Same-Spin Scale       =       0.3333333333333333 [-]
	 SCS Opposite-Spin Scale   =       1.2000000000000000 [-]
	 SCS Same-Spin Energy      =      -0.0419428618581912 [Eh]
	 SCS Opposite-Spin Energy  =      -0.3861800339438629 [Eh]
	 SCS Correlation Energy    =      -0.4281228958020540 [Eh]
	 SCS Total Energy          =   -1658.2524611358580842 [Eh]
	-----------------------------------------------------------

*** Psi4 exiting successfully. Buy a developer a beer!
