                               Psi4 1.9 release

  ==> Input File <==

--------------------------------------------------------------------------
MEMORY 60 GB

molecule dimer {
0 1
Cl     0.000000     0.000000     0.000000
K      0.000000     2.633546     0.000000
--
1 1
K      3.423610     0.000000     0.000000

units ang
no_reorient
no_com
symmetry c1
}

set {
basis        aug-cc-pVTZ
scf_type     df
}

energy("mp2", bsse_type="cp")
--------------------------------------------------------------------------

                               Psi4 1.9 release
    Molecular point group: c1
  Charge       = 1
  Multiplicity = 1
  Basis Set: AUG-CC-PVTZ
    Blend: AUG-CC-PVTZ
  Basis Set: (AUG-CC-PVTZ AUX)
    Blend: AUG-CC-PVTZ-JKFIT + DEF2-UNIVERSAL-JKFIT
  @DF-RHF Final Energy:  -599.01750818020776
    Total Energy =                       -599.0175081802077557
 Dipole X            :       -116.4547002          122.9240199            6.4693198
 Dipole Y            :          0.0001189            0.0000000            0.0001189
 Dipole Z            :         -0.0000000            0.0000000           -0.0000000
 Magnitude           :                                                    6.4693198
  Basis Set: (AUG-CC-PVTZ AUX)
    Blend: AUG-CC-PVTZ-RI + DEF2-QZVPP-RI
	 Reference Energy          =    -599.0175081802077557 [Eh]
	 Singles Energy            =      -0.0000000000000000 [Eh]
	 Same-Spin Energy          =      -0.0276811019033042 [Eh]
	 Opposite-Spin Energy      =      -0.0644066598104375 [Eh]
	 Correlation Energy        =      -0.0920877617137417 [Eh]
	 Total Energy              =    -599.1095959419214978 [Eh]
	 SCS Total Energy          =    -599.1040232059480104 [Eh]
                               Psi4 1.9 release
    Molecular point group: c1
  Multiplicity = 1
  Basis Set: AUG-CC-PVTZ
    Blend: AUG-CC-PVTZ
  Basis Set: (AUG-CC-PVTZ AUX)
    Blend: AUG-CC-PVTZ-JKFIT + DEF2-UNIVERSAL-JKFIT
  @DF-RHF Final Energy: -1058.76874866954245
    Total Energy =                      -1058.7687486695424468
  Basis Set: (AUG-CC-PVTZ AUX)
	 Singles Energy            =      -0.0000000000000000 [Eh]
	 Same-Spin Energy          =      -0.0948687392313143 [Eh]
	 Opposite-Spin Energy      =      -0.2515486508626816 [Eh]
	 Correlation Energy        =      -0.3464173900939959 [Eh]
	 Total Energy              =   -1059.1151660596365218 [Eh]
	 SCS Total Energy          =   -1059.1022299636547359 [Eh]
                               Psi4 1.9 release
    Molecular point group: c1

    Geometry (in Bohr), charge = 1, multiplicity = 1:

       Center              X                  Y                   Z               Mass
    ------------   -----------------  -----------------  -----------------  -----------------
         CL           0.000000000000     0.000000000000     0.000000000000    34.968852682000
         K            0.000000000000     4.976680678795     0.000000000000    38.963706486400
         K            6.469685260379     0.000000000000     0.000000000000    38.963706486400

  Charge       = 1
  Multiplicity = 1
  Basis Set: AUG-CC-PVTZ
    Blend: AUG-CC-PVTZ
  Basis Set: (AUG-CC-PVTZ AUX)
    Blend: AUG-CC-PVTZ-JKFIT + DEF2-UNIVERSAL-JKFIT

    Orbital Energies [Eh]
    ---------------------

    Doubly Occupied:

       1A   -133.708111     2A   -133.647749     3A   -104.839993
       4A    -14.663905     5A    -14.605605     6A    -11.693981
       7A    -11.693940     8A    -11.693821     9A    -11.635385
      10A    -11.635317    11A    -11.635267    12A    -10.565747
      13A     -8.031809    14A     -8.031724    15A     -8.031585
      16A     -1.920179    17A     -1.868748    18A     -1.128845
      19A     -1.127806    20A     -1.125559    21A     -1.107880
      22A     -1.078735    23A     -1.077441    24A     -1.047349
      25A     -0.499605    26A     -0.497438    27A     -0.491018

  @DF-RHF Final Energy: -1657.81953075942420

   => Energetics <=

    Nuclear Repulsion Energy =            159.0552321165228022
    One-Electron Energy =               -2595.5804456887667584
    Two-Electron Energy =                 778.7056828128195320
    Total Energy =                      -1657.8195307594244241
 Dipole X            :       -117.1075467          122.9240199            5.8164732
 Dipole Y            :        -90.3999129           94.5569329            4.1570200
 Dipole Z            :         -0.0000000            0.0000000           -0.0000000
 Magnitude           :                                                    7.1492780
  Basis Set: (AUG-CC-PVTZ AUX)
    Blend: AUG-CC-PVTZ-RI + DEF2-QZVPP-RI
	 Reference Energy          =   -1657.8195307594241967 [Eh]
	 Singles Energy            =      -0.0000000000000000 [Eh]
	 Same-Spin Energy          =      -0.1233610804299817 [Eh]
	 Opposite-Spin Energy      =      -0.3169573019021811 [Eh]
	 Correlation Energy        =      -0.4403183823321629 [Eh]
	 Total Energy              =   -1658.2598491417563764 [Eh]

	 ================> DF-SCS-MP2 Energies <==================
	-----------------------------------------------------------
	 SCS Same-Spin Scale       =       0.3333333333333333 [-]
	 SCS Opposite-Spin Scale   =       1.2000000000000000 [-]
	 SCS Same-Spin Energy      =      -0.0411203601433272 [Eh]
	 SCS Opposite-Spin Energy  =      -0.3803487622826173 [Eh]
	 SCS Correlation Energy    =      -0.4214691224259446 [Eh]
	 SCS Total Energy          =   -1658.2409998818500299 [Eh]
	-----------------------------------------------------------

*** Psi4 exiting successfully. Buy a developer a beer!
