                               Psi4 1.9 release

  ==> Input File <==

--------------------------------------------------------------------------
MEMORY 60 GB

molecule dimer {
0 1
Cl     0.000000     0.000000     0.000000
K      0.000000     2.633546     0.000000
--
1 1
K      3.160255     0.000000     0.000000

units ang
no_reorient
no_com
symmetry c1
}

set {
basis        aug-cc-pVTZ
scf_type     df
}

energy("mp2", bsse_type="cp")
--------------------------------------------------------------------------

                               Psi4 1.9 release
    Molecular point group: c1
  Charge       = 1
  Multiplicity = 1
  Basis Set: AUG-CC-PVTZ
    Blend: AUG-CC-PVTZ
  Basis Set: (AUG-CC-PVTZ AUX)
    Blend: AUG-CC-PVTZ-JKFIT + DEF2-UNIVERSAL-JKFIT
  @DF-RHF Final Energy:  -599.01750855168734
    Total Energy =                       -599.0175085516873423
 Dipole X            :       -107.4966605          113.4683123            5.9716518
 Dipole Y            :          0.0001450            0.0000000            0.0001450
 Dipole Z            :          0.0000000            0.0000000            0.0000000
 Magnitude           :                                                    5.9716518
  Basis Set: (AUG-CC-PVTZ AUX)
    Blend: AUG-CC-PVTZ-RI + DEF2-QZVPP-RI
	 Reference Energy          =    -599.0175085516873423 [Eh]
	 Singles Energy            =      -0.0000000000000000 [Eh]
	 Same-Spin Energy          =      -0.0282176070363253 [Eh]
	 Opposite-Spin Energy      =      -0.0657995825895622 [Eh]
	 Correlation Energy        =      -0.0940171896258876 [Eh]
	 Total Energy              =    -599.1115257413132440 [Eh]
	 SCS Total Energy          =    -599.1058739198069816 [Eh]
                               Psi4 1.9 release
    Molecular point group: c1
  Multiplicity = 1
  Basis Set: AUG-CC-PVTZ
    Blend: AUG-CC-PVTZ
  Basis Set: (AUG-CC-PVTZ AUX)
    Blend: AUG-CC-PVTZ-JKFIT + DEF2-UNIVERSAL-JKFIT
  @DF-RHF Final Energy: -1058.76875863336591
    Total Energy =                      -1058.7687586333659056
  Basis Set: (AUG-CC-PVTZ AUX)
	 Singles Energy            =      -0.0000000000000000 [Eh]
	 Same-Spin Energy          =      -0.0950161152448324 [Eh]
	 Opposite-Spin Energy      =      -0.2519675491506922 [Eh]
	 Correlation Energy        =      -0.3469836643955246 [Eh]
	 Total Energy              =   -1059.1157422977614715 [Eh]
	 SCS Total Energy          =   -1059.1027917307617372 [Eh]
                               Psi4 1.9 release
    Molecular point group: c1

    Geometry (in Bohr), charge = 1, multiplicity = 1:

       Center              X                  Y                   Z               Mass
    ------------   -----------------  -----------------  -----------------  -----------------
         CL           0.000000000000     0.000000000000     0.000000000000    34.968852682000
         K            0.000000000000     4.976680678795     0.000000000000    38.963706486400
         K            5.972016436609     0.000000000000     0.000000000000    38.963706486400

  Charge       = 1
  Multiplicity = 1
  Basis Set: AUG-CC-PVTZ
    Blend: AUG-CC-PVTZ
  Basis Set: (AUG-CC-PVTZ AUX)
    Blend: AUG-CC-PVTZ-JKFIT + DEF2-UNIVERSAL-JKFIT

    Orbital Energies [Eh]
    ---------------------

    Doubly Occupied:

       1A   -133.698171     2A   -133.654127     3A   -104.848880
       4A    -14.654236     5A    -14.611982     6A    -11.684283
       7A    -11.684231     8A    -11.684096     9A    -11.641769
      10A    -11.641694    11A    -11.641647    12A    -10.574920
      13A     -8.040986    14A     -8.040901    15A     -8.040759
      16A     -1.911413    17A     -1.875092    18A     -1.124866
      19A     -1.120189    20A     -1.119314    21A     -1.109545
      22A     -1.085062    23A     -1.083662    24A     -1.055238
      25A     -0.510254    26A     -0.508818    27A     -0.501195

  @DF-RHF Final Energy: -1657.82333412433672

   => Energetics <=

    Nuclear Repulsion Energy =            165.4261773554273987
    One-Electron Energy =               -2608.2043651492954268
    Two-Electron Energy =                 784.9548536695310759
    Total Energy =                      -1657.8233341243367249
 Dipole X            :       -108.1967616          113.4683123            5.2715507
 Dipole Y            :        -90.3882066           94.5569329            4.1687263
 Dipole Z            :         -0.0000000            0.0000000           -0.0000000
 Magnitude           :                                                    6.7206790
  Basis Set: (AUG-CC-PVTZ AUX)
    Blend: AUG-CC-PVTZ-RI + DEF2-QZVPP-RI
	 Reference Energy          =   -1657.8233341243367249 [Eh]
	 Singles Energy            =      -0.0000000000000000 [Eh]
	 Same-Spin Energy          =      -0.1244006875703385 [Eh]
	 Opposite-Spin Energy      =      -0.3190296213375745 [Eh]
	 Correlation Energy        =      -0.4434303089079130 [Eh]
	 Total Energy              =   -1658.2667644332445889 [Eh]

	 ================> DF-SCS-MP2 Energies <==================
	-----------------------------------------------------------
	 SCS Same-Spin Scale       =       0.3333333333333333 [-]
	 SCS Opposite-Spin Scale   =       1.2000000000000000 [-]
	 SCS Same-Spin Energy      =      -0.0414668958567795 [Eh]
	 SCS Opposite-Spin Energy  =      -0.3828355456050893 [Eh]
	 SCS Correlation Energy    =      -0.4243024414618688 [Eh]
	 SCS Total Energy          =   -1658.2476365657985298 [Eh]
	-----------------------------------------------------------

*** Psi4 exiting successfully. Buy a developer a beer!
