                               Psi4 1.9 release

  ==> Input File <==

--------------------------------------------------------------------------
MEMORY 60 GB

molecule dimer {
1 1
Gh(Cl)     0.000000     0.000000     0.000000
Gh(K)      0.000000     2.633546     0.000000
K          3.950319     0.000000     0.000000

units ang
no_reorient
no_com
symmetry c1
}

set {
basis        aug-cc-pVTZ
scf_type     df
}

energy("mp2")
--------------------------------------------------------------------------

    Molecular point group: c1

    Geometry (in Angstrom), charge = 1, multiplicity = 1:

       Center              X                  Y                   Z               Mass
    ------------   -----------------  -----------------  -----------------  -----------------
      Gh(CL)          0.000000000000     0.000000000000     0.000000000000    34.968852682000
      Gh(K)           0.000000000000     2.633546000000     0.000000000000    38.963706486400
         K            3.950319000000     0.000000000000     0.000000000000    38.963706486400

  Charge       = 1
  Multiplicity = 1
  Basis Set: AUG-CC-PVTZ
    Blend: AUG-CC-PVTZ
  Basis Set: (AUG-CC-PVTZ AUX)
    Blend: AUG-CC-PVTZ-JKFIT + DEF2-UNIVERSAL-JKFIT

    Orbital Energies [Eh]
    ---------------------

    Doubly Occupied:

       1A   -133.753707     2A    -14.709169     3A    -11.739234
       4A    -11.739230     5A    -11.739230     6A     -1.964349
       7A     -1.170962     8A     -1.170928     9A     -1.170923

  @DF-RHF Final Energy:  -599.01750767073690

   => Energetics <=

    Nuclear Repulsion Energy =              0.0000000000000000
    One-Electron Energy =                -819.7195539202729151
    Two-Electron Energy =                 220.7020462495360107
    Total Energy =                       -599.0175076707369044
 Dipole X            :       -134.3707017          141.8353993            7.4646976
 Dipole Y            :          0.0000709            0.0000000            0.0000709
 Dipole Z            :          0.0000000            0.0000000            0.0000000
 Magnitude           :                                                    7.4646976
  Basis Set: (AUG-CC-PVTZ AUX)
    Blend: AUG-CC-PVTZ-RI + DEF2-QZVPP-RI
	 Reference Energy          =    -599.0175076707369044 [Eh]
	 Singles Energy            =      -0.0000000000000000 [Eh]
	 Same-Spin Energy          =      -0.0270291921322745 [Eh]
	 Opposite-Spin Energy      =      -0.0626828112697037 [Eh]
	 Correlation Energy        =      -0.0897120034019782 [Eh]
	 Total Energy              =    -599.1072196741388325 [Eh]

	 ================> DF-SCS-MP2 Energies <==================
	-----------------------------------------------------------
	 SCS Same-Spin Scale       =       0.3333333333333333 [-]
	 SCS Opposite-Spin Scale   =       1.2000000000000000 [-]
	 SCS Same-Spin Energy      =      -0.0090097307107582 [Eh]
	 SCS Opposite-Spin Energy  =      -0.0752193735236445 [Eh]
	 SCS Correlation Energy    =      -0.0842291042344026 [Eh]
	 SCS Total Energy          =    -599.1017367749713003 [Eh]
	-----------------------------------------------------------

*** Psi4 exiting successfully. Buy a developer a beer!
