                               Psi4 1.9 release

  ==> Input File <==

--------------------------------------------------------------------------
MEMORY 60 GB

molecule dimer {
-1 1
Cl         0.000000     0.000000     0.000000
Gh(K)      0.000000     2.633546     0.000000
Gh(K)      3.160255     0.000000     0.000000

units ang
no_reorient
no_com
symmetry c1
}

set {
basis        aug-cc-pVTZ
scf_type     df
}

energy("mp2")
--------------------------------------------------------------------------

    Molecular point group: c1

    Geometry (in Angstrom), charge = -1, multiplicity = 1:

       Center              X                  Y                   Z               Mass
    ------------   -----------------  -----------------  -----------------  -----------------
         CL           0.000000000000     0.000000000000     0.000000000000    34.968852682000
      Gh(K)           0.000000000000     2.633546000000     0.000000000000    38.963706486400
      Gh(K)           3.160255000000     0.000000000000     0.000000000000    38.963706486400

  Charge       = -1
  Multiplicity = 1
  Basis Set: AUG-CC-PVTZ
    Blend: AUG-CC-PVTZ
  Basis Set: (AUG-CC-PVTZ AUX)
    Blend: AUG-CC-PVTZ-JKFIT + DEF2-UNIVERSAL-JKFIT

    Orbital Energies [Eh]
    ---------------------

    Doubly Occupied:

       1A   -104.506421     2A    -10.229854     3A     -7.695907
       4A     -7.695893     5A     -7.695889     6A     -0.733494
       7A     -0.150327     8A     -0.150325     9A     -0.150321

  @DF-RHF Final Energy:  -459.57350892084867

   => Energetics <=

    Nuclear Repulsion Energy =              0.0000000000000000
    One-Electron Energy =                -641.1301533328702362
    Two-Electron Energy =                 181.5566444120215408
    Total Energy =                       -459.5735089208486670
 Dipole X            :          0.0002435            0.0000000            0.0002435
 Dipole Y            :          0.0004788            0.0000000            0.0004788
 Dipole Z            :          0.0000000            0.0000000            0.0000000
 Magnitude           :                                                    0.0005371
  Basis Set: (AUG-CC-PVTZ AUX)
    Blend: AUG-CC-PVTZ-RI + DEF2-QZVPP-RI
	 Reference Energy          =    -459.5735089208486670 [Eh]
	 Singles Energy            =      -0.0000000000000000 [Eh]
	 Same-Spin Energy          =      -0.0626372953709628 [Eh]
	 Opposite-Spin Energy      =      -0.1798273376833761 [Eh]
	 Correlation Energy        =      -0.2424646330543388 [Eh]
	 Total Energy              =    -459.8159735539030066 [Eh]

	 ================> DF-SCS-MP2 Energies <==================
	-----------------------------------------------------------
	 SCS Same-Spin Scale       =       0.3333333333333333 [-]
	 SCS Opposite-Spin Scale   =       1.2000000000000000 [-]
	 SCS Same-Spin Energy      =      -0.0208790984569876 [Eh]
	 SCS Opposite-Spin Energy  =      -0.2157928052200513 [Eh]
	 SCS Correlation Energy    =      -0.2366719036770388 [Eh]
	 SCS Total Energy          =    -459.8101808245257303 [Eh]
	-----------------------------------------------------------

*** Psi4 exiting successfully. Buy a developer a beer!
