                               Psi4 1.9 release

  ==> Input File <==

--------------------------------------------------------------------------
MEMORY 60 GB

molecule dimer {
0 1
Cl     0.000000     0.000000     0.000000
K      0.000000     2.633546     0.000000
--
1 1
K      3.686964     0.000000     0.000000

units ang
no_reorient
no_com
symmetry c1
}

set {
basis        aug-cc-pVTZ
scf_type     df
}

energy("mp2", bsse_type="cp")
--------------------------------------------------------------------------

                               Psi4 1.9 release
    Molecular point group: c1
  Charge       = 1
  Multiplicity = 1
  Basis Set: AUG-CC-PVTZ
    Blend: AUG-CC-PVTZ
  Basis Set: (AUG-CC-PVTZ AUX)
    Blend: AUG-CC-PVTZ-JKFIT + DEF2-UNIVERSAL-JKFIT
  @DF-RHF Final Energy:  -599.01750791025461
    Total Energy =                       -599.0175079102546079
 Dipole X            :       -125.4127015          132.3796917            6.9669902
 Dipole Y            :          0.0000920            0.0000000            0.0000920
 Dipole Z            :          0.0000000            0.0000000            0.0000000
 Magnitude           :                                                    6.9669902
  Basis Set: (AUG-CC-PVTZ AUX)
    Blend: AUG-CC-PVTZ-RI + DEF2-QZVPP-RI
	 Reference Energy          =    -599.0175079102546079 [Eh]
	 Singles Energy            =      -0.0000000000000000 [Eh]
	 Same-Spin Energy          =      -0.0273042314569076 [Eh]
	 Opposite-Spin Energy      =      -0.0634286491152193 [Eh]
	 Correlation Energy        =      -0.0907328805721270 [Eh]
	 Total Energy              =    -599.1082407908266987 [Eh]
	 SCS Total Energy          =    -599.1027236996785632 [Eh]
                               Psi4 1.9 release
    Molecular point group: c1
  Multiplicity = 1
  Basis Set: AUG-CC-PVTZ
    Blend: AUG-CC-PVTZ
  Basis Set: (AUG-CC-PVTZ AUX)
    Blend: AUG-CC-PVTZ-JKFIT + DEF2-UNIVERSAL-JKFIT
  @DF-RHF Final Energy: -1058.76873768332848
    Total Energy =                      -1058.7687376833282542
  Basis Set: (AUG-CC-PVTZ AUX)
	 Singles Energy            =      -0.0000000000000000 [Eh]
	 Same-Spin Energy          =      -0.0947060722268977 [Eh]
	 Opposite-Spin Energy      =      -0.2510903706755174 [Eh]
	 Correlation Energy        =      -0.3457964429024151 [Eh]
	 Total Energy              =   -1059.1145341262308648 [Eh]
	 SCS Total Energy          =   -1059.1016148188814441 [Eh]
                               Psi4 1.9 release
    Molecular point group: c1

    Geometry (in Bohr), charge = 1, multiplicity = 1:

       Center              X                  Y                   Z               Mass
    ------------   -----------------  -----------------  -----------------  -----------------
         CL           0.000000000000     0.000000000000     0.000000000000    34.968852682000
         K            0.000000000000     4.976680678795     0.000000000000    38.963706486400
         K            6.967352194422     0.000000000000     0.000000000000    38.963706486400

  Charge       = 1
  Multiplicity = 1
  Basis Set: AUG-CC-PVTZ
    Blend: AUG-CC-PVTZ
  Basis Set: (AUG-CC-PVTZ AUX)
    Blend: AUG-CC-PVTZ-JKFIT + DEF2-UNIVERSAL-JKFIT

    Orbital Energies [Eh]
    ---------------------

    Doubly Occupied:

       1A   -133.716139     2A   -133.641717     3A   -104.830971
       4A    -14.671788     5A    -14.599581     6A    -11.701874
       7A    -11.701842     8A    -11.701742     9A    -11.629353
      10A    -11.629292    11A    -11.629239    12A    -10.556617
      13A     -8.022674    14A     -8.022589    15A     -8.022453
      16A     -1.927582    17A     -1.862770    18A     -1.135766
      19A     -1.134971    20A     -1.132344    21A     -1.100633
      22A     -1.072754    23A     -1.071569    24A     -1.039584
      25A     -0.490130    26A     -0.486483    27A     -0.481571

  @DF-RHF Final Energy: -1657.81507569737164

   => Energetics <=

    Nuclear Repulsion Energy =            153.4238105740042215
    One-Electron Energy =               -2584.4497147427987329
    Two-Electron Energy =                 773.2108284714229285
    Total Energy =                      -1657.8150756973716398
 Dipole X            :       -126.0126397          132.3796917            6.3670520
 Dipole Y            :        -90.4091704           94.5569329            4.1477625
 Dipole Z            :         -0.0000000            0.0000000           -0.0000000
 Magnitude           :                                                    7.5989003
  Basis Set: (AUG-CC-PVTZ AUX)
    Blend: AUG-CC-PVTZ-RI + DEF2-QZVPP-RI
	 Reference Energy          =   -1657.8150756973716398 [Eh]
	 Singles Energy            =      -0.0000000000000000 [Eh]
	 Same-Spin Energy          =      -0.1225925165123611 [Eh]
	 Opposite-Spin Energy      =      -0.3153379693526017 [Eh]
	 Correlation Energy        =      -0.4379304858649628 [Eh]
	 Total Energy              =   -1658.2530061832364936 [Eh]

	 ================> DF-SCS-MP2 Energies <==================
	-----------------------------------------------------------
	 SCS Same-Spin Scale       =       0.3333333333333333 [-]
	 SCS Opposite-Spin Scale   =       1.2000000000000000 [-]
	 SCS Same-Spin Energy      =      -0.0408641721707870 [Eh]
	 SCS Opposite-Spin Energy  =      -0.3784055632231221 [Eh]
	 SCS Correlation Energy    =      -0.4192697353939091 [Eh]
	 SCS Total Energy          =   -1658.2343454327656218 [Eh]
	-----------------------------------------------------------

*** Psi4 exiting successfully. Buy a developer a beer!
