                               Psi4 1.9 release

  ==> Input File <==

--------------------------------------------------------------------------
MEMORY 60 GB

molecule dimer {
1 1
Gh(Cl)     0.000000     0.000000     0.000000
Gh(K)      0.000000     2.633546     0.000000
K          3.686964     0.000000     0.000000

units ang
no_reorient
no_com
symmetry c1
}

set {
basis        aug-cc-pVTZ
scf_type     df
}

energy("mp2")
--------------------------------------------------------------------------

    Molecular point group: c1

    Geometry (in Angstrom), charge = 1, multiplicity = 1:

       Center              X                  Y                   Z               Mass
    ------------   -----------------  -----------------  -----------------  -----------------
      Gh(CL)          0.000000000000     0.000000000000     0.000000000000    34.968852682000
      Gh(K)           0.000000000000     2.633546000000     0.000000000000    38.963706486400
         K            3.686964000000     0.000000000000     0.000000000000    38.963706486400

  Charge       = 1
  Multiplicity = 1
  Basis Set: AUG-CC-PVTZ
    Blend: AUG-CC-PVTZ
  Basis Set: (AUG-CC-PVTZ AUX)
    Blend: AUG-CC-PVTZ-JKFIT + DEF2-UNIVERSAL-JKFIT

    Orbital Energies [Eh]
    ---------------------

    Doubly Occupied:

       1A   -133.753659     2A    -14.709131     3A    -11.739196
       4A    -11.739192     5A    -11.739191     6A     -1.964333
       7A     -1.170951     8A     -1.170915     9A     -1.170908

  @DF-RHF Final Energy:  -599.01750791025540

   => Energetics <=

    Nuclear Repulsion Energy =              0.0000000000000000
    One-Electron Energy =                -819.7200737401161632
    Two-Electron Energy =                 220.7025658298608448
    Total Energy =                       -599.0175079102552900
 Dipole X            :       -125.4127015          132.3796917            6.9669902
 Dipole Y            :          0.0000920            0.0000000            0.0000920
 Dipole Z            :          0.0000000            0.0000000            0.0000000
 Magnitude           :                                                    6.9669902
  Basis Set: (AUG-CC-PVTZ AUX)
    Blend: AUG-CC-PVTZ-RI + DEF2-QZVPP-RI
	 Reference Energy          =    -599.0175079102554037 [Eh]
	 Singles Energy            =      -0.0000000000000000 [Eh]
	 Same-Spin Energy          =      -0.0273042314569955 [Eh]
	 Opposite-Spin Energy      =      -0.0634286491154102 [Eh]
	 Correlation Energy        =      -0.0907328805724057 [Eh]
	 Total Energy              =    -599.1082407908278356 [Eh]

	 ================> DF-SCS-MP2 Energies <==================
	-----------------------------------------------------------
	 SCS Same-Spin Scale       =       0.3333333333333333 [-]
	 SCS Opposite-Spin Scale   =       1.2000000000000000 [-]
	 SCS Same-Spin Energy      =      -0.0091014104856652 [Eh]
	 SCS Opposite-Spin Energy  =      -0.0761143789384922 [Eh]
	 SCS Correlation Energy    =      -0.0852157894241573 [Eh]
	 SCS Total Energy          =    -599.1027236996795864 [Eh]
	-----------------------------------------------------------

*** Psi4 exiting successfully. Buy a developer a beer!
