                               Psi4 1.9 release

  ==> Input File <==

--------------------------------------------------------------------------
MEMORY 60 GB

molecule dimer {
-1 1
Cl     0.000000     0.000000     0.000000
--
1 1
K      0.000000     2.633546     0.000000
--
1 1
K      2.633546     0.000000     0.000000

units ang
no_reorient
no_com
symmetry c1
}

set {
basis        aug-cc-pVTZ
scf_type     df
}

energy("mp2", bsse_type="cp")
--------------------------------------------------------------------------

                               Psi4 1.9 release
    Molecular point group: c1
  Charge       = -1
  Multiplicity = 1
  Basis Set: AUG-CC-PVTZ
    Blend: AUG-CC-PVTZ
  Basis Set: (AUG-CC-PVTZ AUX)
    Blend: AUG-CC-PVTZ-JKFIT + DEF2-UNIVERSAL-JKFIT
  @DF-RHF Final Energy:  -459.57350985722366
    Total Energy =                       -459.5735098572236552
 Dipole X            :          0.0004249            0.0000000            0.0004249
 Dipole Y            :          0.0004249            0.0000000            0.0004249
 Dipole Z            :         -0.0000000            0.0000000           -0.0000000
 Magnitude           :                                                    0.0006009
  Basis Set: (AUG-CC-PVTZ AUX)
    Blend: AUG-CC-PVTZ-RI + DEF2-QZVPP-RI
	 Reference Energy          =    -459.5735098572236552 [Eh]
	 Singles Energy            =      -0.0000000000000000 [Eh]
	 Same-Spin Energy          =      -0.0626586402811490 [Eh]
	 Opposite-Spin Energy      =      -0.1799244712818698 [Eh]
	 Correlation Energy        =      -0.2425831115630188 [Eh]
	 Total Energy              =    -459.8160929687866769 [Eh]
	 SCS Total Energy          =    -459.8103054361889690 [Eh]
                               Psi4 1.9 release
    Molecular point group: c1
  Basis Set: AUG-CC-PVTZ
    Blend: AUG-CC-PVTZ
  Basis Set: (AUG-CC-PVTZ AUX)
    Blend: AUG-CC-PVTZ-JKFIT + DEF2-UNIVERSAL-JKFIT
  @DF-RHF Final Energy:  -599.01750974787353
    Total Energy =                       -599.0175097478735324
  Basis Set: (AUG-CC-PVTZ AUX)
                               Psi4 1.9 release
  @DF-RHF Final Energy: -1197.89500097990731
    Total Energy =                      -1197.8950009799073086
                               Psi4 1.9 release
  @DF-RHF Final Energy: -1058.76876817254447
    Total Energy =                      -1058.7687681725444691
                               Psi4 1.9 release
  @DF-RHF Final Energy: -1058.76876817291736
    Total Energy =                      -1058.7687681729173619
                               Psi4 1.9 release
  Multiplicity = 1
  @DF-RHF Final Energy:  -599.01750974761796
    Total Energy =                       -599.0175097476178507
	 Singles Energy            =      -0.0000000000000000 [Eh]
	 Same-Spin Energy          =      -0.0298779403136319 [Eh]
	 Opposite-Spin Energy      =      -0.0706223118234206 [Eh]
	 Correlation Energy        =      -0.1005002521370525 [Eh]
	 Total Energy              =    -599.1180099997550315 [Eh]
	 SCS Total Energy          =    -599.1122158352440010 [Eh]
                               Psi4 1.9 release
    Molecular point group: c1

    Geometry (in Bohr), charge = 1, multiplicity = 1:

       Center              X                  Y                   Z               Mass
    ------------   -----------------  -----------------  -----------------  -----------------
         CL           0.000000000000     0.000000000000     0.000000000000    34.968852682000
         K            0.000000000000     4.976680678795     0.000000000000    38.963706486400
         K            4.976680678795     0.000000000000     0.000000000000    38.963706486400

  Charge       = 1
  Multiplicity = 1
  Basis Set: AUG-CC-PVTZ
    Blend: AUG-CC-PVTZ
  Basis Set: (AUG-CC-PVTZ AUX)
    Blend: AUG-CC-PVTZ-JKFIT + DEF2-UNIVERSAL-JKFIT

    Orbital Energies [Eh]
    ---------------------

    Doubly Occupied:

       1A   -133.668207     2A   -133.668207     3A   -104.864073
       4A    -14.626088     5A    -14.626088     6A    -11.655887
       7A    -11.655887     8A    -11.655797     9A    -11.655797
      10A    -11.655761    11A    -11.655761    12A    -10.591921
      13A     -8.057936    14A     -8.057895    15A     -8.057692
      16A     -1.889525    17A     -1.888851    18A     -1.151212
      19A     -1.100846    20A     -1.097866    21A     -1.097785
      22A     -1.097028    23A     -1.096065    24A     -1.062287
      25A     -0.533405    26A     -0.531696    27A     -0.524592

  @DF-RHF Final Energy: -1657.81745632795150

   => Energetics <=

    Nuclear Repulsion Energy =            181.0977248045123247
    One-Electron Energy =               -2639.3820575290283159
    Two-Electron Energy =                 800.4668763965645439
    Total Energy =                      -1657.8174563279512768
 Dipole X            :        -90.3548719           94.5569329            4.2020610
 Dipole Y            :        -90.3548719           94.5569329            4.2020610
 Dipole Z            :          0.0000000            0.0000000            0.0000000
 Magnitude           :                                                    5.9426117
  Basis Set: (AUG-CC-PVTZ AUX)
    Blend: AUG-CC-PVTZ-RI + DEF2-QZVPP-RI
	 Reference Energy          =   -1657.8174563279515041 [Eh]
	 Singles Energy            =      -0.0000000000000000 [Eh]
	 Same-Spin Energy          =      -0.1278637781748966 [Eh]
	 Opposite-Spin Energy      =      -0.3257346966700339 [Eh]
	 Correlation Energy        =      -0.4535984748449304 [Eh]
	 Total Energy              =   -1658.2710548027964705 [Eh]

	 ================> DF-SCS-MP2 Energies <==================
	-----------------------------------------------------------
	 SCS Same-Spin Scale       =       0.3333333333333333 [-]
	 SCS Opposite-Spin Scale   =       1.2000000000000000 [-]
	 SCS Same-Spin Energy      =      -0.0426212593916322 [Eh]
	 SCS Opposite-Spin Energy  =      -0.3908816360040406 [Eh]
	 SCS Correlation Energy    =      -0.4335028953956728 [Eh]
	 SCS Total Energy          =   -1658.2509592233470812 [Eh]
	-----------------------------------------------------------

*** Psi4 exiting successfully. Buy a developer a beer!
