                               Psi4 1.9 release

  ==> Input File <==

--------------------------------------------------------------------------
MEMORY 60 GB

molecule dimer {
-1 1
Cl         0.000000     0.000000     0.000000
Gh(K)      0.000000     2.633546     0.000000
Gh(K)      3.686964     0.000000     0.000000

units ang
no_reorient
no_com
symmetry c1
}

set {
basis        aug-cc-pVTZ
scf_type     df
}

energy("mp2")
--------------------------------------------------------------------------

    Molecular point group: c1

    Geometry (in Angstrom), charge = -1, multiplicity = 1:

       Center              X                  Y                   Z               Mass
    ------------   -----------------  -----------------  -----------------  -----------------
         CL           0.000000000000     0.000000000000     0.000000000000    34.968852682000
      Gh(K)           0.000000000000     2.633546000000     0.000000000000    38.963706486400
      Gh(K)           3.686964000000     0.000000000000     0.000000000000    38.963706486400

  Charge       = -1
  Multiplicity = 1
  Basis Set: AUG-CC-PVTZ
    Blend: AUG-CC-PVTZ
  Basis Set: (AUG-CC-PVTZ AUX)
    Blend: AUG-CC-PVTZ-JKFIT + DEF2-UNIVERSAL-JKFIT

    Orbital Energies [Eh]
    ---------------------

    Doubly Occupied:

       1A   -104.506366     2A    -10.229841     3A     -7.695891
       4A     -7.695881     5A     -7.695876     6A     -0.733497
       7A     -0.150329     8A     -0.150327     9A     -0.150323

  @DF-RHF Final Energy:  -459.57350526557468

   => Energetics <=

    Nuclear Repulsion Energy =              0.0000000000000000
    One-Electron Energy =                -641.1303456992530982
    Two-Electron Energy =                 181.5568404336784454
    Total Energy =                       -459.5735052655746813
 Dipole X            :          0.0001794            0.0000000            0.0001794
 Dipole Y            :          0.0005087            0.0000000            0.0005087
 Dipole Z            :         -0.0000000            0.0000000           -0.0000000
 Magnitude           :                                                    0.0005394
  Basis Set: (AUG-CC-PVTZ AUX)
    Blend: AUG-CC-PVTZ-RI + DEF2-QZVPP-RI
	 Reference Energy          =    -459.5735052655746813 [Eh]
	 Singles Energy            =      -0.0000000000000000 [Eh]
	 Same-Spin Energy          =      -0.0625964904947293 [Eh]
	 Opposite-Spin Energy      =      -0.1797036138345837 [Eh]
	 Correlation Energy        =      -0.2423001043293130 [Eh]
	 Total Energy              =    -459.8158053699040124 [Eh]

	 ================> DF-SCS-MP2 Energies <==================
	-----------------------------------------------------------
	 SCS Same-Spin Scale       =       0.3333333333333333 [-]
	 SCS Opposite-Spin Scale   =       1.2000000000000000 [-]
	 SCS Same-Spin Energy      =      -0.0208654968315764 [Eh]
	 SCS Opposite-Spin Energy  =      -0.2156443366015004 [Eh]
	 SCS Correlation Energy    =      -0.2365098334330769 [Eh]
	 SCS Total Energy          =    -459.8100150990077850 [Eh]
	-----------------------------------------------------------

*** Psi4 exiting successfully. Buy a developer a beer!
