                               Psi4 1.9 release

  ==> Input File <==

--------------------------------------------------------------------------
MEMORY 60 GB

molecule dimer {
1 1
Gh(Cl)     0.000000     0.000000     0.000000
K          0.000000     2.633546     0.000000
Gh(K)      5.267092     0.000000     0.000000

units ang
no_reorient
no_com
symmetry c1
}

set {
basis        aug-cc-pVTZ
scf_type     df
}

energy("mp2")
--------------------------------------------------------------------------

    Molecular point group: c1

    Geometry (in Angstrom), charge = 1, multiplicity = 1:

       Center              X                  Y                   Z               Mass
    ------------   -----------------  -----------------  -----------------  -----------------
      Gh(CL)          0.000000000000     0.000000000000     0.000000000000    34.968852682000
         K            0.000000000000     2.633546000000     0.000000000000    38.963706486400
      Gh(K)           5.267092000000     0.000000000000     0.000000000000    38.963706486400

  Charge       = 1
  Multiplicity = 1
  Basis Set: AUG-CC-PVTZ
    Blend: AUG-CC-PVTZ
  Basis Set: (AUG-CC-PVTZ AUX)
    Blend: AUG-CC-PVTZ-JKFIT + DEF2-UNIVERSAL-JKFIT

    Orbital Energies [Eh]
    ---------------------

    Doubly Occupied:

       1A   -133.753674     2A    -14.709137     3A    -11.739206
       4A    -11.739201     5A    -11.739199     6A     -1.964325
       7A     -1.170960     8A     -1.170913     9A     -1.170902

  @DF-RHF Final Energy:  -599.01750832972243

   => Energetics <=

    Nuclear Repulsion Energy =              0.0000000000000000
    One-Electron Energy =                -819.7199850302372397
    Two-Electron Energy =                 220.7024767005147510
    Total Energy =                       -599.0175083297224319
 Dipole X            :          0.0000055            0.0000000            0.0000055
 Dipole Y            :        -89.5807742           94.5569329            4.9761587
 Dipole Z            :          0.0000000            0.0000000            0.0000000
 Magnitude           :                                                    4.9761587
  Basis Set: (AUG-CC-PVTZ AUX)
    Blend: AUG-CC-PVTZ-RI + DEF2-QZVPP-RI
	 Reference Energy          =    -599.0175083297224319 [Eh]
	 Singles Energy            =      -0.0000000000000000 [Eh]
	 Same-Spin Energy          =      -0.0286131330154774 [Eh]
	 Opposite-Spin Energy      =      -0.0670811275654520 [Eh]
	 Correlation Energy        =      -0.0956942605809294 [Eh]
	 Total Energy              =    -599.1132025903033309 [Eh]

	 ================> DF-SCS-MP2 Energies <==================
	-----------------------------------------------------------
	 SCS Same-Spin Scale       =       0.3333333333333333 [-]
	 SCS Opposite-Spin Scale   =       1.2000000000000000 [-]
	 SCS Same-Spin Energy      =      -0.0095377110051591 [Eh]
	 SCS Opposite-Spin Energy  =      -0.0804973530785423 [Eh]
	 SCS Correlation Energy    =      -0.0900350640837015 [Eh]
	 SCS Total Energy          =    -599.1075433938061678 [Eh]
	-----------------------------------------------------------

*** Psi4 exiting successfully. Buy a developer a beer!
