                               Psi4 1.9 release

  ==> Input File <==

--------------------------------------------------------------------------
MEMORY 60 GB

molecule dimer {
1 1
Gh(Cl)     0.000000     0.000000     0.000000
Gh(K)      0.000000     2.633546     0.000000
K          2.896901     0.000000     0.000000

units ang
no_reorient
no_com
symmetry c1
}

set {
basis        aug-cc-pVTZ
scf_type     df
}

energy("mp2")
--------------------------------------------------------------------------

    Molecular point group: c1

    Geometry (in Angstrom), charge = 1, multiplicity = 1:

       Center              X                  Y                   Z               Mass
    ------------   -----------------  -----------------  -----------------  -----------------
      Gh(CL)          0.000000000000     0.000000000000     0.000000000000    34.968852682000
      Gh(K)           0.000000000000     2.633546000000     0.000000000000    38.963706486400
         K            2.896901000000     0.000000000000     0.000000000000    38.963706486400

  Charge       = 1
  Multiplicity = 1
  Basis Set: AUG-CC-PVTZ
    Blend: AUG-CC-PVTZ
  Basis Set: (AUG-CC-PVTZ AUX)
    Blend: AUG-CC-PVTZ-JKFIT + DEF2-UNIVERSAL-JKFIT

    Orbital Energies [Eh]
    ---------------------

    Doubly Occupied:

       1A   -133.753505     2A    -14.709008     3A    -11.739074
       4A    -11.739069     5A    -11.739067     6A     -1.964272
       7A     -1.170913     8A     -1.170870     9A     -1.170856

  @DF-RHF Final Energy:  -599.01750909993984

   => Energetics <=

    Nuclear Repulsion Energy =              0.0000000000000000
    One-Electron Energy =                -819.7217540266148035
    Two-Electron Energy =                 220.7042449266749884
    Total Energy =                       -599.0175090999398435
 Dipole X            :        -98.5386943          104.0126405            5.4739463
 Dipole Y            :          0.0001414            0.0000000            0.0001414
 Dipole Z            :          0.0000000            0.0000000            0.0000000
 Magnitude           :                                                    5.4739463
  Basis Set: (AUG-CC-PVTZ AUX)
    Blend: AUG-CC-PVTZ-RI + DEF2-QZVPP-RI
	 Reference Energy          =    -599.0175090999398435 [Eh]
	 Singles Energy            =      -0.0000000000000000 [Eh]
	 Same-Spin Energy          =      -0.0289436416715322 [Eh]
	 Opposite-Spin Energy      =      -0.0678254909366885 [Eh]
	 Correlation Energy        =      -0.0967691326082207 [Eh]
	 Total Energy              =    -599.1142782325480312 [Eh]

	 ================> DF-SCS-MP2 Energies <==================
	-----------------------------------------------------------
	 SCS Same-Spin Scale       =       0.3333333333333333 [-]
	 SCS Opposite-Spin Scale   =       1.2000000000000000 [-]
	 SCS Same-Spin Energy      =      -0.0096478805571774 [Eh]
	 SCS Opposite-Spin Energy  =      -0.0813905891240262 [Eh]
	 SCS Correlation Energy    =      -0.0910384696812036 [Eh]
	 SCS Total Energy          =    -599.1085475696210096 [Eh]
	-----------------------------------------------------------

*** Psi4 exiting successfully. Buy a developer a beer!
