                               Psi4 1.9 release

  ==> Input File <==

--------------------------------------------------------------------------
MEMORY 60 GB

molecule dimer {
1 1
Cl         0.000000     0.000000     0.000000
K          0.000000     2.633546     0.000000
K          3.950319     0.000000     0.000000

units ang
no_reorient
no_com
symmetry c1
}

set {
basis        aug-cc-pVTZ
scf_type     df
}

energy("mp2")
--------------------------------------------------------------------------

    Molecular point group: c1

    Geometry (in Angstrom), charge = 1, multiplicity = 1:

       Center              X                  Y                   Z               Mass
    ------------   -----------------  -----------------  -----------------  -----------------
         CL           0.000000000000     0.000000000000     0.000000000000    34.968852682000
         K            0.000000000000     2.633546000000     0.000000000000    38.963706486400
         K            3.950319000000     0.000000000000     0.000000000000    38.963706486400

  Charge       = 1
  Multiplicity = 1
  Basis Set: AUG-CC-PVTZ
    Blend: AUG-CC-PVTZ
  Basis Set: (AUG-CC-PVTZ AUX)
    Blend: AUG-CC-PVTZ-JKFIT + DEF2-UNIVERSAL-JKFIT

    Orbital Energies [Eh]
    ---------------------

    Doubly Occupied:

       1A   -133.722727     2A   -133.636041     3A   -104.822208
       4A    -14.678284     5A    -14.593913     6A    -11.708373
       7A    -11.708347     8A    -11.708266     9A    -11.623679
      10A    -11.623624    11A    -11.623569    12A    -10.547830
      13A     -8.013888    14A     -8.013799    15A     -8.013670
      16A     -1.933787    17A     -1.857149    18A     -1.141628
      19A     -1.140983    20A     -1.138735    21A     -1.093372
      22A     -1.067121    23A     -1.066039    24A     -1.032216
      25A     -0.481424    26A     -0.476521    27A     -0.472828

  @DF-RHF Final Energy: -1657.81083138197869

   => Energetics <=

    Nuclear Repulsion Energy =            148.4081764212122607
    One-Electron Energy =               -2574.5579734040720723
    Two-Electron Energy =                 768.3389656008808970
    Total Energy =                      -1657.8108313819789146
 Dipole X            :       -134.9151655          141.8353993            6.9202338
 Dipole Y            :        -90.4165308           94.5569329            4.1404021
 Dipole Z            :         -0.0000000            0.0000000           -0.0000000
 Magnitude           :                                                    8.0642772
  Basis Set: (AUG-CC-PVTZ AUX)
    Blend: AUG-CC-PVTZ-RI + DEF2-QZVPP-RI
	 Reference Energy          =   -1657.8108313819786872 [Eh]
	 Singles Energy            =      -0.0000000000000000 [Eh]
	 Same-Spin Energy          =      -0.1219930105713889 [Eh]
	 Opposite-Spin Energy      =      -0.3139782803026484 [Eh]
	 Correlation Energy        =      -0.4359712908740373 [Eh]
	 Total Energy              =   -1658.2468026728527093 [Eh]

	 ================> DF-SCS-MP2 Energies <==================
	-----------------------------------------------------------
	 SCS Same-Spin Scale       =       0.3333333333333333 [-]
	 SCS Opposite-Spin Scale   =       1.2000000000000000 [-]
	 SCS Same-Spin Energy      =      -0.0406643368571296 [Eh]
	 SCS Opposite-Spin Energy  =      -0.3767739363631781 [Eh]
	 SCS Correlation Energy    =      -0.4174382732203077 [Eh]
	 SCS Total Energy          =   -1658.2282696551990284 [Eh]
	-----------------------------------------------------------

*** Psi4 exiting successfully. Buy a developer a beer!
