                               Psi4 1.9 release

  ==> Input File <==

--------------------------------------------------------------------------
MEMORY 60 GB

molecule dimer {
1 1
Gh(Cl)     0.000000     0.000000     0.000000
K          0.000000     2.633546     0.000000
Gh(K)      3.423610     0.000000     0.000000

units ang
no_reorient
no_com
symmetry c1
}

set {
basis        aug-cc-pVTZ
scf_type     df
}

energy("mp2")
--------------------------------------------------------------------------

    Molecular point group: c1

    Geometry (in Angstrom), charge = 1, multiplicity = 1:

       Center              X                  Y                   Z               Mass
    ------------   -----------------  -----------------  -----------------  -----------------
      Gh(CL)          0.000000000000     0.000000000000     0.000000000000    34.968852682000
         K            0.000000000000     2.633546000000     0.000000000000    38.963706486400
      Gh(K)           3.423610000000     0.000000000000     0.000000000000    38.963706486400

  Charge       = 1
  Multiplicity = 1
  Basis Set: AUG-CC-PVTZ
    Blend: AUG-CC-PVTZ
  Basis Set: (AUG-CC-PVTZ AUX)
    Blend: AUG-CC-PVTZ-JKFIT + DEF2-UNIVERSAL-JKFIT

    Orbital Energies [Eh]
    ---------------------

    Doubly Occupied:

       1A   -133.753507     2A    -14.709007     3A    -11.739075
       4A    -11.739070     5A    -11.739068     6A     -1.964267
       7A     -1.170915     8A     -1.170874     9A     -1.170853

  @DF-RHF Final Energy:  -599.01750920635698

   => Energetics <=

    Nuclear Repulsion Energy =              0.0000000000000000
    One-Electron Energy =                -819.7217425481885584
    Two-Electron Energy =                 220.7042333418315820
    Total Energy =                       -599.0175092063569764
 Dipole X            :          0.0001160            0.0000000            0.0001160
 Dipole Y            :        -89.5807425           94.5569329            4.9761904
 Dipole Z            :          0.0000000            0.0000000            0.0000000
 Magnitude           :                                                    4.9761904
  Basis Set: (AUG-CC-PVTZ AUX)
    Blend: AUG-CC-PVTZ-RI + DEF2-QZVPP-RI
	 Reference Energy          =    -599.0175092063569764 [Eh]
	 Singles Energy            =      -0.0000000000000000 [Eh]
	 Same-Spin Energy          =      -0.0295236251198520 [Eh]
	 Opposite-Spin Energy      =      -0.0695577472688201 [Eh]
	 Correlation Energy        =      -0.0990813723886722 [Eh]
	 Total Energy              =    -599.1165905787456722 [Eh]

	 ================> DF-SCS-MP2 Energies <==================
	-----------------------------------------------------------
	 SCS Same-Spin Scale       =       0.3333333333333333 [-]
	 SCS Opposite-Spin Scale   =       1.2000000000000000 [-]
	 SCS Same-Spin Energy      =      -0.0098412083732840 [Eh]
	 SCS Opposite-Spin Energy  =      -0.0834692967225842 [Eh]
	 SCS Correlation Energy    =      -0.0933105050958682 [Eh]
	 SCS Total Energy          =    -599.1108197114527911 [Eh]
	-----------------------------------------------------------

*** Psi4 exiting successfully. Buy a developer a beer!
