                               Psi4 1.9 release

  ==> Input File <==

--------------------------------------------------------------------------
MEMORY 60 GB

molecule dimer {
1 1
Cl         0.000000     0.000000     0.000000
K          0.000000     2.633546     0.000000
K          3.686964     0.000000     0.000000

units ang
no_reorient
no_com
symmetry c1
}

set {
basis        aug-cc-pVTZ
scf_type     df
}

energy("mp2")
--------------------------------------------------------------------------

    Molecular point group: c1

    Geometry (in Angstrom), charge = 1, multiplicity = 1:

       Center              X                  Y                   Z               Mass
    ------------   -----------------  -----------------  -----------------  -----------------
         CL           0.000000000000     0.000000000000     0.000000000000    34.968852682000
         K            0.000000000000     2.633546000000     0.000000000000    38.963706486400
         K            3.686964000000     0.000000000000     0.000000000000    38.963706486400

  Charge       = 1
  Multiplicity = 1
  Basis Set: AUG-CC-PVTZ
    Blend: AUG-CC-PVTZ
  Basis Set: (AUG-CC-PVTZ AUX)
    Blend: AUG-CC-PVTZ-JKFIT + DEF2-UNIVERSAL-JKFIT

    Orbital Energies [Eh]
    ---------------------

    Doubly Occupied:

       1A   -133.716139     2A   -133.641717     3A   -104.830971
       4A    -14.671788     5A    -14.599581     6A    -11.701874
       7A    -11.701842     8A    -11.701742     9A    -11.629353
      10A    -11.629292    11A    -11.629239    12A    -10.556617
      13A     -8.022674    14A     -8.022589    15A     -8.022453
      16A     -1.927582    17A     -1.862770    18A     -1.135766
      19A     -1.134971    20A     -1.132344    21A     -1.100633
      22A     -1.072754    23A     -1.071569    24A     -1.039584
      25A     -0.490130    26A     -0.486483    27A     -0.481571

  @DF-RHF Final Energy: -1657.81507569737164

   => Energetics <=

    Nuclear Repulsion Energy =            153.4238105740042215
    One-Electron Energy =               -2584.4497147426527590
    Two-Electron Energy =                 773.2108284712770683
    Total Energy =                      -1657.8150756973714124
 Dipole X            :       -126.0126397          132.3796917            6.3670520
 Dipole Y            :        -90.4091704           94.5569329            4.1477625
 Dipole Z            :         -0.0000000            0.0000000           -0.0000000
 Magnitude           :                                                    7.5989003
  Basis Set: (AUG-CC-PVTZ AUX)
    Blend: AUG-CC-PVTZ-RI + DEF2-QZVPP-RI
	 Reference Energy          =   -1657.8150756973716398 [Eh]
	 Singles Energy            =      -0.0000000000000000 [Eh]
	 Same-Spin Energy          =      -0.1225925165119541 [Eh]
	 Opposite-Spin Energy      =      -0.3153379693518400 [Eh]
	 Correlation Energy        =      -0.4379304858637941 [Eh]
	 Total Energy              =   -1658.2530061832353567 [Eh]

	 ================> DF-SCS-MP2 Energies <==================
	-----------------------------------------------------------
	 SCS Same-Spin Scale       =       0.3333333333333333 [-]
	 SCS Opposite-Spin Scale   =       1.2000000000000000 [-]
	 SCS Same-Spin Energy      =      -0.0408641721706514 [Eh]
	 SCS Opposite-Spin Energy  =      -0.3784055632222080 [Eh]
	 SCS Correlation Energy    =      -0.4192697353928593 [Eh]
	 SCS Total Energy          =   -1658.2343454327644849 [Eh]
	-----------------------------------------------------------

*** Psi4 exiting successfully. Buy a developer a beer!
