                               Psi4 1.9 release

  ==> Input File <==

--------------------------------------------------------------------------
MEMORY 60 GB

molecule dimer {
-1 1
Cl     0.000000     0.000000     0.000000
--
1 1
K      0.000000     2.633546     0.000000
--
1 1
K      3.950319     0.000000     0.000000

units ang
no_reorient
no_com
symmetry c1
}

set {
basis        aug-cc-pVTZ
scf_type     df
}

energy("mp2", bsse_type="cp")
--------------------------------------------------------------------------

                               Psi4 1.9 release
    Molecular point group: c1
  Charge       = -1
  Multiplicity = 1
  Basis Set: AUG-CC-PVTZ
    Blend: AUG-CC-PVTZ
  Basis Set: (AUG-CC-PVTZ AUX)
    Blend: AUG-CC-PVTZ-JKFIT + DEF2-UNIVERSAL-JKFIT
  @DF-RHF Final Energy:  -459.57350357495005
    Total Energy =                       -459.5735035749500526
 Dipole X            :          0.0001449            0.0000000            0.0001449
 Dipole Y            :          0.0005269            0.0000000            0.0005269
 Dipole Z            :          0.0000000            0.0000000            0.0000000
 Magnitude           :                                                    0.0005464
  Basis Set: (AUG-CC-PVTZ AUX)
    Blend: AUG-CC-PVTZ-RI + DEF2-QZVPP-RI
	 Reference Energy          =    -459.5735035749500526 [Eh]
	 Singles Energy            =      -0.0000000000000000 [Eh]
	 Same-Spin Energy          =      -0.0625795422898287 [Eh]
	 Opposite-Spin Energy      =      -0.1796505005676115 [Eh]
	 Correlation Energy        =      -0.2422300428574402 [Eh]
	 Total Energy              =    -459.8157336178074956 [Eh]
	 SCS Total Energy          =    -459.8099440230611208 [Eh]
                               Psi4 1.9 release
    Molecular point group: c1
  Basis Set: AUG-CC-PVTZ
    Blend: AUG-CC-PVTZ
  Basis Set: (AUG-CC-PVTZ AUX)
    Blend: AUG-CC-PVTZ-JKFIT + DEF2-UNIVERSAL-JKFIT
  @DF-RHF Final Energy:  -599.01750883854265
    Total Energy =                       -599.0175088385426534
  Basis Set: (AUG-CC-PVTZ AUX)
                               Psi4 1.9 release
  @DF-RHF Final Energy: -1197.92434365107852
    Total Energy =                      -1197.9243436510787433
                               Psi4 1.9 release
  @DF-RHF Final Energy: -1058.73018492438473
    Total Energy =                      -1058.7301849243847300
                               Psi4 1.9 release
  @DF-RHF Final Energy: -1058.76872726966121
    Total Energy =                      -1058.7687272696612126
                               Psi4 1.9 release
  Multiplicity = 1
  @DF-RHF Final Energy:  -599.01750767073634
    Total Energy =                       -599.0175076707364497
	 Singles Energy            =      -0.0000000000000000 [Eh]
	 Same-Spin Energy          =      -0.0270291921322526 [Eh]
	 Opposite-Spin Energy      =      -0.0626828112694054 [Eh]
	 Correlation Energy        =      -0.0897120034016580 [Eh]
	 Total Energy              =    -599.1072196741380367 [Eh]
	 SCS Total Energy          =    -599.1017367749703908 [Eh]
                               Psi4 1.9 release
    Molecular point group: c1

    Geometry (in Bohr), charge = 1, multiplicity = 1:

       Center              X                  Y                   Z               Mass
    ------------   -----------------  -----------------  -----------------  -----------------
         CL           0.000000000000     0.000000000000     0.000000000000    34.968852682000
         K            0.000000000000     4.976680678795     0.000000000000    38.963706486400
         K            7.465021018192     0.000000000000     0.000000000000    38.963706486400

  Charge       = 1
  Multiplicity = 1
  Basis Set: AUG-CC-PVTZ
    Blend: AUG-CC-PVTZ
  Basis Set: (AUG-CC-PVTZ AUX)
    Blend: AUG-CC-PVTZ-JKFIT + DEF2-UNIVERSAL-JKFIT

    Orbital Energies [Eh]
    ---------------------

    Doubly Occupied:

       1A   -133.722727     2A   -133.636041     3A   -104.822208
       4A    -14.678284     5A    -14.593913     6A    -11.708373
       7A    -11.708347     8A    -11.708266     9A    -11.623679
      10A    -11.623624    11A    -11.623569    12A    -10.547830
      13A     -8.013888    14A     -8.013799    15A     -8.013670
      16A     -1.933787    17A     -1.857149    18A     -1.141628
      19A     -1.140983    20A     -1.138735    21A     -1.093372
      22A     -1.067121    23A     -1.066039    24A     -1.032216
      25A     -0.481424    26A     -0.476521    27A     -0.472828

  @DF-RHF Final Energy: -1657.81083138198119

   => Energetics <=

    Nuclear Repulsion Energy =            148.4081764212122607
    One-Electron Energy =               -2574.5579734043076314
    Two-Electron Energy =                 768.3389656011138413
    Total Energy =                      -1657.8108313819814157
 Dipole X            :       -134.9151655          141.8353993            6.9202338
 Dipole Y            :        -90.4165308           94.5569329            4.1404021
 Dipole Z            :         -0.0000000            0.0000000           -0.0000000
 Magnitude           :                                                    8.0642772
  Basis Set: (AUG-CC-PVTZ AUX)
    Blend: AUG-CC-PVTZ-RI + DEF2-QZVPP-RI
	 Reference Energy          =   -1657.8108313819811883 [Eh]
	 Singles Energy            =      -0.0000000000000000 [Eh]
	 Same-Spin Energy          =      -0.1219930105712162 [Eh]
	 Opposite-Spin Energy      =      -0.3139782803023926 [Eh]
	 Correlation Energy        =      -0.4359712908736089 [Eh]
	 Total Energy              =   -1658.2468026728547557 [Eh]

	 ================> DF-SCS-MP2 Energies <==================
	-----------------------------------------------------------
	 SCS Same-Spin Scale       =       0.3333333333333333 [-]
	 SCS Opposite-Spin Scale   =       1.2000000000000000 [-]
	 SCS Same-Spin Energy      =      -0.0406643368570721 [Eh]
	 SCS Opposite-Spin Energy  =      -0.3767739363628711 [Eh]
	 SCS Correlation Energy    =      -0.4174382732199432 [Eh]
	 SCS Total Energy          =   -1658.2282696552010748 [Eh]
	-----------------------------------------------------------

*** Psi4 exiting successfully. Buy a developer a beer!
