                               Psi4 1.9 release

  ==> Input File <==

--------------------------------------------------------------------------
MEMORY 60 GB

molecule dimer {
1 1
Gh(Cl)     0.000000     0.000000     0.000000
K          0.000000     2.633546     0.000000
Gh(K)      3.950319     0.000000     0.000000

units ang
no_reorient
no_com
symmetry c1
}

set {
basis        aug-cc-pVTZ
scf_type     df
}

energy("mp2")
--------------------------------------------------------------------------

    Molecular point group: c1

    Geometry (in Angstrom), charge = 1, multiplicity = 1:

       Center              X                  Y                   Z               Mass
    ------------   -----------------  -----------------  -----------------  -----------------
      Gh(CL)          0.000000000000     0.000000000000     0.000000000000    34.968852682000
         K            0.000000000000     2.633546000000     0.000000000000    38.963706486400
      Gh(K)           3.950319000000     0.000000000000     0.000000000000    38.963706486400

  Charge       = 1
  Multiplicity = 1
  Basis Set: AUG-CC-PVTZ
    Blend: AUG-CC-PVTZ
  Basis Set: (AUG-CC-PVTZ AUX)
    Blend: AUG-CC-PVTZ-JKFIT + DEF2-UNIVERSAL-JKFIT

    Orbital Energies [Eh]
    ---------------------

    Doubly Occupied:

       1A   -133.753574     2A    -14.709059     3A    -11.739128
       4A    -11.739122     5A    -11.739121     6A     -1.964291
       7A     -1.170933     8A     -1.170890     9A     -1.170873

  @DF-RHF Final Energy:  -599.01750883854231

   => Energetics <=

    Nuclear Repulsion Energy =              0.0000000000000000
    One-Electron Energy =                -819.7210401211909812
    Two-Electron Energy =                 220.7035312826486972
    Total Energy =                       -599.0175088385423123
 Dipole X            :          0.0000686            0.0000000            0.0000686
 Dipole Y            :        -89.5807574           94.5569329            4.9761755
 Dipole Z            :         -0.0000000            0.0000000           -0.0000000
 Magnitude           :                                                    4.9761755
  Basis Set: (AUG-CC-PVTZ AUX)
    Blend: AUG-CC-PVTZ-RI + DEF2-QZVPP-RI
	 Reference Energy          =    -599.0175088385423123 [Eh]
	 Singles Energy            =      -0.0000000000000000 [Eh]
	 Same-Spin Energy          =      -0.0292509091093816 [Eh]
	 Opposite-Spin Energy      =      -0.0687805612978857 [Eh]
	 Correlation Energy        =      -0.0980314704072673 [Eh]
	 Total Energy              =    -599.1155403089495621 [Eh]

	 ================> DF-SCS-MP2 Energies <==================
	-----------------------------------------------------------
	 SCS Same-Spin Scale       =       0.3333333333333333 [-]
	 SCS Opposite-Spin Scale   =       1.2000000000000000 [-]
	 SCS Same-Spin Energy      =      -0.0097503030364605 [Eh]
	 SCS Opposite-Spin Energy  =      -0.0825366735574629 [Eh]
	 SCS Correlation Energy    =      -0.0922869765939234 [Eh]
	 SCS Total Energy          =    -599.1097958151361809 [Eh]
	-----------------------------------------------------------

*** Psi4 exiting successfully. Buy a developer a beer!
