                               Psi4 1.9 release

  ==> Input File <==

--------------------------------------------------------------------------
MEMORY 60 GB

molecule dimer {
1 1
Cl         0.000000     0.000000     0.000000
K          0.000000     2.633546     0.000000
K          2.633546     0.000000     0.000000

units ang
no_reorient
no_com
symmetry c1
}

set {
basis        aug-cc-pVTZ
scf_type     df
}

energy("mp2")
--------------------------------------------------------------------------

    Molecular point group: c1

    Geometry (in Angstrom), charge = 1, multiplicity = 1:

       Center              X                  Y                   Z               Mass
    ------------   -----------------  -----------------  -----------------  -----------------
         CL           0.000000000000     0.000000000000     0.000000000000    34.968852682000
         K            0.000000000000     2.633546000000     0.000000000000    38.963706486400
         K            2.633546000000     0.000000000000     0.000000000000    38.963706486400

  Charge       = 1
  Multiplicity = 1
  Basis Set: AUG-CC-PVTZ
    Blend: AUG-CC-PVTZ
  Basis Set: (AUG-CC-PVTZ AUX)
    Blend: AUG-CC-PVTZ-JKFIT + DEF2-UNIVERSAL-JKFIT

    Orbital Energies [Eh]
    ---------------------

    Doubly Occupied:

       1A   -133.668207     2A   -133.668207     3A   -104.864073
       4A    -14.626088     5A    -14.626088     6A    -11.655887
       7A    -11.655887     8A    -11.655797     9A    -11.655797
      10A    -11.655761    11A    -11.655761    12A    -10.591921
      13A     -8.057936    14A     -8.057895    15A     -8.057692
      16A     -1.889525    17A     -1.888851    18A     -1.151212
      19A     -1.100846    20A     -1.097866    21A     -1.097785
      22A     -1.097028    23A     -1.096065    24A     -1.062287
      25A     -0.533405    26A     -0.531696    27A     -0.524592

  @DF-RHF Final Energy: -1657.81745632795059

   => Energetics <=

    Nuclear Repulsion Energy =            181.0977248045123247
    One-Electron Energy =               -2639.3820575234421995
    Two-Electron Energy =                 800.4668763909794507
    Total Energy =                      -1657.8174563279503673
 Dipole X            :        -90.3548719           94.5569329            4.2020610
 Dipole Y            :        -90.3548719           94.5569329            4.2020610
 Dipole Z            :          0.0000000            0.0000000            0.0000000
 Magnitude           :                                                    5.9426117
  Basis Set: (AUG-CC-PVTZ AUX)
    Blend: AUG-CC-PVTZ-RI + DEF2-QZVPP-RI
	 Reference Energy          =   -1657.8174563279505946 [Eh]
	 Singles Energy            =      -0.0000000000000000 [Eh]
	 Same-Spin Energy          =      -0.1278637781777938 [Eh]
	 Opposite-Spin Energy      =      -0.3257346966726436 [Eh]
	 Correlation Energy        =      -0.4535984748504375 [Eh]
	 Total Energy              =   -1658.2710548028010180 [Eh]

	 ================> DF-SCS-MP2 Energies <==================
	-----------------------------------------------------------
	 SCS Same-Spin Scale       =       0.3333333333333333 [-]
	 SCS Opposite-Spin Scale   =       1.2000000000000000 [-]
	 SCS Same-Spin Energy      =      -0.0426212593925979 [Eh]
	 SCS Opposite-Spin Energy  =      -0.3908816360071723 [Eh]
	 SCS Correlation Energy    =      -0.4335028953997703 [Eh]
	 SCS Total Energy          =   -1658.2509592233502644 [Eh]
	-----------------------------------------------------------

*** Psi4 exiting successfully. Buy a developer a beer!
