                               Psi4 1.9 release

  ==> Input File <==

--------------------------------------------------------------------------
MEMORY 60 GB

molecule dimer {
1 1
K      0.000000     0.000000     0.000000
--
-1 1
Cl     0.000000     2.633546     0.000000
--
-1 1
Cl     3.950319     0.000000     0.000000

units ang
no_reorient
no_com
symmetry c1
}

set {
basis        aug-cc-pVTZ
scf_type     df
}

energy("mp2", bsse_type="cp")
--------------------------------------------------------------------------

                               Psi4 1.9 release
    Molecular point group: c1
  Charge       = 1
  Multiplicity = 1
  Basis Set: AUG-CC-PVTZ
    Blend: AUG-CC-PVTZ
  Basis Set: (AUG-CC-PVTZ AUX)
    Blend: AUG-CC-PVTZ-JKFIT + DEF2-UNIVERSAL-JKFIT
  @DF-RHF Final Energy:  -599.01750893018016
    Total Energy =                       -599.0175089301801563
 Dipole X            :          0.0002091            0.0000000            0.0002091
 Dipole Y            :          0.0004920            0.0000000            0.0004920
 Dipole Z            :          0.0000000            0.0000000            0.0000000
 Magnitude           :                                                    0.0005346
  Basis Set: (AUG-CC-PVTZ AUX)
    Blend: AUG-CC-PVTZ-RI + DEF2-QZVPP-RI
	 Reference Energy          =    -599.0175089301801563 [Eh]
	 Singles Energy            =      -0.0000000000000000 [Eh]
	 Same-Spin Energy          =      -0.0286611801553172 [Eh]
	 Opposite-Spin Energy      =      -0.0671676060628467 [Eh]
	 Correlation Energy        =      -0.0958287862181640 [Eh]
	 Total Energy              =    -599.1133377163982914 [Eh]
	 SCS Total Energy          =    -599.1076637841740649 [Eh]
                               Psi4 1.9 release
    Molecular point group: c1
  Basis Set: AUG-CC-PVTZ
    Blend: AUG-CC-PVTZ
  Basis Set: (AUG-CC-PVTZ AUX)
    Blend: AUG-CC-PVTZ-JKFIT + DEF2-UNIVERSAL-JKFIT
  @DF-RHF Final Energy:  -459.57350067917230
    Total Energy =                       -459.5735006791722981
  Basis Set: (AUG-CC-PVTZ AUX)
                               Psi4 1.9 release
  @DF-RHF Final Energy:  -919.03995287533246
    Total Energy =                       -919.0399528753323466
                               Psi4 1.9 release
  @DF-RHF Final Energy: -1058.73015962778118
    Total Energy =                      -1058.7301596277811768
                               Psi4 1.9 release
  @DF-RHF Final Energy: -1058.76870633408885
    Total Energy =                      -1058.7687063340888471
                               Psi4 1.9 release
  Multiplicity = 1
  @DF-RHF Final Energy:  -459.57349190272572
    Total Energy =                       -459.5734919027257206
	 Singles Energy            =      -0.0000000000000000 [Eh]
	 Same-Spin Energy          =      -0.0624045245430112 [Eh]
	 Opposite-Spin Energy      =      -0.1790804988875344 [Eh]
	 Correlation Energy        =      -0.2414850234305456 [Eh]
	 Total Energy              =    -459.8149769261562483 [Eh]
	 SCS Total Energy          =    -459.8091900095717506 [Eh]
                               Psi4 1.9 release
    Molecular point group: c1

    Geometry (in Bohr), charge = -1, multiplicity = 1:

       Center              X                  Y                   Z               Mass
    ------------   -----------------  -----------------  -----------------  -----------------
         K            0.000000000000     0.000000000000     0.000000000000    38.963706486400
         CL           0.000000000000     4.976680678795     0.000000000000    34.968852682000
         CL           7.465021018192     0.000000000000     0.000000000000    34.968852682000

  Charge       = -1
  Multiplicity = 1
  Basis Set: AUG-CC-PVTZ
    Blend: AUG-CC-PVTZ
  Basis Set: (AUG-CC-PVTZ AUX)
    Blend: AUG-CC-PVTZ-JKFIT + DEF2-UNIVERSAL-JKFIT

    Orbital Energies [Eh]
    ---------------------

    Doubly Occupied:

       1A   -133.390757     2A   -104.572961     3A   -104.529460
       4A    -14.348507     5A    -11.378263     6A    -11.378212
       7A    -11.378144     8A    -10.298812     9A    -10.253127
      10A     -7.764951    11A     -7.764764    12A     -7.764718
      13A     -7.719217    14A     -7.719150    15A     -7.719116
      16A     -1.611591    17A     -0.846939    18A     -0.822007
      19A     -0.818845    20A     -0.786139    21A     -0.756954
      22A     -0.235143    23A     -0.226887    24A     -0.225474
      25A     -0.175780    26A     -0.173267    27A     -0.172391

  @DF-RHF Final Energy: -1518.36381717873724

   => Energetics <=

    Nuclear Repulsion Energy =            140.3830655680306734
    One-Electron Energy =               -2387.8306124557366275
    Two-Electron Energy =                 729.0837297089685762
    Total Energy =                      -1518.3638171787372357
 Dipole X            :       -133.8358843          126.9053573           -6.9305270
 Dipole Y            :        -88.7234862           84.6035715           -4.1199146
 Dipole Z            :          0.0000000            0.0000000            0.0000000
 Magnitude           :                                                    8.0626237
  Basis Set: (AUG-CC-PVTZ AUX)
    Blend: AUG-CC-PVTZ-RI + DEF2-QZVPP-RI
	 Reference Energy          =   -1518.3638171787372357 [Eh]
	 Singles Energy            =      -0.0000000000000000 [Eh]
	 Same-Spin Energy          =      -0.1569094872704649 [Eh]
	 Opposite-Spin Energy      =      -0.4285956758345854 [Eh]
	 Correlation Energy        =      -0.5855051631050503 [Eh]
	 Total Energy              =   -1518.9493223418423895 [Eh]

	 ================> DF-SCS-MP2 Energies <==================
	-----------------------------------------------------------
	 SCS Same-Spin Scale       =       0.3333333333333333 [-]
	 SCS Opposite-Spin Scale   =       1.2000000000000000 [-]
	 SCS Same-Spin Energy      =      -0.0523031624234883 [Eh]
	 SCS Opposite-Spin Energy  =      -0.5143148110015024 [Eh]
	 SCS Correlation Energy    =      -0.5666179734249908 [Eh]
	 SCS Total Energy          =   -1518.9304351521623175 [Eh]
	-----------------------------------------------------------

*** Psi4 exiting successfully. Buy a developer a beer!
