                               Psi4 1.9 release

  ==> Input File <==

--------------------------------------------------------------------------
MEMORY 60 GB

molecule dimer {
0 1
K      0.000000     0.000000     0.000000
Cl     0.000000     2.633546     0.000000
--
-1 1
Cl     3.160255     0.000000     0.000000

units ang
no_reorient
no_com
symmetry c1
}

set {
basis        aug-cc-pVTZ
scf_type     df
}

energy("mp2", bsse_type="cp")
--------------------------------------------------------------------------

                               Psi4 1.9 release
    Molecular point group: c1
  Charge       = -1
  Multiplicity = 1
  Basis Set: AUG-CC-PVTZ
    Blend: AUG-CC-PVTZ
  Basis Set: (AUG-CC-PVTZ AUX)
    Blend: AUG-CC-PVTZ-JKFIT + DEF2-UNIVERSAL-JKFIT
  @DF-RHF Final Energy:  -459.57349967480377
    Total Energy =                       -459.5734996748037702
 Dipole X            :       -107.4969025          101.5242794           -5.9726231
 Dipole Y            :          0.0000012            0.0000000            0.0000012
 Dipole Z            :          0.0000000            0.0000000            0.0000000
 Magnitude           :                                                    5.9726231
  Basis Set: (AUG-CC-PVTZ AUX)
    Blend: AUG-CC-PVTZ-RI + DEF2-QZVPP-RI
	 Reference Energy          =    -459.5734996748037702 [Eh]
	 Singles Energy            =      -0.0000000000000000 [Eh]
	 Same-Spin Energy          =      -0.0625013242006127 [Eh]
	 Opposite-Spin Energy      =      -0.1793718537983452 [Eh]
	 Correlation Energy        =      -0.2418731779989579 [Eh]
	 Total Energy              =    -459.8153728528027386 [Eh]
	 SCS Total Energy          =    -459.8095796740953460 [Eh]
                               Psi4 1.9 release
    Molecular point group: c1
  Multiplicity = 1
  Basis Set: AUG-CC-PVTZ
    Blend: AUG-CC-PVTZ
  Basis Set: (AUG-CC-PVTZ AUX)
    Blend: AUG-CC-PVTZ-JKFIT + DEF2-UNIVERSAL-JKFIT
  @DF-RHF Final Energy: -1058.76872014794685
    Total Energy =                      -1058.7687201479468513
  Basis Set: (AUG-CC-PVTZ AUX)
	 Singles Energy            =      -0.0000000000000000 [Eh]
	 Same-Spin Energy          =      -0.0946389788453247 [Eh]
	 Opposite-Spin Energy      =      -0.2507547373177194 [Eh]
	 Correlation Energy        =      -0.3453937161630440 [Eh]
	 Total Energy              =   -1059.1141138641098678 [Eh]
	 SCS Total Energy          =   -1059.1011721590098205 [Eh]
                               Psi4 1.9 release
    Molecular point group: c1

    Geometry (in Bohr), charge = -1, multiplicity = 1:

       Center              X                  Y                   Z               Mass
    ------------   -----------------  -----------------  -----------------  -----------------
         K            0.000000000000     0.000000000000     0.000000000000    38.963706486400
         CL           0.000000000000     4.976680678795     0.000000000000    34.968852682000
         CL           5.972016436609     0.000000000000     0.000000000000    34.968852682000

  Charge       = -1
  Multiplicity = 1
  Basis Set: AUG-CC-PVTZ
    Blend: AUG-CC-PVTZ
  Basis Set: (AUG-CC-PVTZ AUX)
    Blend: AUG-CC-PVTZ-JKFIT + DEF2-UNIVERSAL-JKFIT

    Orbital Energies [Eh]
    ---------------------

    Doubly Occupied:

       1A   -133.356217     2A   -104.556074     3A   -104.540048
       4A    -14.314304     5A    -11.344028     6A    -11.343973
       7A    -11.343839     8A    -10.281948     9A    -10.264151
      10A     -7.748080    11A     -7.747906    12A     -7.747853
      13A     -7.730269    14A     -7.730194    15A     -7.730140
      16A     -1.578568    17A     -0.822674    18A     -0.789940
      19A     -0.789715    20A     -0.766243    21A     -0.761482
      22A     -0.218348    23A     -0.210794    24A     -0.210513
      25A     -0.192090    26A     -0.186169    27A     -0.182808

  @DF-RHF Final Energy: -1518.37490271530032

   => Energetics <=

    Nuclear Repulsion Energy =            156.1643256369146116
    One-Electron Energy =               -2420.1017170569894006
    Two-Electron Energy =                 745.5624887047744096
    Total Energy =                      -1518.3749027153003226
 Dipole X            :       -106.7940748          101.5242794           -5.2697954
 Dipole Y            :        -88.7544117           84.6035715           -4.1508402
 Dipole Z            :          0.0000000            0.0000000            0.0000000
 Magnitude           :                                                    6.7082202
  Basis Set: (AUG-CC-PVTZ AUX)
    Blend: AUG-CC-PVTZ-RI + DEF2-QZVPP-RI
	 Reference Energy          =   -1518.3749027153003226 [Eh]
	 Singles Energy            =      -0.0000000000000000 [Eh]
	 Same-Spin Energy          =      -0.1588344684257944 [Eh]
	 Opposite-Spin Energy      =      -0.4317261683461860 [Eh]
	 Correlation Energy        =      -0.5905606367719805 [Eh]
	 Total Energy              =   -1518.9654633520722200 [Eh]

	 ================> DF-SCS-MP2 Energies <==================
	-----------------------------------------------------------
	 SCS Same-Spin Scale       =       0.3333333333333333 [-]
	 SCS Opposite-Spin Scale   =       1.2000000000000000 [-]
	 SCS Same-Spin Energy      =      -0.0529448228085981 [Eh]
	 SCS Opposite-Spin Energy  =      -0.5180714020154232 [Eh]
	 SCS Correlation Energy    =      -0.5710162248240214 [Eh]
	 SCS Total Energy          =   -1518.9459189401243293 [Eh]
	-----------------------------------------------------------

*** Psi4 exiting successfully. Buy a developer a beer!
