                               Psi4 1.9 release

  ==> Input File <==

--------------------------------------------------------------------------
MEMORY 60 GB

molecule dimer {
1 1
K          0.000000     0.000000     0.000000
Gh(Cl)     0.000000     2.633546     0.000000
Gh(Cl)     3.686964     0.000000     0.000000

units ang
no_reorient
no_com
symmetry c1
}

set {
basis        aug-cc-pVTZ
scf_type     df
}

energy("mp2")
--------------------------------------------------------------------------

    Molecular point group: c1

    Geometry (in Angstrom), charge = 1, multiplicity = 1:

       Center              X                  Y                   Z               Mass
    ------------   -----------------  -----------------  -----------------  -----------------
         K            0.000000000000     0.000000000000     0.000000000000    38.963706486400
      Gh(CL)          0.000000000000     2.633546000000     0.000000000000    34.968852682000
      Gh(CL)          3.686964000000     0.000000000000     0.000000000000    34.968852682000

  Charge       = 1
  Multiplicity = 1
  Basis Set: AUG-CC-PVTZ
    Blend: AUG-CC-PVTZ
  Basis Set: (AUG-CC-PVTZ AUX)
    Blend: AUG-CC-PVTZ-JKFIT + DEF2-UNIVERSAL-JKFIT

    Orbital Energies [Eh]
    ---------------------

    Doubly Occupied:

       1A   -133.753588     2A    -14.709066     3A    -11.739134
       4A    -11.739129     5A    -11.739126     6A     -1.964292
       7A     -1.170928     8A     -1.170895     9A     -1.170867

  @DF-RHF Final Energy:  -599.01750903141146

   => Energetics <=

    Nuclear Repulsion Energy =              0.0000000000000000
    One-Electron Energy =                -819.7209692291747842
    Two-Electron Energy =                 220.7034601977633770
    Total Energy =                       -599.0175090314114641
 Dipole X            :          0.0002314            0.0000000            0.0002314
 Dipole Y            :          0.0004843            0.0000000            0.0004843
 Dipole Z            :          0.0000000            0.0000000            0.0000000
 Magnitude           :                                                    0.0005368
  Basis Set: (AUG-CC-PVTZ AUX)
    Blend: AUG-CC-PVTZ-RI + DEF2-QZVPP-RI
	 Reference Energy          =    -599.0175090314114641 [Eh]
	 Singles Energy            =      -0.0000000000000000 [Eh]
	 Same-Spin Energy          =      -0.0287897361405984 [Eh]
	 Opposite-Spin Energy      =      -0.0675050365814821 [Eh]
	 Correlation Energy        =      -0.0962947727220806 [Eh]
	 Total Energy              =    -599.1138038041335676 [Eh]

	 ================> DF-SCS-MP2 Energies <==================
	-----------------------------------------------------------
	 SCS Same-Spin Scale       =       0.3333333333333333 [-]
	 SCS Opposite-Spin Scale   =       1.2000000000000000 [-]
	 SCS Same-Spin Energy      =      -0.0095965787135328 [Eh]
	 SCS Opposite-Spin Energy  =      -0.0810060438977786 [Eh]
	 SCS Correlation Energy    =      -0.0906026226113114 [Eh]
	 SCS Total Energy          =    -599.1081116540227640 [Eh]
	-----------------------------------------------------------

*** Psi4 exiting successfully. Buy a developer a beer!
