                               Psi4 1.9 release

  ==> Input File <==

--------------------------------------------------------------------------
MEMORY 60 GB

molecule dimer {
-1 1
K          0.000000     0.000000     0.000000
Cl         0.000000     2.633546     0.000000
Cl         3.950319     0.000000     0.000000

units ang
no_reorient
no_com
symmetry c1
}

set {
basis        aug-cc-pVTZ
scf_type     df
}

energy("mp2")
--------------------------------------------------------------------------

    Molecular point group: c1

    Geometry (in Angstrom), charge = -1, multiplicity = 1:

       Center              X                  Y                   Z               Mass
    ------------   -----------------  -----------------  -----------------  -----------------
         K            0.000000000000     0.000000000000     0.000000000000    38.963706486400
         CL           0.000000000000     2.633546000000     0.000000000000    34.968852682000
         CL           3.950319000000     0.000000000000     0.000000000000    34.968852682000

  Charge       = -1
  Multiplicity = 1
  Basis Set: AUG-CC-PVTZ
    Blend: AUG-CC-PVTZ
  Basis Set: (AUG-CC-PVTZ AUX)
    Blend: AUG-CC-PVTZ-JKFIT + DEF2-UNIVERSAL-JKFIT

    Orbital Energies [Eh]
    ---------------------

    Doubly Occupied:

       1A   -133.390757     2A   -104.572961     3A   -104.529460
       4A    -14.348507     5A    -11.378263     6A    -11.378212
       7A    -11.378144     8A    -10.298812     9A    -10.253127
      10A     -7.764951    11A     -7.764764    12A     -7.764718
      13A     -7.719217    14A     -7.719150    15A     -7.719116
      16A     -1.611591    17A     -0.846939    18A     -0.822007
      19A     -0.818845    20A     -0.786139    21A     -0.756954
      22A     -0.235143    23A     -0.226887    24A     -0.225474
      25A     -0.175780    26A     -0.173267    27A     -0.172391

  @DF-RHF Final Energy: -1518.36381717873678

   => Energetics <=

    Nuclear Repulsion Energy =            140.3830655680306734
    One-Electron Energy =               -2387.8306124554078451
    Two-Electron Energy =                 729.0837297086402486
    Total Energy =                      -1518.3638171787367810
 Dipole X            :       -133.8358843          126.9053573           -6.9305270
 Dipole Y            :        -88.7234862           84.6035715           -4.1199146
 Dipole Z            :          0.0000000            0.0000000            0.0000000
 Magnitude           :                                                    8.0626237
  Basis Set: (AUG-CC-PVTZ AUX)
    Blend: AUG-CC-PVTZ-RI + DEF2-QZVPP-RI
	 Reference Energy          =   -1518.3638171787367810 [Eh]
	 Singles Energy            =      -0.0000000000000000 [Eh]
	 Same-Spin Energy          =      -0.1569094872703657 [Eh]
	 Opposite-Spin Energy      =      -0.4285956758344799 [Eh]
	 Correlation Energy        =      -0.5855051631048457 [Eh]
	 Total Energy              =   -1518.9493223418417074 [Eh]

	 ================> DF-SCS-MP2 Energies <==================
	-----------------------------------------------------------
	 SCS Same-Spin Scale       =       0.3333333333333333 [-]
	 SCS Opposite-Spin Scale   =       1.2000000000000000 [-]
	 SCS Same-Spin Energy      =      -0.0523031624234552 [Eh]
	 SCS Opposite-Spin Energy  =      -0.5143148110013759 [Eh]
	 SCS Correlation Energy    =      -0.5666179734248311 [Eh]
	 SCS Total Energy          =   -1518.9304351521616354 [Eh]
	-----------------------------------------------------------

*** Psi4 exiting successfully. Buy a developer a beer!
