                               Psi4 1.9 release

  ==> Input File <==

--------------------------------------------------------------------------
MEMORY 60 GB

molecule dimer {
-1 1
Gh(K)      0.000000     0.000000     0.000000
Gh(Cl)     0.000000     2.633546     0.000000
Cl         5.267092     0.000000     0.000000

units ang
no_reorient
no_com
symmetry c1
}

set {
basis        aug-cc-pVTZ
scf_type     df
}

energy("mp2")
--------------------------------------------------------------------------

    Molecular point group: c1

    Geometry (in Angstrom), charge = -1, multiplicity = 1:

       Center              X                  Y                   Z               Mass
    ------------   -----------------  -----------------  -----------------  -----------------
      Gh(K)           0.000000000000     0.000000000000     0.000000000000    38.963706486400
      Gh(CL)          0.000000000000     2.633546000000     0.000000000000    34.968852682000
         CL           5.267092000000     0.000000000000     0.000000000000    34.968852682000

  Charge       = -1
  Multiplicity = 1
  Basis Set: AUG-CC-PVTZ
    Blend: AUG-CC-PVTZ
  Basis Set: (AUG-CC-PVTZ AUX)
    Blend: AUG-CC-PVTZ-JKFIT + DEF2-UNIVERSAL-JKFIT

    Orbital Energies [Eh]
    ---------------------

    Doubly Occupied:

       1A   -104.506042     2A    -10.229766     3A     -7.695802
       4A     -7.695802     5A     -7.695799     6A     -0.733516
       7A     -0.150340     8A     -0.150340     9A     -0.150340

  @DF-RHF Final Energy:  -459.57348588320713

   => Energetics <=

    Nuclear Repulsion Energy =              0.0000000000000000
    One-Electron Energy =                -641.1314776469848766
    Two-Electron Energy =                 181.5579917637777214
    Total Energy =                       -459.5734858832071268
 Dipole X            :       -179.1606821          169.2071431           -9.9535390
 Dipole Y            :         -0.0000600            0.0000000           -0.0000600
 Dipole Z            :         -0.0000000            0.0000000           -0.0000000
 Magnitude           :                                                    9.9535390
  Basis Set: (AUG-CC-PVTZ AUX)
    Blend: AUG-CC-PVTZ-RI + DEF2-QZVPP-RI
	 Reference Energy          =    -459.5734858832071268 [Eh]
	 Singles Energy            =      -0.0000000000000000 [Eh]
	 Same-Spin Energy          =      -0.0623250610952661 [Eh]
	 Opposite-Spin Energy      =      -0.1788341283622684 [Eh]
	 Correlation Energy        =      -0.2411591894575345 [Eh]
	 Total Energy              =    -459.8146450726646890 [Eh]

	 ================> DF-SCS-MP2 Energies <==================
	-----------------------------------------------------------
	 SCS Same-Spin Scale       =       0.3333333333333333 [-]
	 SCS Opposite-Spin Scale   =       1.2000000000000000 [-]
	 SCS Same-Spin Energy      =      -0.0207750203650887 [Eh]
	 SCS Opposite-Spin Energy  =      -0.2146009540347220 [Eh]
	 SCS Correlation Energy    =      -0.2353759743998107 [Eh]
	 SCS Total Energy          =    -459.8088618576069280 [Eh]
	-----------------------------------------------------------

*** Psi4 exiting successfully. Buy a developer a beer!
