                               Psi4 1.9 release

  ==> Input File <==

--------------------------------------------------------------------------
MEMORY 60 GB

molecule dimer {
1 1
K      0.000000     0.000000     0.000000
--
-1 1
Cl     0.000000     2.633546     0.000000
--
-1 1
Cl     5.267092     0.000000     0.000000

units ang
no_reorient
no_com
symmetry c1
}

set {
basis        aug-cc-pVTZ
scf_type     df
}

energy("mp2", bsse_type="cp")
--------------------------------------------------------------------------

                               Psi4 1.9 release
    Molecular point group: c1
  Charge       = 1
  Multiplicity = 1
  Basis Set: AUG-CC-PVTZ
    Blend: AUG-CC-PVTZ
  Basis Set: (AUG-CC-PVTZ AUX)
    Blend: AUG-CC-PVTZ-JKFIT + DEF2-UNIVERSAL-JKFIT
  @DF-RHF Final Energy:  -599.01750807589417
    Total Energy =                       -599.0175080758940567
 Dipole X            :          0.0000063            0.0000000            0.0000063
 Dipole Y            :          0.0005446            0.0000000            0.0005446
 Dipole Z            :          0.0000000            0.0000000            0.0000000
 Magnitude           :                                                    0.0005446
  Basis Set: (AUG-CC-PVTZ AUX)
    Blend: AUG-CC-PVTZ-RI + DEF2-QZVPP-RI
	 Reference Energy          =    -599.0175080758941704 [Eh]
	 Singles Energy            =      -0.0000000000000000 [Eh]
	 Same-Spin Energy          =      -0.0282217633759653 [Eh]
	 Opposite-Spin Energy      =      -0.0659736791712229 [Eh]
	 Correlation Energy        =      -0.0941954425471882 [Eh]
	 Total Energy              =    -599.1117035184413453 [Eh]
	 SCS Total Energy          =    -599.1060837453583190 [Eh]
                               Psi4 1.9 release
    Molecular point group: c1
  Basis Set: AUG-CC-PVTZ
    Blend: AUG-CC-PVTZ
  Basis Set: (AUG-CC-PVTZ AUX)
    Blend: AUG-CC-PVTZ-JKFIT + DEF2-UNIVERSAL-JKFIT
  @DF-RHF Final Energy:  -459.57349837774234
    Total Energy =                       -459.5734983777423963
  Basis Set: (AUG-CC-PVTZ AUX)
                               Psi4 1.9 release
  @DF-RHF Final Energy:  -919.05906337697729
    Total Energy =                       -919.0590633769772921
                               Psi4 1.9 release
  @DF-RHF Final Energy: -1058.69361398436513
    Total Energy =                      -1058.6936139843651290
                               Psi4 1.9 release
  @DF-RHF Final Energy: -1058.76867795819908
    Total Energy =                      -1058.7686779581990777
                               Psi4 1.9 release
  Multiplicity = 1
  @DF-RHF Final Energy:  -459.57348588320718
    Total Energy =                       -459.5734858832072405
	 Singles Energy            =      -0.0000000000000000 [Eh]
	 Same-Spin Energy          =      -0.0623250610952661 [Eh]
	 Opposite-Spin Energy      =      -0.1788341283622686 [Eh]
	 Correlation Energy        =      -0.2411591894575346 [Eh]
	 Total Energy              =    -459.8146450726647458 [Eh]
	 SCS Total Energy          =    -459.8088618576069848 [Eh]
                               Psi4 1.9 release
    Molecular point group: c1

    Geometry (in Bohr), charge = -1, multiplicity = 1:

       Center              X                  Y                   Z               Mass
    ------------   -----------------  -----------------  -----------------  -----------------
         K            0.000000000000     0.000000000000     0.000000000000    38.963706486400
         CL           0.000000000000     4.976680678795     0.000000000000    34.968852682000
         CL           9.953361357590     0.000000000000     0.000000000000    34.968852682000

  Charge       = -1
  Multiplicity = 1
  Basis Set: AUG-CC-PVTZ
    Blend: AUG-CC-PVTZ
  Basis Set: (AUG-CC-PVTZ AUX)
    Blend: AUG-CC-PVTZ-JKFIT + DEF2-UNIVERSAL-JKFIT

    Orbital Energies [Eh]
    ---------------------

    Doubly Occupied:

       1A   -133.423920     2A   -104.595155     3A   -104.517021
       4A    -14.381742     5A    -11.411470     6A    -11.411434
       7A    -11.411402     8A    -10.321002     9A    -10.240746
      10A     -7.787141    11A     -7.786941    12A     -7.786914
      13A     -7.706805    14A     -7.706770    15A     -7.706756
      16A     -1.644976    17A     -0.875381    18A     -0.854843
      19A     -0.853461    20A     -0.812507    21A     -0.744398
      22A     -0.257485    23A     -0.248713    24A     -0.247706
      25A     -0.161691    26A     -0.161088    27A     -0.160783

  @DF-RHF Final Energy: -1518.35197717321375

   => Energetics <=

    Nuclear Repulsion Energy =            123.3241127393566501
    One-Electron Energy =               -2352.9156792138655874
    Two-Electron Energy =                 711.2395893012951547
    Total Energy =                      -1518.3519771732137542
 Dipole X            :       -178.8535980          169.2071431           -9.6464549
 Dipole Y            :        -88.7125204           84.6035715           -4.1089489
 Dipole Z            :          0.0000000            0.0000000            0.0000000
 Magnitude           :                                                   10.4851110
  Basis Set: (AUG-CC-PVTZ AUX)
    Blend: AUG-CC-PVTZ-RI + DEF2-QZVPP-RI
	 Reference Energy          =   -1518.3519771732137542 [Eh]
	 Singles Energy            =      -0.0000000000000000 [Eh]
	 Same-Spin Energy          =      -0.1558397169948017 [Eh]
	 Opposite-Spin Energy      =      -0.4265079906253553 [Eh]
	 Correlation Energy        =      -0.5823477076201570 [Eh]
	 Total Energy              =   -1518.9343248808338558 [Eh]

	 ================> DF-SCS-MP2 Energies <==================
	-----------------------------------------------------------
	 SCS Same-Spin Scale       =       0.3333333333333333 [-]
	 SCS Opposite-Spin Scale   =       1.2000000000000000 [-]
	 SCS Same-Spin Energy      =      -0.0519465723316006 [Eh]
	 SCS Opposite-Spin Energy  =      -0.5118095887504264 [Eh]
	 SCS Correlation Energy    =      -0.5637561610820270 [Eh]
	 SCS Total Energy          =   -1518.9157333342957372 [Eh]
	-----------------------------------------------------------

*** Psi4 exiting successfully. Buy a developer a beer!
