                               Psi4 1.9 release

  ==> Input File <==

--------------------------------------------------------------------------
MEMORY 60 GB

molecule dimer {
-1 1
Gh(K)      0.000000     0.000000     0.000000
Cl         0.000000     2.633546     0.000000
Gh(Cl)     2.896901     0.000000     0.000000

units ang
no_reorient
no_com
symmetry c1
}

set {
basis        aug-cc-pVTZ
scf_type     df
}

energy("mp2")
--------------------------------------------------------------------------

    Molecular point group: c1

    Geometry (in Angstrom), charge = -1, multiplicity = 1:

       Center              X                  Y                   Z               Mass
    ------------   -----------------  -----------------  -----------------  -----------------
      Gh(K)           0.000000000000     0.000000000000     0.000000000000    38.963706486400
         CL           0.000000000000     2.633546000000     0.000000000000    34.968852682000
      Gh(CL)          2.896901000000     0.000000000000     0.000000000000    34.968852682000

  Charge       = -1
  Multiplicity = 1
  Basis Set: AUG-CC-PVTZ
    Blend: AUG-CC-PVTZ
  Basis Set: (AUG-CC-PVTZ AUX)
    Blend: AUG-CC-PVTZ-JKFIT + DEF2-UNIVERSAL-JKFIT

    Orbital Energies [Eh]
    ---------------------

    Doubly Occupied:

       1A   -104.506304     2A    -10.229829     3A     -7.695875
       4A     -7.695872     5A     -7.695861     6A     -0.733504
       7A     -0.150334     8A     -0.150330     9A     -0.150329

  @DF-RHF Final Energy:  -459.57350174322431

   => Energetics <=

    Nuclear Repulsion Energy =              0.0000000000000000
    One-Electron Energy =                -641.1305258405835730
    Two-Electron Energy =                 181.5570240973592604
    Total Energy =                       -459.5735017432243126
 Dipole X            :          0.0000331            0.0000000            0.0000331
 Dipole Y            :        -89.5811334           84.6035715           -4.9775619
 Dipole Z            :          0.0000000            0.0000000            0.0000000
 Magnitude           :                                                    4.9775619
  Basis Set: (AUG-CC-PVTZ AUX)
    Blend: AUG-CC-PVTZ-RI + DEF2-QZVPP-RI
	 Reference Energy          =    -459.5735017432243126 [Eh]
	 Singles Energy            =      -0.0000000000000000 [Eh]
	 Same-Spin Energy          =      -0.0625373750471962 [Eh]
	 Opposite-Spin Energy      =      -0.1795179130197417 [Eh]
	 Correlation Energy        =      -0.2420552880669379 [Eh]
	 Total Energy              =    -459.8155570312912346 [Eh]

	 ================> DF-SCS-MP2 Energies <==================
	-----------------------------------------------------------
	 SCS Same-Spin Scale       =       0.3333333333333333 [-]
	 SCS Opposite-Spin Scale   =       1.2000000000000000 [-]
	 SCS Same-Spin Energy      =      -0.0208457916823987 [Eh]
	 SCS Opposite-Spin Energy  =      -0.2154214956236900 [Eh]
	 SCS Correlation Energy    =      -0.2362672873060888 [Eh]
	 SCS Total Energy          =    -459.8097690305303900 [Eh]
	-----------------------------------------------------------

*** Psi4 exiting successfully. Buy a developer a beer!
