                               Psi4 1.9 release

  ==> Input File <==

--------------------------------------------------------------------------
MEMORY 60 GB

molecule dimer {
-1 1
Gh(K)      0.000000     0.000000     0.000000
Cl         0.000000     2.633546     0.000000
Gh(Cl)     3.160255     0.000000     0.000000

units ang
no_reorient
no_com
symmetry c1
}

set {
basis        aug-cc-pVTZ
scf_type     df
}

energy("mp2")
--------------------------------------------------------------------------

    Molecular point group: c1

    Geometry (in Angstrom), charge = -1, multiplicity = 1:

       Center              X                  Y                   Z               Mass
    ------------   -----------------  -----------------  -----------------  -----------------
      Gh(K)           0.000000000000     0.000000000000     0.000000000000    38.963706486400
         CL           0.000000000000     2.633546000000     0.000000000000    34.968852682000
      Gh(CL)          3.160255000000     0.000000000000     0.000000000000    34.968852682000

  Charge       = -1
  Multiplicity = 1
  Basis Set: AUG-CC-PVTZ
    Blend: AUG-CC-PVTZ
  Basis Set: (AUG-CC-PVTZ AUX)
    Blend: AUG-CC-PVTZ-JKFIT + DEF2-UNIVERSAL-JKFIT

    Orbital Energies [Eh]
    ---------------------

    Doubly Occupied:

       1A   -104.506299     2A    -10.229828     3A     -7.695874
       4A     -7.695871     5A     -7.695859     6A     -0.733504
       7A     -0.150334     8A     -0.150330     9A     -0.150330

  @DF-RHF Final Energy:  -459.57350086696277

   => Energetics <=

    Nuclear Repulsion Energy =              0.0000000000000000
    One-Electron Energy =                -641.1305412334378389
    Two-Electron Energy =                 181.5570403664750643
    Total Energy =                       -459.5735008669627746
 Dipole X            :          0.0000672            0.0000000            0.0000672
 Dipole Y            :        -89.5811779           84.6035715           -4.9776064
 Dipole Z            :          0.0000000            0.0000000            0.0000000
 Magnitude           :                                                    4.9776064
  Basis Set: (AUG-CC-PVTZ AUX)
    Blend: AUG-CC-PVTZ-RI + DEF2-QZVPP-RI
	 Reference Energy          =    -459.5735008669627746 [Eh]
	 Singles Energy            =      -0.0000000000000000 [Eh]
	 Same-Spin Energy          =      -0.0625330089469157 [Eh]
	 Opposite-Spin Energy      =      -0.1795029832526665 [Eh]
	 Correlation Energy        =      -0.2420359921995823 [Eh]
	 Total Energy              =    -459.8155368591623642 [Eh]

	 ================> DF-SCS-MP2 Energies <==================
	-----------------------------------------------------------
	 SCS Same-Spin Scale       =       0.3333333333333333 [-]
	 SCS Opposite-Spin Scale   =       1.2000000000000000 [-]
	 SCS Same-Spin Energy      =      -0.0208443363156386 [Eh]
	 SCS Opposite-Spin Energy  =      -0.2154035799031998 [Eh]
	 SCS Correlation Energy    =      -0.2362479162188384 [Eh]
	 SCS Total Energy          =    -459.8097487831815897 [Eh]
	-----------------------------------------------------------

*** Psi4 exiting successfully. Buy a developer a beer!
