                               Psi4 1.9 release

  ==> Input File <==

--------------------------------------------------------------------------
MEMORY 60 GB

molecule dimer {
-1 1
Gh(K)      0.000000     0.000000     0.000000
Gh(Cl)     0.000000     2.633546     0.000000
Cl         3.950319     0.000000     0.000000

units ang
no_reorient
no_com
symmetry c1
}

set {
basis        aug-cc-pVTZ
scf_type     df
}

energy("mp2")
--------------------------------------------------------------------------

    Molecular point group: c1

    Geometry (in Angstrom), charge = -1, multiplicity = 1:

       Center              X                  Y                   Z               Mass
    ------------   -----------------  -----------------  -----------------  -----------------
      Gh(K)           0.000000000000     0.000000000000     0.000000000000    38.963706486400
      Gh(CL)          0.000000000000     2.633546000000     0.000000000000    34.968852682000
         CL           3.950319000000     0.000000000000     0.000000000000    34.968852682000

  Charge       = -1
  Multiplicity = 1
  Basis Set: AUG-CC-PVTZ
    Blend: AUG-CC-PVTZ
  Basis Set: (AUG-CC-PVTZ AUX)
    Blend: AUG-CC-PVTZ-JKFIT + DEF2-UNIVERSAL-JKFIT

    Orbital Energies [Eh]
    ---------------------

    Doubly Occupied:

       1A   -104.506136     2A    -10.229788     3A     -7.695829
       4A     -7.695828     5A     -7.695819     6A     -0.733511
       7A     -0.150339     8A     -0.150336     9A     -0.150334

  @DF-RHF Final Energy:  -459.57349190272595

   => Energetics <=

    Nuclear Repulsion Energy =              0.0000000000000000
    One-Electron Energy =                -641.1311431271278707
    Two-Electron Energy =                 181.5576512244019227
    Total Energy =                       -459.5734919027259480
 Dipole X            :       -134.3707462          126.9053573           -7.4653889
 Dipole Y            :         -0.0001185            0.0000000           -0.0001185
 Dipole Z            :         -0.0000000            0.0000000           -0.0000000
 Magnitude           :                                                    7.4653889
  Basis Set: (AUG-CC-PVTZ AUX)
    Blend: AUG-CC-PVTZ-RI + DEF2-QZVPP-RI
	 Reference Energy          =    -459.5734919027259480 [Eh]
	 Singles Energy            =      -0.0000000000000000 [Eh]
	 Same-Spin Energy          =      -0.0624045245430113 [Eh]
	 Opposite-Spin Energy      =      -0.1790804988875351 [Eh]
	 Correlation Energy        =      -0.2414850234305464 [Eh]
	 Total Energy              =    -459.8149769261564757 [Eh]

	 ================> DF-SCS-MP2 Energies <==================
	-----------------------------------------------------------
	 SCS Same-Spin Scale       =       0.3333333333333333 [-]
	 SCS Opposite-Spin Scale   =       1.2000000000000000 [-]
	 SCS Same-Spin Energy      =      -0.0208015081810038 [Eh]
	 SCS Opposite-Spin Energy  =      -0.2148965986650421 [Eh]
	 SCS Correlation Energy    =      -0.2356981068460459 [Eh]
	 SCS Total Energy          =    -459.8091900095719780 [Eh]
	-----------------------------------------------------------

*** Psi4 exiting successfully. Buy a developer a beer!
