                               Psi4 1.9 release

  ==> Input File <==

--------------------------------------------------------------------------
MEMORY 60 GB

molecule dimer {
1 1
K      0.000000     0.000000     0.000000
--
-1 1
Cl     0.000000     2.633546     0.000000
--
-1 1
Cl     3.686964     0.000000     0.000000

units ang
no_reorient
no_com
symmetry c1
}

set {
basis        aug-cc-pVTZ
scf_type     df
}

energy("mp2", bsse_type="cp")
--------------------------------------------------------------------------

                               Psi4 1.9 release
    Molecular point group: c1
  Charge       = 1
  Multiplicity = 1
  Basis Set: AUG-CC-PVTZ
    Blend: AUG-CC-PVTZ
  Basis Set: (AUG-CC-PVTZ AUX)
    Blend: AUG-CC-PVTZ-JKFIT + DEF2-UNIVERSAL-JKFIT
  @DF-RHF Final Energy:  -599.01750903141192
    Total Energy =                       -599.0175090314119188
 Dipole X            :          0.0002314            0.0000000            0.0002314
 Dipole Y            :          0.0004843            0.0000000            0.0004843
 Dipole Z            :          0.0000000            0.0000000            0.0000000
 Magnitude           :                                                    0.0005368
  Basis Set: (AUG-CC-PVTZ AUX)
    Blend: AUG-CC-PVTZ-RI + DEF2-QZVPP-RI
	 Reference Energy          =    -599.0175090314119188 [Eh]
	 Singles Energy            =      -0.0000000000000000 [Eh]
	 Same-Spin Energy          =      -0.0287897361405383 [Eh]
	 Opposite-Spin Energy      =      -0.0675050365814332 [Eh]
	 Correlation Energy        =      -0.0962947727219715 [Eh]
	 Total Energy              =    -599.1138038041339087 [Eh]
	 SCS Total Energy          =    -599.1081116540231051 [Eh]
                               Psi4 1.9 release
    Molecular point group: c1
  Basis Set: AUG-CC-PVTZ
    Blend: AUG-CC-PVTZ
  Basis Set: (AUG-CC-PVTZ AUX)
    Blend: AUG-CC-PVTZ-JKFIT + DEF2-UNIVERSAL-JKFIT
  @DF-RHF Final Energy:  -459.57350096384778
    Total Energy =                       -459.5735009638477777
  Basis Set: (AUG-CC-PVTZ AUX)
                               Psi4 1.9 release
  @DF-RHF Final Energy:  -919.03542007553676
    Total Energy =                       -919.0354200755367629
                               Psi4 1.9 release
  @DF-RHF Final Energy: -1058.74001660283079
    Total Energy =                      -1058.7400166028307922
                               Psi4 1.9 release
  @DF-RHF Final Energy: -1058.76871142395657
    Total Energy =                      -1058.7687114239565744
                               Psi4 1.9 release
  Multiplicity = 1
  @DF-RHF Final Energy:  -459.57349456934656
    Total Energy =                       -459.5734945693465079
	 Singles Energy            =      -0.0000000000000000 [Eh]
	 Same-Spin Energy          =      -0.0624340726543246 [Eh]
	 Opposite-Spin Energy      =      -0.1791687955680694 [Eh]
	 Correlation Energy        =      -0.2416028682223940 [Eh]
	 Total Energy              =    -459.8150974375689657 [Eh]
	 SCS Total Energy          =    -459.8093084815797056 [Eh]
                               Psi4 1.9 release
    Molecular point group: c1

    Geometry (in Bohr), charge = -1, multiplicity = 1:

       Center              X                  Y                   Z               Mass
    ------------   -----------------  -----------------  -----------------  -----------------
         K            0.000000000000     0.000000000000     0.000000000000    38.963706486400
         CL           0.000000000000     4.976680678795     0.000000000000    34.968852682000
         CL           6.967352194422     0.000000000000     0.000000000000    34.968852682000

  Charge       = -1
  Multiplicity = 1
  Basis Set: AUG-CC-PVTZ
    Blend: AUG-CC-PVTZ
  Basis Set: (AUG-CC-PVTZ AUX)
    Blend: AUG-CC-PVTZ-JKFIT + DEF2-UNIVERSAL-JKFIT

    Orbital Energies [Eh]
    ---------------------

    Doubly Occupied:

       1A   -133.380985     2A   -104.567586     3A   -104.533005
       4A    -14.338772     5A    -11.368529     6A    -11.368476
       7A    -11.368387     8A    -10.293441     9A    -10.256702
      10A     -7.759578    11A     -7.759395    12A     -7.759346
      13A     -7.722801    14A     -7.722730    15A     -7.722690
      16A     -1.601987    17A     -0.839441    18A     -0.812607
      19A     -0.809017    20A     -0.778954    21A     -0.760811
      22A     -0.229715    23A     -0.221633    24A     -0.220330
      25A     -0.180526    26A     -0.177039    27A     -0.175812

  @DF-RHF Final Energy: -1518.36756931643436

   => Energetics <=

    Nuclear Repulsion Energy =            145.0147613190546849
    One-Electron Energy =               -2397.3040736720113273
    Two-Electron Energy =                 733.9217430365222299
    Total Energy =                      -1518.3675693164343556
 Dipole X            :       -124.8203201          118.4449873           -6.3753328
 Dipole Y            :        -88.7305948           84.6035715           -4.1270232
 Dipole Z            :         -0.0000000            0.0000000           -0.0000000
 Magnitude           :                                                    7.5945500
  Basis Set: (AUG-CC-PVTZ AUX)
    Blend: AUG-CC-PVTZ-RI + DEF2-QZVPP-RI
	 Reference Energy          =   -1518.3675693164343556 [Eh]
	 Singles Energy            =      -0.0000000000000000 [Eh]
	 Same-Spin Energy          =      -0.1573061751962679 [Eh]
	 Opposite-Spin Energy      =      -0.4292452101358629 [Eh]
	 Correlation Energy        =      -0.5865513853321308 [Eh]
	 Total Energy              =   -1518.9541207017664419 [Eh]

	 ================> DF-SCS-MP2 Energies <==================
	-----------------------------------------------------------
	 SCS Same-Spin Scale       =       0.3333333333333333 [-]
	 SCS Opposite-Spin Scale   =       1.2000000000000000 [-]
	 SCS Same-Spin Energy      =      -0.0524353917320893 [Eh]
	 SCS Opposite-Spin Energy  =      -0.5150942521630355 [Eh]
	 SCS Correlation Energy    =      -0.5675296438951248 [Eh]
	 SCS Total Energy          =   -1518.9350989603294693 [Eh]
	-----------------------------------------------------------

*** Psi4 exiting successfully. Buy a developer a beer!
