                               Psi4 1.9 release

  ==> Input File <==

--------------------------------------------------------------------------
MEMORY 60 GB

molecule dimer {
-1 1
Gh(K)      0.000000     0.000000     0.000000
Gh(Cl)     0.000000     2.633546     0.000000
Cl         3.686964     0.000000     0.000000

units ang
no_reorient
no_com
symmetry c1
}

set {
basis        aug-cc-pVTZ
scf_type     df
}

energy("mp2")
--------------------------------------------------------------------------

    Molecular point group: c1

    Geometry (in Angstrom), charge = -1, multiplicity = 1:

       Center              X                  Y                   Z               Mass
    ------------   -----------------  -----------------  -----------------  -----------------
      Gh(K)           0.000000000000     0.000000000000     0.000000000000    38.963706486400
      Gh(CL)          0.000000000000     2.633546000000     0.000000000000    34.968852682000
         CL           3.686964000000     0.000000000000     0.000000000000    34.968852682000

  Charge       = -1
  Multiplicity = 1
  Basis Set: AUG-CC-PVTZ
    Blend: AUG-CC-PVTZ
  Basis Set: (AUG-CC-PVTZ AUX)
    Blend: AUG-CC-PVTZ-JKFIT + DEF2-UNIVERSAL-JKFIT

    Orbital Energies [Eh]
    ---------------------

    Doubly Occupied:

       1A   -104.506176     2A    -10.229798     3A     -7.695841
       4A     -7.695840     5A     -7.695826     6A     -0.733509
       7A     -0.150339     8A     -0.150334     9A     -0.150333

  @DF-RHF Final Energy:  -459.57349456934702

   => Energetics <=

    Nuclear Repulsion Energy =              0.0000000000000000
    One-Electron Energy =                -641.1309951216577474
    Two-Electron Energy =                 181.5575005523106995
    Total Energy =                       -459.5734945693470763
 Dipole X            :       -125.4127964          118.4449873           -6.9678091
 Dipole Y            :         -0.0000925            0.0000000           -0.0000925
 Dipole Z            :          0.0000000            0.0000000            0.0000000
 Magnitude           :                                                    6.9678091
  Basis Set: (AUG-CC-PVTZ AUX)
    Blend: AUG-CC-PVTZ-RI + DEF2-QZVPP-RI
	 Reference Energy          =    -459.5734945693470195 [Eh]
	 Singles Energy            =      -0.0000000000000000 [Eh]
	 Same-Spin Energy          =      -0.0624340726543249 [Eh]
	 Opposite-Spin Energy      =      -0.1791687955680712 [Eh]
	 Correlation Energy        =      -0.2416028682223961 [Eh]
	 Total Energy              =    -459.8150974375694204 [Eh]

	 ================> DF-SCS-MP2 Energies <==================
	-----------------------------------------------------------
	 SCS Same-Spin Scale       =       0.3333333333333333 [-]
	 SCS Opposite-Spin Scale   =       1.2000000000000000 [-]
	 SCS Same-Spin Energy      =      -0.0208113575514416 [Eh]
	 SCS Opposite-Spin Energy  =      -0.2150025546816855 [Eh]
	 SCS Correlation Energy    =      -0.2358139122331271 [Eh]
	 SCS Total Energy          =    -459.8093084815801603 [Eh]
	-----------------------------------------------------------

*** Psi4 exiting successfully. Buy a developer a beer!
