                               Psi4 1.9 release

  ==> Input File <==

--------------------------------------------------------------------------
MEMORY 60 GB

molecule dimer {
-1 1
K          0.000000     0.000000     0.000000
Cl         0.000000     2.633546     0.000000
Cl         2.633546     0.000000     0.000000

units ang
no_reorient
no_com
symmetry c1
}

set {
basis        aug-cc-pVTZ
scf_type     df
}

energy("mp2")
--------------------------------------------------------------------------

    Molecular point group: c1

    Geometry (in Angstrom), charge = -1, multiplicity = 1:

       Center              X                  Y                   Z               Mass
    ------------   -----------------  -----------------  -----------------  -----------------
         K            0.000000000000     0.000000000000     0.000000000000    38.963706486400
         CL           0.000000000000     2.633546000000     0.000000000000    34.968852682000
         CL           2.633546000000     0.000000000000     0.000000000000    34.968852682000

  Charge       = -1
  Multiplicity = 1
  Basis Set: AUG-CC-PVTZ
    Blend: AUG-CC-PVTZ
  Basis Set: (AUG-CC-PVTZ AUX)
    Blend: AUG-CC-PVTZ-JKFIT + DEF2-UNIVERSAL-JKFIT

    Orbital Energies [Eh]
    ---------------------

    Doubly Occupied:

       1A   -133.319411     2A   -104.544136     3A   -104.544136
       4A    -14.279067     5A    -11.308554     6A    -11.308536
       7A    -11.308420     8A    -10.270041     9A    -10.270040
      10A     -7.736159    11A     -7.736157    12A     -7.736001
      13A     -7.736001    14A     -7.735947    15A     -7.735945
      16A     -1.548575    17A     -0.805740    18A     -0.803498
      19A     -0.760140    20A     -0.739699    21A     -0.737483
      22A     -0.212121    23A     -0.205899    24A     -0.201762
      25A     -0.201684    26A     -0.195951    27A     -0.183831

  @DF-RHF Final Energy: -1518.36891072299022

   => Energetics <=

    Nuclear Repulsion Energy =            170.8676755947328161
    One-Electron Energy =               -2450.1433025939259096
    Two-Electron Energy =                 760.9067162762029284
    Total Energy =                      -1518.3689107229902220
 Dipole X            :        -88.7928263           84.6035715           -4.1892548
 Dipole Y            :        -88.7928263           84.6035715           -4.1892548
 Dipole Z            :         -0.0000000            0.0000000           -0.0000000
 Magnitude           :                                                    5.9245009
  Basis Set: (AUG-CC-PVTZ AUX)
    Blend: AUG-CC-PVTZ-RI + DEF2-QZVPP-RI
	 Reference Energy          =   -1518.3689107229902220 [Eh]
	 Singles Energy            =      -0.0000000000000000 [Eh]
	 Same-Spin Energy          =      -0.1624949636798302 [Eh]
	 Opposite-Spin Energy      =      -0.4379368837271047 [Eh]
	 Correlation Energy        =      -0.6004318474069349 [Eh]
	 Total Energy              =   -1518.9693425703972025 [Eh]

	 ================> DF-SCS-MP2 Energies <==================
	-----------------------------------------------------------
	 SCS Same-Spin Scale       =       0.3333333333333333 [-]
	 SCS Opposite-Spin Scale   =       1.2000000000000000 [-]
	 SCS Same-Spin Energy      =      -0.0541649878932767 [Eh]
	 SCS Opposite-Spin Energy  =      -0.5255242604725257 [Eh]
	 SCS Correlation Energy    =      -0.5796892483658024 [Eh]
	 SCS Total Energy          =   -1518.9485999713560886 [Eh]
	-----------------------------------------------------------

*** Psi4 exiting successfully. Buy a developer a beer!
