                               Psi4 1.9 release

  ==> Input File <==

--------------------------------------------------------------------------
MEMORY 60 GB

molecule dimer {
-1 1
Gh(K)      0.000000     0.000000     0.000000
Gh(Cl)     0.000000     2.633546     0.000000
Cl         3.160255     0.000000     0.000000

units ang
no_reorient
no_com
symmetry c1
}

set {
basis        aug-cc-pVTZ
scf_type     df
}

energy("mp2")
--------------------------------------------------------------------------

    Molecular point group: c1

    Geometry (in Angstrom), charge = -1, multiplicity = 1:

       Center              X                  Y                   Z               Mass
    ------------   -----------------  -----------------  -----------------  -----------------
      Gh(K)           0.000000000000     0.000000000000     0.000000000000    38.963706486400
      Gh(CL)          0.000000000000     2.633546000000     0.000000000000    34.968852682000
         CL           3.160255000000     0.000000000000     0.000000000000    34.968852682000

  Charge       = -1
  Multiplicity = 1
  Basis Set: AUG-CC-PVTZ
    Blend: AUG-CC-PVTZ
  Basis Set: (AUG-CC-PVTZ AUX)
    Blend: AUG-CC-PVTZ-JKFIT + DEF2-UNIVERSAL-JKFIT

    Orbital Energies [Eh]
    ---------------------

    Doubly Occupied:

       1A   -104.506277     2A    -10.229825     3A     -7.695872
       4A     -7.695870     5A     -7.695849     6A     -0.733506
       7A     -0.150337     8A     -0.150331     9A     -0.150331

  @DF-RHF Final Energy:  -459.57349967480434

   => Energetics <=

    Nuclear Repulsion Energy =              0.0000000000000000
    One-Electron Energy =                -641.1306007936342439
    Two-Electron Energy =                 181.5571011188299053
    Total Energy =                       -459.5734996748043386
 Dipole X            :       -107.4969025          101.5242794           -5.9726231
 Dipole Y            :          0.0000012            0.0000000            0.0000012
 Dipole Z            :          0.0000000            0.0000000            0.0000000
 Magnitude           :                                                    5.9726231
  Basis Set: (AUG-CC-PVTZ AUX)
    Blend: AUG-CC-PVTZ-RI + DEF2-QZVPP-RI
	 Reference Energy          =    -459.5734996748043386 [Eh]
	 Singles Energy            =      -0.0000000000000000 [Eh]
	 Same-Spin Energy          =      -0.0625013242006118 [Eh]
	 Opposite-Spin Energy      =      -0.1793718537983440 [Eh]
	 Correlation Energy        =      -0.2418731779989558 [Eh]
	 Total Energy              =    -459.8153728528033071 [Eh]

	 ================> DF-SCS-MP2 Energies <==================
	-----------------------------------------------------------
	 SCS Same-Spin Scale       =       0.3333333333333333 [-]
	 SCS Opposite-Spin Scale   =       1.2000000000000000 [-]
	 SCS Same-Spin Energy      =      -0.0208337747335373 [Eh]
	 SCS Opposite-Spin Energy  =      -0.2152462245580128 [Eh]
	 SCS Correlation Energy    =      -0.2360799992915500 [Eh]
	 SCS Total Energy          =    -459.8095796740959145 [Eh]
	-----------------------------------------------------------

*** Psi4 exiting successfully. Buy a developer a beer!
