                               Psi4 1.9 release

  ==> Input File <==

--------------------------------------------------------------------------
MEMORY 60 GB

molecule dimer {
1 1
K          0.000000     0.000000     0.000000
Gh(Cl)     0.000000     2.633546     0.000000
Gh(Cl)     2.633546     0.000000     0.000000

units ang
no_reorient
no_com
symmetry c1
}

set {
basis        aug-cc-pVTZ
scf_type     df
}

energy("mp2")
--------------------------------------------------------------------------

    Molecular point group: c1

    Geometry (in Angstrom), charge = 1, multiplicity = 1:

       Center              X                  Y                   Z               Mass
    ------------   -----------------  -----------------  -----------------  -----------------
         K            0.000000000000     0.000000000000     0.000000000000    38.963706486400
      Gh(CL)          0.000000000000     2.633546000000     0.000000000000    34.968852682000
      Gh(CL)          2.633546000000     0.000000000000     0.000000000000    34.968852682000

  Charge       = 1
  Multiplicity = 1
  Basis Set: AUG-CC-PVTZ
    Blend: AUG-CC-PVTZ
  Basis Set: (AUG-CC-PVTZ AUX)
    Blend: AUG-CC-PVTZ-JKFIT + DEF2-UNIVERSAL-JKFIT

    Orbital Energies [Eh]
    ---------------------

    Doubly Occupied:

       1A   -133.753446     2A    -14.708949     3A    -11.739017
       4A    -11.739017     5A    -11.739010     6A     -1.964234
       7A     -1.170886     8A     -1.170865     9A     -1.170815

  @DF-RHF Final Energy:  -599.01751010202508

   => Energetics <=

    Nuclear Repulsion Energy =              0.0000000000000000
    One-Electron Energy =                -819.7225438013119856
    Two-Electron Energy =                 220.7050336992869006
    Total Energy =                       -599.0175101020250850
 Dipole X            :          0.0004666            0.0000000            0.0004666
 Dipole Y            :          0.0004666            0.0000000            0.0004666
 Dipole Z            :          0.0000000            0.0000000            0.0000000
 Magnitude           :                                                    0.0006599
  Basis Set: (AUG-CC-PVTZ AUX)
    Blend: AUG-CC-PVTZ-RI + DEF2-QZVPP-RI
	 Reference Energy          =    -599.0175101020250850 [Eh]
	 Singles Energy            =      -0.0000000000000000 [Eh]
	 Same-Spin Energy          =      -0.0310355543599035 [Eh]
	 Opposite-Spin Energy      =      -0.0735836818340932 [Eh]
	 Correlation Energy        =      -0.1046192361939967 [Eh]
	 Total Energy              =    -599.1221293382191107 [Eh]

	 ================> DF-SCS-MP2 Energies <==================
	-----------------------------------------------------------
	 SCS Same-Spin Scale       =       0.3333333333333333 [-]
	 SCS Opposite-Spin Scale   =       1.2000000000000000 [-]
	 SCS Same-Spin Energy      =      -0.0103451847866345 [Eh]
	 SCS Opposite-Spin Energy  =      -0.0883004182009118 [Eh]
	 SCS Correlation Energy    =      -0.0986456029875463 [Eh]
	 SCS Total Energy          =    -599.1161557050126021 [Eh]
	-----------------------------------------------------------

*** Psi4 exiting successfully. Buy a developer a beer!
