                               Psi4 1.9 release

  ==> Input File <==

--------------------------------------------------------------------------
MEMORY 60 GB

molecule dimer {
1 1
K          0.000000     0.000000     0.000000
Gh(Cl)     0.000000     2.633546     0.000000
Gh(Cl)     3.160255     0.000000     0.000000

units ang
no_reorient
no_com
symmetry c1
}

set {
basis        aug-cc-pVTZ
scf_type     df
}

energy("mp2")
--------------------------------------------------------------------------

    Molecular point group: c1

    Geometry (in Angstrom), charge = 1, multiplicity = 1:

       Center              X                  Y                   Z               Mass
    ------------   -----------------  -----------------  -----------------  -----------------
         K            0.000000000000     0.000000000000     0.000000000000    38.963706486400
      Gh(CL)          0.000000000000     2.633546000000     0.000000000000    34.968852682000
      Gh(CL)          3.160255000000     0.000000000000     0.000000000000    34.968852682000

  Charge       = 1
  Multiplicity = 1
  Basis Set: AUG-CC-PVTZ
    Blend: AUG-CC-PVTZ
  Basis Set: (AUG-CC-PVTZ AUX)
    Blend: AUG-CC-PVTZ-JKFIT + DEF2-UNIVERSAL-JKFIT

    Orbital Energies [Eh]
    ---------------------

    Doubly Occupied:

       1A   -133.753568     2A    -14.709048     3A    -11.739116
       4A    -11.739112     5A    -11.739109     6A     -1.964283
       7A     -1.170920     8A     -1.170888     9A     -1.170859

  @DF-RHF Final Energy:  -599.01750928863180

   => Energetics <=

    Nuclear Repulsion Energy =              0.0000000000000000
    One-Electron Energy =                -819.7212079825337696
    Two-Electron Energy =                 220.7036986939019982
    Total Energy =                       -599.0175092886317998
 Dipole X            :          0.0002590            0.0000000            0.0002590
 Dipole Y            :          0.0004897            0.0000000            0.0004897
 Dipole Z            :         -0.0000000            0.0000000           -0.0000000
 Magnitude           :                                                    0.0005539
  Basis Set: (AUG-CC-PVTZ AUX)
    Blend: AUG-CC-PVTZ-RI + DEF2-QZVPP-RI
	 Reference Energy          =    -599.0175092886317998 [Eh]
	 Singles Energy            =      -0.0000000000000000 [Eh]
	 Same-Spin Energy          =      -0.0294293567775082 [Eh]
	 Opposite-Spin Energy      =      -0.0691222498373428 [Eh]
	 Correlation Energy        =      -0.0985516066148509 [Eh]
	 Total Energy              =    -599.1160608952466191 [Eh]

	 ================> DF-SCS-MP2 Energies <==================
	-----------------------------------------------------------
	 SCS Same-Spin Scale       =       0.3333333333333333 [-]
	 SCS Opposite-Spin Scale   =       1.2000000000000000 [-]
	 SCS Same-Spin Energy      =      -0.0098097855925027 [Eh]
	 SCS Opposite-Spin Energy  =      -0.0829466998048113 [Eh]
	 SCS Correlation Energy    =      -0.0927564853973140 [Eh]
	 SCS Total Energy          =    -599.1102657740291306 [Eh]
	-----------------------------------------------------------

*** Psi4 exiting successfully. Buy a developer a beer!
