                               Psi4 1.9 release

  ==> Input File <==

--------------------------------------------------------------------------
MEMORY 60 GB

molecule dimer {
-1 1
K          0.000000     0.000000     0.000000
Cl         0.000000     2.633546     0.000000
Cl         3.423610     0.000000     0.000000

units ang
no_reorient
no_com
symmetry c1
}

set {
basis        aug-cc-pVTZ
scf_type     df
}

energy("mp2")
--------------------------------------------------------------------------

    Molecular point group: c1

    Geometry (in Angstrom), charge = -1, multiplicity = 1:

       Center              X                  Y                   Z               Mass
    ------------   -----------------  -----------------  -----------------  -----------------
         K            0.000000000000     0.000000000000     0.000000000000    38.963706486400
         CL           0.000000000000     2.633546000000     0.000000000000    34.968852682000
         CL           3.423610000000     0.000000000000     0.000000000000    34.968852682000

  Charge       = -1
  Multiplicity = 1
  Basis Set: AUG-CC-PVTZ
    Blend: AUG-CC-PVTZ
  Basis Set: (AUG-CC-PVTZ AUX)
    Blend: AUG-CC-PVTZ-JKFIT + DEF2-UNIVERSAL-JKFIT

    Orbital Energies [Eh]
    ---------------------

    Doubly Occupied:

       1A   -133.369645     2A   -104.561938     3A   -104.536647
       4A    -14.327518     5A    -11.357269     6A    -11.357215
       7A    -11.357102     8A    -10.287800     9A    -10.260458
      10A     -7.753936    11A     -7.753757    12A     -7.753705
      13A     -7.726567    14A     -7.726494    15A     -7.726447
      16A     -1.591047    17A     -0.831327    18A     -0.801914
      19A     -0.798460    20A     -0.770886    21A     -0.764715
      22A     -0.224052    23A     -0.216144    24A     -0.215267
      25A     -0.186032    26A     -0.181328    27A     -0.179431

  @DF-RHF Final Energy: -1518.37152781818213

   => Energetics <=

    Nuclear Repulsion Energy =            150.2342576551564264
    One-Electron Energy =               -2407.9773738175467770
    Two-Electron Energy =                 739.3715883442083623
    Total Energy =                      -1518.3715278181821304
 Dipole X            :       -115.8053370          109.9846494           -5.8206876
 Dipole Y            :        -88.7407071           84.6035715           -4.1371355
 Dipole Z            :         -0.0000000            0.0000000           -0.0000000
 Magnitude           :                                                    7.1411690
  Basis Set: (AUG-CC-PVTZ AUX)
    Blend: AUG-CC-PVTZ-RI + DEF2-QZVPP-RI
	 Reference Energy          =   -1518.3715278181821304 [Eh]
	 Singles Energy            =      -0.0000000000000000 [Eh]
	 Same-Spin Energy          =      -0.1578990003763276 [Eh]
	 Opposite-Spin Energy      =      -0.4301936600648401 [Eh]
	 Correlation Energy        =      -0.5880926604411677 [Eh]
	 Total Energy              =   -1518.9596204786232647 [Eh]

	 ================> DF-SCS-MP2 Energies <==================
	-----------------------------------------------------------
	 SCS Same-Spin Scale       =       0.3333333333333333 [-]
	 SCS Opposite-Spin Scale   =       1.2000000000000000 [-]
	 SCS Same-Spin Energy      =      -0.0526330001254425 [Eh]
	 SCS Opposite-Spin Energy  =      -0.5162323920778080 [Eh]
	 SCS Correlation Energy    =      -0.5688653922032506 [Eh]
	 SCS Total Energy          =   -1518.9403932103853094 [Eh]
	-----------------------------------------------------------

*** Psi4 exiting successfully. Buy a developer a beer!
