                               Psi4 1.9 release

  ==> Input File <==

--------------------------------------------------------------------------
MEMORY 60 GB

molecule dimer {
0 1
K      0.000000     0.000000     0.000000
Cl     0.000000     2.633546     0.000000
--
-1 1
Cl     3.423610     0.000000     0.000000

units ang
no_reorient
no_com
symmetry c1
}

set {
basis        aug-cc-pVTZ
scf_type     df
}

energy("mp2", bsse_type="cp")
--------------------------------------------------------------------------

                               Psi4 1.9 release
    Molecular point group: c1
  Charge       = -1
  Multiplicity = 1
  Basis Set: AUG-CC-PVTZ
    Blend: AUG-CC-PVTZ
  Basis Set: (AUG-CC-PVTZ AUX)
    Blend: AUG-CC-PVTZ-JKFIT + DEF2-UNIVERSAL-JKFIT
  @DF-RHF Final Energy:  -459.57349719014280
    Total Energy =                       -459.5734971901428025
 Dipole X            :       -116.4548767          109.9846494           -6.4702273
 Dipole Y            :         -0.0000423            0.0000000           -0.0000423
 Dipole Z            :         -0.0000000            0.0000000           -0.0000000
 Magnitude           :                                                    6.4702273
  Basis Set: (AUG-CC-PVTZ AUX)
    Blend: AUG-CC-PVTZ-RI + DEF2-QZVPP-RI
	 Reference Energy          =    -459.5734971901428025 [Eh]
	 Singles Energy            =      -0.0000000000000000 [Eh]
	 Same-Spin Energy          =      -0.0624680883274907 [Eh]
	 Opposite-Spin Energy      =      -0.1792699732774419 [Eh]
	 Correlation Energy        =      -0.2417380616049326 [Eh]
	 Total Energy              =    -459.8152352517477084 [Eh]
	 SCS Total Energy          =    -459.8094438541849058 [Eh]
                               Psi4 1.9 release
    Molecular point group: c1
  Multiplicity = 1
  Basis Set: AUG-CC-PVTZ
    Blend: AUG-CC-PVTZ
  Basis Set: (AUG-CC-PVTZ AUX)
    Blend: AUG-CC-PVTZ-JKFIT + DEF2-UNIVERSAL-JKFIT
  @DF-RHF Final Energy: -1058.76871535600458
    Total Energy =                      -1058.7687153560045772
  Basis Set: (AUG-CC-PVTZ AUX)
	 Singles Energy            =      -0.0000000000000000 [Eh]
	 Same-Spin Energy          =      -0.0942289042016900 [Eh]
	 Opposite-Spin Energy      =      -0.2497193443289981 [Eh]
	 Correlation Energy        =      -0.3439482485306881 [Eh]
	 Total Energy              =   -1059.1126636045353280 [Eh]
	 SCS Total Energy          =   -1059.0997882039332580 [Eh]
                               Psi4 1.9 release
    Molecular point group: c1

    Geometry (in Bohr), charge = -1, multiplicity = 1:

       Center              X                  Y                   Z               Mass
    ------------   -----------------  -----------------  -----------------  -----------------
         K            0.000000000000     0.000000000000     0.000000000000    38.963706486400
         CL           0.000000000000     4.976680678795     0.000000000000    34.968852682000
         CL           6.469685260379     0.000000000000     0.000000000000    34.968852682000

  Charge       = -1
  Multiplicity = 1
  Basis Set: AUG-CC-PVTZ
    Blend: AUG-CC-PVTZ
  Basis Set: (AUG-CC-PVTZ AUX)
    Blend: AUG-CC-PVTZ-JKFIT + DEF2-UNIVERSAL-JKFIT

    Orbital Energies [Eh]
    ---------------------

    Doubly Occupied:

       1A   -133.369645     2A   -104.561938     3A   -104.536647
       4A    -14.327518     5A    -11.357269     6A    -11.357215
       7A    -11.357102     8A    -10.287800     9A    -10.260458
      10A     -7.753936    11A     -7.753757    12A     -7.753705
      13A     -7.726567    14A     -7.726494    15A     -7.726447
      16A     -1.591047    17A     -0.831327    18A     -0.801914
      19A     -0.798460    20A     -0.770886    21A     -0.764715
      22A     -0.224052    23A     -0.216144    24A     -0.215267
      25A     -0.186032    26A     -0.181328    27A     -0.179431

  @DF-RHF Final Energy: -1518.37152781818259

   => Energetics <=

    Nuclear Repulsion Energy =            150.2342576551564264
    One-Electron Energy =               -2407.9773738175508697
    Two-Electron Energy =                 739.3715883442120003
    Total Energy =                      -1518.3715278181825852
 Dipole X            :       -115.8053370          109.9846494           -5.8206876
 Dipole Y            :        -88.7407071           84.6035715           -4.1371355
 Dipole Z            :         -0.0000000            0.0000000           -0.0000000
 Magnitude           :                                                    7.1411690
  Basis Set: (AUG-CC-PVTZ AUX)
    Blend: AUG-CC-PVTZ-RI + DEF2-QZVPP-RI
	 Reference Energy          =   -1518.3715278181825852 [Eh]
	 Singles Energy            =      -0.0000000000000000 [Eh]
	 Same-Spin Energy          =      -0.1578990003763336 [Eh]
	 Opposite-Spin Energy      =      -0.4301936600648467 [Eh]
	 Correlation Energy        =      -0.5880926604411802 [Eh]
	 Total Energy              =   -1518.9596204786237195 [Eh]

	 ================> DF-SCS-MP2 Energies <==================
	-----------------------------------------------------------
	 SCS Same-Spin Scale       =       0.3333333333333333 [-]
	 SCS Opposite-Spin Scale   =       1.2000000000000000 [-]
	 SCS Same-Spin Energy      =      -0.0526330001254445 [Eh]
	 SCS Opposite-Spin Energy  =      -0.5162323920778160 [Eh]
	 SCS Correlation Energy    =      -0.5688653922032606 [Eh]
	 SCS Total Energy          =   -1518.9403932103857642 [Eh]
	-----------------------------------------------------------

*** Psi4 exiting successfully. Buy a developer a beer!
