                               Psi4 1.9 release

  ==> Input File <==

--------------------------------------------------------------------------
MEMORY 60 GB

molecule dimer {
1 1
K      0.000000     0.000000     0.000000
--
-1 1
Cl     0.000000     2.633546     0.000000
--
-1 1
Cl     3.160255     0.000000     0.000000

units ang
no_reorient
no_com
symmetry c1
}

set {
basis        aug-cc-pVTZ
scf_type     df
}

energy("mp2", bsse_type="cp")
--------------------------------------------------------------------------

                               Psi4 1.9 release
    Molecular point group: c1
  Charge       = 1
  Multiplicity = 1
  Basis Set: AUG-CC-PVTZ
    Blend: AUG-CC-PVTZ
  Basis Set: (AUG-CC-PVTZ AUX)
    Blend: AUG-CC-PVTZ-JKFIT + DEF2-UNIVERSAL-JKFIT
  @DF-RHF Final Energy:  -599.01750928863237
    Total Energy =                       -599.0175092886324819
 Dipole X            :          0.0002590            0.0000000            0.0002590
 Dipole Y            :          0.0004897            0.0000000            0.0004897
 Dipole Z            :         -0.0000000            0.0000000           -0.0000000
 Magnitude           :                                                    0.0005539
  Basis Set: (AUG-CC-PVTZ AUX)
    Blend: AUG-CC-PVTZ-RI + DEF2-QZVPP-RI
	 Reference Energy          =    -599.0175092886323682 [Eh]
	 Singles Energy            =      -0.0000000000000000 [Eh]
	 Same-Spin Energy          =      -0.0294293567775206 [Eh]
	 Opposite-Spin Energy      =      -0.0691222498373505 [Eh]
	 Correlation Energy        =      -0.0985516066148711 [Eh]
	 Total Energy              =    -599.1160608952471875 [Eh]
	 SCS Total Energy          =    -599.1102657740296991 [Eh]
                               Psi4 1.9 release
    Molecular point group: c1
  Basis Set: AUG-CC-PVTZ
    Blend: AUG-CC-PVTZ
  Basis Set: (AUG-CC-PVTZ AUX)
    Blend: AUG-CC-PVTZ-JKFIT + DEF2-UNIVERSAL-JKFIT
  @DF-RHF Final Energy:  -459.57350086696340
    Total Energy =                       -459.5735008669633430
  Basis Set: (AUG-CC-PVTZ AUX)
                               Psi4 1.9 release
  @DF-RHF Final Energy:  -919.02551150553370
    Total Energy =                       -919.0255115055338138
                               Psi4 1.9 release
  @DF-RHF Final Energy: -1058.76058694372182
    Total Energy =                      -1058.7605869437218189
                               Psi4 1.9 release
  @DF-RHF Final Energy: -1058.76872014794662
    Total Energy =                      -1058.7687201479466239
                               Psi4 1.9 release
  Multiplicity = 1
  @DF-RHF Final Energy:  -459.57349967480422
    Total Energy =                       -459.5734996748042249
	 Singles Energy            =      -0.0000000000000000 [Eh]
	 Same-Spin Energy          =      -0.0625013242006127 [Eh]
	 Opposite-Spin Energy      =      -0.1793718537983456 [Eh]
	 Correlation Energy        =      -0.2418731779989583 [Eh]
	 Total Energy              =    -459.8153728528031934 [Eh]
	 SCS Total Energy          =    -459.8095796740958008 [Eh]
                               Psi4 1.9 release
    Molecular point group: c1

    Geometry (in Bohr), charge = -1, multiplicity = 1:

       Center              X                  Y                   Z               Mass
    ------------   -----------------  -----------------  -----------------  -----------------
         K            0.000000000000     0.000000000000     0.000000000000    38.963706486400
         CL           0.000000000000     4.976680678795     0.000000000000    34.968852682000
         CL           5.972016436609     0.000000000000     0.000000000000    34.968852682000

  Charge       = -1
  Multiplicity = 1
  Basis Set: AUG-CC-PVTZ
    Blend: AUG-CC-PVTZ
  Basis Set: (AUG-CC-PVTZ AUX)
    Blend: AUG-CC-PVTZ-JKFIT + DEF2-UNIVERSAL-JKFIT

    Orbital Energies [Eh]
    ---------------------

    Doubly Occupied:

       1A   -133.356217     2A   -104.556074     3A   -104.540048
       4A    -14.314304     5A    -11.344028     6A    -11.343973
       7A    -11.343839     8A    -10.281948     9A    -10.264151
      10A     -7.748080    11A     -7.747906    12A     -7.747853
      13A     -7.730269    14A     -7.730194    15A     -7.730140
      16A     -1.578568    17A     -0.822674    18A     -0.789940
      19A     -0.789715    20A     -0.766243    21A     -0.761482
      22A     -0.218348    23A     -0.210794    24A     -0.210513
      25A     -0.192090    26A     -0.186169    27A     -0.182808

  @DF-RHF Final Energy: -1518.37490271530305

   => Energetics <=

    Nuclear Repulsion Energy =            156.1643256369146116
    One-Electron Energy =               -2420.1017170567183712
    Two-Electron Energy =                 745.5624887045005380
    Total Energy =                      -1518.3749027153030511
 Dipole X            :       -106.7940748          101.5242794           -5.2697954
 Dipole Y            :        -88.7544117           84.6035715           -4.1508402
 Dipole Z            :         -0.0000000            0.0000000           -0.0000000
 Magnitude           :                                                    6.7082202
  Basis Set: (AUG-CC-PVTZ AUX)
    Blend: AUG-CC-PVTZ-RI + DEF2-QZVPP-RI
	 Reference Energy          =   -1518.3749027153030511 [Eh]
	 Singles Energy            =      -0.0000000000000000 [Eh]
	 Same-Spin Energy          =      -0.1588344684257440 [Eh]
	 Opposite-Spin Energy      =      -0.4317261683461470 [Eh]
	 Correlation Energy        =      -0.5905606367718910 [Eh]
	 Total Energy              =   -1518.9654633520749485 [Eh]

	 ================> DF-SCS-MP2 Energies <==================
	-----------------------------------------------------------
	 SCS Same-Spin Scale       =       0.3333333333333333 [-]
	 SCS Opposite-Spin Scale   =       1.2000000000000000 [-]
	 SCS Same-Spin Energy      =      -0.0529448228085813 [Eh]
	 SCS Opposite-Spin Energy  =      -0.5180714020153764 [Eh]
	 SCS Correlation Energy    =      -0.5710162248239578 [Eh]
	 SCS Total Energy          =   -1518.9459189401270578 [Eh]
	-----------------------------------------------------------

*** Psi4 exiting successfully. Buy a developer a beer!
