                               Psi4 1.9 release

  ==> Input File <==

--------------------------------------------------------------------------
MEMORY 60 GB

molecule dimer {
0 1
K      0.000000     0.000000     0.000000
Cl     0.000000     2.633546     0.000000
--
-1 1
Cl     3.950319     0.000000     0.000000

units ang
no_reorient
no_com
symmetry c1
}

set {
basis        aug-cc-pVTZ
scf_type     df
}

energy("mp2", bsse_type="cp")
--------------------------------------------------------------------------

                               Psi4 1.9 release
    Molecular point group: c1
  Charge       = -1
  Multiplicity = 1
  Basis Set: AUG-CC-PVTZ
    Blend: AUG-CC-PVTZ
  Basis Set: (AUG-CC-PVTZ AUX)
    Blend: AUG-CC-PVTZ-JKFIT + DEF2-UNIVERSAL-JKFIT
  @DF-RHF Final Energy:  -459.57349190272646
    Total Energy =                       -459.5734919027264596
 Dipole X            :       -134.3707462          126.9053573           -7.4653889
 Dipole Y            :         -0.0001185            0.0000000           -0.0001185
 Dipole Z            :         -0.0000000            0.0000000           -0.0000000
 Magnitude           :                                                    7.4653889
  Basis Set: (AUG-CC-PVTZ AUX)
    Blend: AUG-CC-PVTZ-RI + DEF2-QZVPP-RI
	 Reference Energy          =    -459.5734919027264596 [Eh]
	 Singles Energy            =      -0.0000000000000000 [Eh]
	 Same-Spin Energy          =      -0.0624045245430114 [Eh]
	 Opposite-Spin Energy      =      -0.1790804988875347 [Eh]
	 Correlation Energy        =      -0.2414850234305461 [Eh]
	 Total Energy              =    -459.8149769261569872 [Eh]
	 SCS Total Energy          =    -459.8091900095724895 [Eh]
                               Psi4 1.9 release
    Molecular point group: c1
  Multiplicity = 1
  Basis Set: AUG-CC-PVTZ
    Blend: AUG-CC-PVTZ
  Basis Set: (AUG-CC-PVTZ AUX)
    Blend: AUG-CC-PVTZ-JKFIT + DEF2-UNIVERSAL-JKFIT
  @DF-RHF Final Energy: -1058.76870633409089
    Total Energy =                      -1058.7687063340908935
  Basis Set: (AUG-CC-PVTZ AUX)
	 Singles Energy            =      -0.0000000000000000 [Eh]
	 Same-Spin Energy          =      -0.0938642952344666 [Eh]
	 Opposite-Spin Energy      =      -0.2487976058853908 [Eh]
	 Correlation Energy        =      -0.3426619011198574 [Eh]
	 Total Energy              =   -1059.1113682352106480 [Eh]
	 SCS Total Energy          =   -1059.0985515595648394 [Eh]
                               Psi4 1.9 release
    Molecular point group: c1

    Geometry (in Bohr), charge = -1, multiplicity = 1:

       Center              X                  Y                   Z               Mass
    ------------   -----------------  -----------------  -----------------  -----------------
         K            0.000000000000     0.000000000000     0.000000000000    38.963706486400
         CL           0.000000000000     4.976680678795     0.000000000000    34.968852682000
         CL           7.465021018192     0.000000000000     0.000000000000    34.968852682000

  Charge       = -1
  Multiplicity = 1
  Basis Set: AUG-CC-PVTZ
    Blend: AUG-CC-PVTZ
  Basis Set: (AUG-CC-PVTZ AUX)
    Blend: AUG-CC-PVTZ-JKFIT + DEF2-UNIVERSAL-JKFIT

    Orbital Energies [Eh]
    ---------------------

    Doubly Occupied:

       1A   -133.390757     2A   -104.572961     3A   -104.529460
       4A    -14.348507     5A    -11.378263     6A    -11.378212
       7A    -11.378144     8A    -10.298812     9A    -10.253127
      10A     -7.764951    11A     -7.764764    12A     -7.764718
      13A     -7.719217    14A     -7.719150    15A     -7.719116
      16A     -1.611591    17A     -0.846939    18A     -0.822007
      19A     -0.818845    20A     -0.786139    21A     -0.756954
      22A     -0.235143    23A     -0.226887    24A     -0.225474
      25A     -0.175780    26A     -0.173267    27A     -0.172391

  @DF-RHF Final Energy: -1518.36381717873564

   => Energetics <=

    Nuclear Repulsion Energy =            140.3830655680306734
    One-Electron Energy =               -2387.8306124551022549
    Two-Electron Energy =                 729.0837297083357953
    Total Energy =                      -1518.3638171787356441
 Dipole X            :       -133.8358843          126.9053573           -6.9305270
 Dipole Y            :        -88.7234862           84.6035715           -4.1199146
 Dipole Z            :         -0.0000000            0.0000000           -0.0000000
 Magnitude           :                                                    8.0626237
  Basis Set: (AUG-CC-PVTZ AUX)
    Blend: AUG-CC-PVTZ-RI + DEF2-QZVPP-RI
	 Reference Energy          =   -1518.3638171787356441 [Eh]
	 Singles Energy            =      -0.0000000000000000 [Eh]
	 Same-Spin Energy          =      -0.1569094872701796 [Eh]
	 Opposite-Spin Energy      =      -0.4285956758341994 [Eh]
	 Correlation Energy        =      -0.5855051631043791 [Eh]
	 Total Energy              =   -1518.9493223418401158 [Eh]

	 ================> DF-SCS-MP2 Energies <==================
	-----------------------------------------------------------
	 SCS Same-Spin Scale       =       0.3333333333333333 [-]
	 SCS Opposite-Spin Scale   =       1.2000000000000000 [-]
	 SCS Same-Spin Energy      =      -0.0523031624233932 [Eh]
	 SCS Opposite-Spin Energy  =      -0.5143148110010393 [Eh]
	 SCS Correlation Energy    =      -0.5666179734244324 [Eh]
	 SCS Total Energy          =   -1518.9304351521600438 [Eh]
	-----------------------------------------------------------

*** Psi4 exiting successfully. Buy a developer a beer!
