                               Psi4 1.9 release

  ==> Input File <==

--------------------------------------------------------------------------
MEMORY 60 GB

molecule dimer {
-1 1
K          0.000000     0.000000     0.000000
Cl         0.000000     2.633546     0.000000
Cl         3.686964     0.000000     0.000000

units ang
no_reorient
no_com
symmetry c1
}

set {
basis        aug-cc-pVTZ
scf_type     df
}

energy("mp2")
--------------------------------------------------------------------------

    Molecular point group: c1

    Geometry (in Angstrom), charge = -1, multiplicity = 1:

       Center              X                  Y                   Z               Mass
    ------------   -----------------  -----------------  -----------------  -----------------
         K            0.000000000000     0.000000000000     0.000000000000    38.963706486400
         CL           0.000000000000     2.633546000000     0.000000000000    34.968852682000
         CL           3.686964000000     0.000000000000     0.000000000000    34.968852682000

  Charge       = -1
  Multiplicity = 1
  Basis Set: AUG-CC-PVTZ
    Blend: AUG-CC-PVTZ
  Basis Set: (AUG-CC-PVTZ AUX)
    Blend: AUG-CC-PVTZ-JKFIT + DEF2-UNIVERSAL-JKFIT

    Orbital Energies [Eh]
    ---------------------

    Doubly Occupied:

       1A   -133.380985     2A   -104.567586     3A   -104.533005
       4A    -14.338772     5A    -11.368529     6A    -11.368476
       7A    -11.368387     8A    -10.293441     9A    -10.256702
      10A     -7.759578    11A     -7.759395    12A     -7.759346
      13A     -7.722801    14A     -7.722730    15A     -7.722690
      16A     -1.601987    17A     -0.839441    18A     -0.812607
      19A     -0.809017    20A     -0.778954    21A     -0.760811
      22A     -0.229715    23A     -0.221633    24A     -0.220330
      25A     -0.180526    26A     -0.177039    27A     -0.175812

  @DF-RHF Final Energy: -1518.36756931643572

   => Energetics <=

    Nuclear Repulsion Energy =            145.0147613190546849
    One-Electron Energy =               -2397.3040736721109170
    Two-Electron Energy =                 733.9217430366204553
    Total Energy =                      -1518.3675693164357199
 Dipole X            :       -124.8203201          118.4449873           -6.3753328
 Dipole Y            :        -88.7305948           84.6035715           -4.1270232
 Dipole Z            :         -0.0000000            0.0000000           -0.0000000
 Magnitude           :                                                    7.5945500
  Basis Set: (AUG-CC-PVTZ AUX)
    Blend: AUG-CC-PVTZ-RI + DEF2-QZVPP-RI
	 Reference Energy          =   -1518.3675693164357199 [Eh]
	 Singles Energy            =      -0.0000000000000000 [Eh]
	 Same-Spin Energy          =      -0.1573061751964244 [Eh]
	 Opposite-Spin Energy      =      -0.4292452101361773 [Eh]
	 Correlation Energy        =      -0.5865513853326016 [Eh]
	 Total Energy              =   -1518.9541207017682609 [Eh]

	 ================> DF-SCS-MP2 Energies <==================
	-----------------------------------------------------------
	 SCS Same-Spin Scale       =       0.3333333333333333 [-]
	 SCS Opposite-Spin Scale   =       1.2000000000000000 [-]
	 SCS Same-Spin Energy      =      -0.0524353917321415 [Eh]
	 SCS Opposite-Spin Energy  =      -0.5150942521634128 [Eh]
	 SCS Correlation Energy    =      -0.5675296438955543 [Eh]
	 SCS Total Energy          =   -1518.9350989603312883 [Eh]
	-----------------------------------------------------------

*** Psi4 exiting successfully. Buy a developer a beer!
