                               Psi4 1.9 release

  ==> Input File <==

--------------------------------------------------------------------------
MEMORY 60 GB

molecule dimer {
-1 1
Gh(K)      0.000000     0.000000     0.000000
Cl         0.000000     2.633546     0.000000
Gh(Cl)     2.633546     0.000000     0.000000

units ang
no_reorient
no_com
symmetry c1
}

set {
basis        aug-cc-pVTZ
scf_type     df
}

energy("mp2")
--------------------------------------------------------------------------

    Molecular point group: c1

    Geometry (in Angstrom), charge = -1, multiplicity = 1:

       Center              X                  Y                   Z               Mass
    ------------   -----------------  -----------------  -----------------  -----------------
      Gh(K)           0.000000000000     0.000000000000     0.000000000000    38.963706486400
         CL           0.000000000000     2.633546000000     0.000000000000    34.968852682000
      Gh(CL)          2.633546000000     0.000000000000     0.000000000000    34.968852682000

  Charge       = -1
  Multiplicity = 1
  Basis Set: AUG-CC-PVTZ
    Blend: AUG-CC-PVTZ
  Basis Set: (AUG-CC-PVTZ AUX)
    Blend: AUG-CC-PVTZ-JKFIT + DEF2-UNIVERSAL-JKFIT

    Orbital Energies [Eh]
    ---------------------

    Doubly Occupied:

       1A   -104.506323     2A    -10.229834     3A     -7.695882
       4A     -7.695877     5A     -7.695864     6A     -0.733503
       7A     -0.150335     8A     -0.150329     9A     -0.150328

  @DF-RHF Final Energy:  -459.57350339116596

   => Energetics <=

    Nuclear Repulsion Energy =              0.0000000000000000
    One-Electron Energy =                -641.1304535549127195
    Two-Electron Energy =                 181.5569501637467056
    Total Energy =                       -459.5735033911660139
 Dipole X            :         -0.0000216            0.0000000           -0.0000216
 Dipole Y            :        -89.5810574           84.6035715           -4.9774858
 Dipole Z            :          0.0000000            0.0000000            0.0000000
 Magnitude           :                                                    4.9774858
  Basis Set: (AUG-CC-PVTZ AUX)
    Blend: AUG-CC-PVTZ-RI + DEF2-QZVPP-RI
	 Reference Energy          =    -459.5735033911659571 [Eh]
	 Singles Energy            =      -0.0000000000000000 [Eh]
	 Same-Spin Energy          =      -0.0625496506923162 [Eh]
	 Opposite-Spin Energy      =      -0.1795564948913518 [Eh]
	 Correlation Energy        =      -0.2421061455836681 [Eh]
	 Total Energy              =    -459.8156095367496050 [Eh]

	 ================> DF-SCS-MP2 Energies <==================
	-----------------------------------------------------------
	 SCS Same-Spin Scale       =       0.3333333333333333 [-]
	 SCS Opposite-Spin Scale   =       1.2000000000000000 [-]
	 SCS Same-Spin Energy      =      -0.0208498835641054 [Eh]
	 SCS Opposite-Spin Energy  =      -0.2154677938696222 [Eh]
	 SCS Correlation Energy    =      -0.2363176774337276 [Eh]
	 SCS Total Energy          =    -459.8098210685996605 [Eh]
	-----------------------------------------------------------

*** Psi4 exiting successfully. Buy a developer a beer!
