                               Psi4 1.9 release

  ==> Input File <==

--------------------------------------------------------------------------
MEMORY 60 GB

molecule dimer {
0 1
K      0.000000     0.000000     0.000000
Cl     0.000000     2.633546     0.000000
--
-1 1
Cl     5.267092     0.000000     0.000000

units ang
no_reorient
no_com
symmetry c1
}

set {
basis        aug-cc-pVTZ
scf_type     df
}

energy("mp2", bsse_type="cp")
--------------------------------------------------------------------------

                               Psi4 1.9 release
    Molecular point group: c1
  Charge       = -1
  Multiplicity = 1
  Basis Set: AUG-CC-PVTZ
    Blend: AUG-CC-PVTZ
  Basis Set: (AUG-CC-PVTZ AUX)
    Blend: AUG-CC-PVTZ-JKFIT + DEF2-UNIVERSAL-JKFIT
  @DF-RHF Final Energy:  -459.57348588320787
    Total Energy =                       -459.5734858832078658
 Dipole X            :       -179.1606821          169.2071431           -9.9535390
 Dipole Y            :         -0.0000600            0.0000000           -0.0000600
 Dipole Z            :         -0.0000000            0.0000000           -0.0000000
 Magnitude           :                                                    9.9535390
  Basis Set: (AUG-CC-PVTZ AUX)
    Blend: AUG-CC-PVTZ-RI + DEF2-QZVPP-RI
	 Reference Energy          =    -459.5734858832078658 [Eh]
	 Singles Energy            =      -0.0000000000000000 [Eh]
	 Same-Spin Energy          =      -0.0623250610952659 [Eh]
	 Opposite-Spin Energy      =      -0.1788341283622684 [Eh]
	 Correlation Energy        =      -0.2411591894575343 [Eh]
	 Total Energy              =    -459.8146450726654280 [Eh]
	 SCS Total Energy          =    -459.8088618576076669 [Eh]
                               Psi4 1.9 release
    Molecular point group: c1
  Multiplicity = 1
  Basis Set: AUG-CC-PVTZ
    Blend: AUG-CC-PVTZ
  Basis Set: (AUG-CC-PVTZ AUX)
    Blend: AUG-CC-PVTZ-JKFIT + DEF2-UNIVERSAL-JKFIT
  @DF-RHF Final Energy: -1058.76867795820044
    Total Energy =                      -1058.7686779582004419
  Basis Set: (AUG-CC-PVTZ AUX)
	 Singles Energy            =      -0.0000000000000000 [Eh]
	 Same-Spin Energy          =      -0.0933850566987981 [Eh]
	 Opposite-Spin Energy      =      -0.2475183343733708 [Eh]
	 Correlation Energy        =      -0.3409033910721689 [Eh]
	 Total Energy              =   -1059.1095813492725028 [Eh]
	 SCS Total Energy          =   -1059.0968283116815201 [Eh]
                               Psi4 1.9 release
    Molecular point group: c1

    Geometry (in Bohr), charge = -1, multiplicity = 1:

       Center              X                  Y                   Z               Mass
    ------------   -----------------  -----------------  -----------------  -----------------
         K            0.000000000000     0.000000000000     0.000000000000    38.963706486400
         CL           0.000000000000     4.976680678795     0.000000000000    34.968852682000
         CL           9.953361357590     0.000000000000     0.000000000000    34.968852682000

  Charge       = -1
  Multiplicity = 1
  Basis Set: AUG-CC-PVTZ
    Blend: AUG-CC-PVTZ
  Basis Set: (AUG-CC-PVTZ AUX)
    Blend: AUG-CC-PVTZ-JKFIT + DEF2-UNIVERSAL-JKFIT

    Orbital Energies [Eh]
    ---------------------

    Doubly Occupied:

       1A   -133.423920     2A   -104.595155     3A   -104.517021
       4A    -14.381742     5A    -11.411470     6A    -11.411434
       7A    -11.411402     8A    -10.321002     9A    -10.240746
      10A     -7.787141    11A     -7.786941    12A     -7.786914
      13A     -7.706805    14A     -7.706770    15A     -7.706756
      16A     -1.644976    17A     -0.875381    18A     -0.854843
      19A     -0.853461    20A     -0.812507    21A     -0.744398
      22A     -0.257485    23A     -0.248713    24A     -0.247706
      25A     -0.161691    26A     -0.161088    27A     -0.160783

  @DF-RHF Final Energy: -1518.35197717321353

   => Energetics <=

    Nuclear Repulsion Energy =            123.3241127393566501
    One-Electron Energy =               -2352.9156792140738617
    Two-Electron Energy =                 711.2395893015037700
    Total Energy =                      -1518.3519771732135268
 Dipole X            :       -178.8535980          169.2071431           -9.6464549
 Dipole Y            :        -88.7125204           84.6035715           -4.1089489
 Dipole Z            :         -0.0000000            0.0000000           -0.0000000
 Magnitude           :                                                   10.4851110
  Basis Set: (AUG-CC-PVTZ AUX)
    Blend: AUG-CC-PVTZ-RI + DEF2-QZVPP-RI
	 Reference Energy          =   -1518.3519771732135268 [Eh]
	 Singles Energy            =      -0.0000000000000000 [Eh]
	 Same-Spin Energy          =      -0.1558397169947903 [Eh]
	 Opposite-Spin Energy      =      -0.4265079906253234 [Eh]
	 Correlation Energy        =      -0.5823477076201137 [Eh]
	 Total Energy              =   -1518.9343248808336284 [Eh]

	 ================> DF-SCS-MP2 Energies <==================
	-----------------------------------------------------------
	 SCS Same-Spin Scale       =       0.3333333333333333 [-]
	 SCS Opposite-Spin Scale   =       1.2000000000000000 [-]
	 SCS Same-Spin Energy      =      -0.0519465723315968 [Eh]
	 SCS Opposite-Spin Energy  =      -0.5118095887503881 [Eh]
	 SCS Correlation Energy    =      -0.5637561610819848 [Eh]
	 SCS Total Energy          =   -1518.9157333342955098 [Eh]
	-----------------------------------------------------------

*** Psi4 exiting successfully. Buy a developer a beer!
