                               Psi4 1.9 release

  ==> Input File <==

--------------------------------------------------------------------------
MEMORY 60 GB

molecule dimer {
-1 1
Gh(K)      0.000000     0.000000     0.000000
Cl         0.000000     2.633546     0.000000
Gh(Cl)     5.267092     0.000000     0.000000

units ang
no_reorient
no_com
symmetry c1
}

set {
basis        aug-cc-pVTZ
scf_type     df
}

energy("mp2")
--------------------------------------------------------------------------

    Molecular point group: c1

    Geometry (in Angstrom), charge = -1, multiplicity = 1:

       Center              X                  Y                   Z               Mass
    ------------   -----------------  -----------------  -----------------  -----------------
      Gh(K)           0.000000000000     0.000000000000     0.000000000000    38.963706486400
         CL           0.000000000000     2.633546000000     0.000000000000    34.968852682000
      Gh(CL)          5.267092000000     0.000000000000     0.000000000000    34.968852682000

  Charge       = -1
  Multiplicity = 1
  Basis Set: AUG-CC-PVTZ
    Blend: AUG-CC-PVTZ
  Basis Set: (AUG-CC-PVTZ AUX)
    Blend: AUG-CC-PVTZ-JKFIT + DEF2-UNIVERSAL-JKFIT

    Orbital Energies [Eh]
    ---------------------

    Doubly Occupied:

       1A   -104.506279     2A    -10.229824     3A     -7.695869
       4A     -7.695868     5A     -7.695856     6A     -0.733507
       7A     -0.150336     8A     -0.150332     9A     -0.150332

  @DF-RHF Final Energy:  -459.57349837774223

   => Energetics <=

    Nuclear Repulsion Energy =              0.0000000000000000
    One-Electron Energy =                -641.1305883356579898
    Two-Electron Energy =                 181.5570899579158208
    Total Energy =                       -459.5734983777421689
 Dipole X            :         -0.0000041            0.0000000           -0.0000041
 Dipole Y            :        -89.5811965           84.6035715           -4.9776250
 Dipole Z            :         -0.0000000            0.0000000           -0.0000000
 Magnitude           :                                                    4.9776250
  Basis Set: (AUG-CC-PVTZ AUX)
    Blend: AUG-CC-PVTZ-RI + DEF2-QZVPP-RI
	 Reference Energy          =    -459.5734983777422258 [Eh]
	 Singles Energy            =      -0.0000000000000000 [Eh]
	 Same-Spin Energy          =      -0.0625127368679232 [Eh]
	 Opposite-Spin Energy      =      -0.1794359596338929 [Eh]
	 Correlation Energy        =      -0.2419486965018161 [Eh]
	 Total Energy              =    -459.8154470742440481 [Eh]

	 ================> DF-SCS-MP2 Energies <==================
	-----------------------------------------------------------
	 SCS Same-Spin Scale       =       0.3333333333333333 [-]
	 SCS Opposite-Spin Scale   =       1.2000000000000000 [-]
	 SCS Same-Spin Energy      =      -0.0208375789559744 [Eh]
	 SCS Opposite-Spin Energy  =      -0.2153231515606714 [Eh]
	 SCS Correlation Energy    =      -0.2361607305166458 [Eh]
	 SCS Total Energy          =    -459.8096591082588702 [Eh]
	-----------------------------------------------------------

*** Psi4 exiting successfully. Buy a developer a beer!
