                               Psi4 1.9 release

  ==> Input File <==

--------------------------------------------------------------------------
MEMORY 60 GB

molecule dimer {
-1 1
Gh(K)      0.000000     0.000000     0.000000
Cl         0.000000     2.633546     0.000000
Gh(Cl)     3.950319     0.000000     0.000000

units ang
no_reorient
no_com
symmetry c1
}

set {
basis        aug-cc-pVTZ
scf_type     df
}

energy("mp2")
--------------------------------------------------------------------------

    Molecular point group: c1

    Geometry (in Angstrom), charge = -1, multiplicity = 1:

       Center              X                  Y                   Z               Mass
    ------------   -----------------  -----------------  -----------------  -----------------
      Gh(K)           0.000000000000     0.000000000000     0.000000000000    38.963706486400
         CL           0.000000000000     2.633546000000     0.000000000000    34.968852682000
      Gh(CL)          3.950319000000     0.000000000000     0.000000000000    34.968852682000

  Charge       = -1
  Multiplicity = 1
  Basis Set: AUG-CC-PVTZ
    Blend: AUG-CC-PVTZ
  Basis Set: (AUG-CC-PVTZ AUX)
    Blend: AUG-CC-PVTZ-JKFIT + DEF2-UNIVERSAL-JKFIT

    Orbital Energies [Eh]
    ---------------------

    Doubly Occupied:

       1A   -104.506298     2A    -10.229827     3A     -7.695874
       4A     -7.695871     5A     -7.695859     6A     -0.733504
       7A     -0.150334     8A     -0.150330     9A     -0.150330

  @DF-RHF Final Energy:  -459.57350067917304

   => Energetics <=

    Nuclear Repulsion Energy =              0.0000000000000000
    One-Electron Energy =                -641.1305447040672334
    Two-Electron Energy =                 181.5570440248941964
    Total Energy =                       -459.5735006791730370
 Dipole X            :         -0.0000153            0.0000000           -0.0000153
 Dipole Y            :        -89.5811522           84.6035715           -4.9775807
 Dipole Z            :         -0.0000000            0.0000000           -0.0000000
 Magnitude           :                                                    4.9775807
  Basis Set: (AUG-CC-PVTZ AUX)
    Blend: AUG-CC-PVTZ-RI + DEF2-QZVPP-RI
	 Reference Energy          =    -459.5735006791730370 [Eh]
	 Singles Energy            =      -0.0000000000000000 [Eh]
	 Same-Spin Energy          =      -0.0625292074910107 [Eh]
	 Opposite-Spin Energy      =      -0.1794854507683372 [Eh]
	 Correlation Energy        =      -0.2420146582593479 [Eh]
	 Total Energy              =    -459.8155153374323731 [Eh]

	 ================> DF-SCS-MP2 Energies <==================
	-----------------------------------------------------------
	 SCS Same-Spin Scale       =       0.3333333333333333 [-]
	 SCS Opposite-Spin Scale   =       1.2000000000000000 [-]
	 SCS Same-Spin Energy      =      -0.0208430691636702 [Eh]
	 SCS Opposite-Spin Energy  =      -0.2153825409220046 [Eh]
	 SCS Correlation Energy    =      -0.2362256100856749 [Eh]
	 SCS Total Energy          =    -459.8097262892587196 [Eh]
	-----------------------------------------------------------

*** Psi4 exiting successfully. Buy a developer a beer!
