                               Psi4 1.9 release

  ==> Input File <==

--------------------------------------------------------------------------
MEMORY 60 GB

molecule dimer {
-1 1
Gh(K)      0.000000     0.000000     0.000000
Gh(Cl)     0.000000     2.633546     0.000000
Cl         2.896901     0.000000     0.000000

units ang
no_reorient
no_com
symmetry c1
}

set {
basis        aug-cc-pVTZ
scf_type     df
}

energy("mp2")
--------------------------------------------------------------------------

    Molecular point group: c1

    Geometry (in Angstrom), charge = -1, multiplicity = 1:

       Center              X                  Y                   Z               Mass
    ------------   -----------------  -----------------  -----------------  -----------------
      Gh(K)           0.000000000000     0.000000000000     0.000000000000    38.963706486400
      Gh(CL)          0.000000000000     2.633546000000     0.000000000000    34.968852682000
         CL           2.896901000000     0.000000000000     0.000000000000    34.968852682000

  Charge       = -1
  Multiplicity = 1
  Basis Set: AUG-CC-PVTZ
    Blend: AUG-CC-PVTZ
  Basis Set: (AUG-CC-PVTZ AUX)
    Blend: AUG-CC-PVTZ-JKFIT + DEF2-UNIVERSAL-JKFIT

    Orbital Energies [Eh]
    ---------------------

    Doubly Occupied:

       1A   -104.506308     2A    -10.229832     3A     -7.695880
       4A     -7.695877     5A     -7.695858     6A     -0.733505
       7A     -0.150336     8A     -0.150330     9A     -0.150330

  @DF-RHF Final Energy:  -459.57350163513087

   => Energetics <=

    Nuclear Repulsion Energy =              0.0000000000000000
    One-Electron Energy =                -641.1304887878934551
    Two-Electron Energy =                 181.5569871527626162
    Total Energy =                       -459.5735016351308104
 Dipole X            :        -98.5389599           93.0639415           -5.4750183
 Dipole Y            :          0.0000011            0.0000000            0.0000011
 Dipole Z            :          0.0000000            0.0000000            0.0000000
 Magnitude           :                                                    5.4750183
  Basis Set: (AUG-CC-PVTZ AUX)
    Blend: AUG-CC-PVTZ-RI + DEF2-QZVPP-RI
	 Reference Energy          =    -459.5735016351308673 [Eh]
	 Singles Energy            =      -0.0000000000000000 [Eh]
	 Same-Spin Energy          =      -0.0625273888559694 [Eh]
	 Opposite-Spin Energy      =      -0.1794622119320846 [Eh]
	 Correlation Energy        =      -0.2419896007880540 [Eh]
	 Total Energy              =    -459.8154912359188984 [Eh]

	 ================> DF-SCS-MP2 Energies <==================
	-----------------------------------------------------------
	 SCS Same-Spin Scale       =       0.3333333333333333 [-]
	 SCS Opposite-Spin Scale   =       1.2000000000000000 [-]
	 SCS Same-Spin Energy      =      -0.0208424629519898 [Eh]
	 SCS Opposite-Spin Energy  =      -0.2153546543185015 [Eh]
	 SCS Correlation Energy    =      -0.2361971172704913 [Eh]
	 SCS Total Energy          =    -459.8096987524013457 [Eh]
	-----------------------------------------------------------

*** Psi4 exiting successfully. Buy a developer a beer!
