                               Psi4 1.9 release

  ==> Input File <==

--------------------------------------------------------------------------
MEMORY 60 GB

molecule dimer {
-1 1
K          0.000000     0.000000     0.000000
Cl         0.000000     2.633546     0.000000
Cl         2.896901     0.000000     0.000000

units ang
no_reorient
no_com
symmetry c1
}

set {
basis        aug-cc-pVTZ
scf_type     df
}

energy("mp2")
--------------------------------------------------------------------------

    Molecular point group: c1

    Geometry (in Angstrom), charge = -1, multiplicity = 1:

       Center              X                  Y                   Z               Mass
    ------------   -----------------  -----------------  -----------------  -----------------
         K            0.000000000000     0.000000000000     0.000000000000    38.963706486400
         CL           0.000000000000     2.633546000000     0.000000000000    34.968852682000
         CL           2.896901000000     0.000000000000     0.000000000000    34.968852682000

  Charge       = -1
  Multiplicity = 1
  Basis Set: AUG-CC-PVTZ
    Blend: AUG-CC-PVTZ
  Basis Set: (AUG-CC-PVTZ AUX)
    Blend: AUG-CC-PVTZ-JKFIT + DEF2-UNIVERSAL-JKFIT

    Orbital Energies [Eh]
    ---------------------

    Doubly Occupied:

       1A   -133.339758     2A   -104.550087     3A   -104.542748
       4A    -14.298366     5A    -11.328017     6A    -11.327966
       7A    -11.327829     8A    -10.275976     9A    -10.267465
      10A     -7.742102    11A     -7.741935    12A     -7.741880
      13A     -7.733587    14A     -7.733497    15A     -7.733441
      16A     -1.564345    17A     -0.813660    18A     -0.791781
      19A     -0.775768    20A     -0.757227    21A     -0.750772
      22A     -0.213440    23A     -0.207623    24A     -0.204986
      25A     -0.198096    26A     -0.191594    27A     -0.184793

  @DF-RHF Final Energy: -1518.37566214858521

   => Energetics <=

    Nuclear Repulsion Energy =            162.9678089083344901
    One-Electron Energy =               -2434.0094604085279570
    Two-Electron Energy =                 752.6659893516082320
    Total Energy =                      -1518.3756621485852065
 Dipole X            :        -97.7890643           93.0639415           -4.7251227
 Dipole Y            :        -88.7719411           84.6035715           -4.1683695
 Dipole Z            :         -0.0000000            0.0000000           -0.0000000
 Magnitude           :                                                    6.3009594
  Basis Set: (AUG-CC-PVTZ AUX)
    Blend: AUG-CC-PVTZ-RI + DEF2-QZVPP-RI
	 Reference Energy          =   -1518.3756621485852065 [Eh]
	 Singles Energy            =      -0.0000000000000000 [Eh]
	 Same-Spin Energy          =      -0.1602955247909044 [Eh]
	 Opposite-Spin Energy      =      -0.4341942789422220 [Eh]
	 Correlation Energy        =      -0.5944898037331263 [Eh]
	 Total Energy              =   -1518.9701519523182469 [Eh]

	 ================> DF-SCS-MP2 Energies <==================
	-----------------------------------------------------------
	 SCS Same-Spin Scale       =       0.3333333333333333 [-]
	 SCS Opposite-Spin Scale   =       1.2000000000000000 [-]
	 SCS Same-Spin Energy      =      -0.0534318415969681 [Eh]
	 SCS Opposite-Spin Energy  =      -0.5210331347306664 [Eh]
	 SCS Correlation Energy    =      -0.5744649763276345 [Eh]
	 SCS Total Energy          =   -1518.9501271249127967 [Eh]
	-----------------------------------------------------------

*** Psi4 exiting successfully. Buy a developer a beer!
