                               Psi4 1.9 release

  ==> Input File <==

--------------------------------------------------------------------------
MEMORY 60 GB

molecule dimer {
1 1
K          0.000000     0.000000     0.000000
Gh(Cl)     0.000000     2.633546     0.000000
Gh(Cl)     3.950319     0.000000     0.000000

units ang
no_reorient
no_com
symmetry c1
}

set {
basis        aug-cc-pVTZ
scf_type     df
}

energy("mp2")
--------------------------------------------------------------------------

    Molecular point group: c1

    Geometry (in Angstrom), charge = 1, multiplicity = 1:

       Center              X                  Y                   Z               Mass
    ------------   -----------------  -----------------  -----------------  -----------------
         K            0.000000000000     0.000000000000     0.000000000000    38.963706486400
      Gh(CL)          0.000000000000     2.633546000000     0.000000000000    34.968852682000
      Gh(CL)          3.950319000000     0.000000000000     0.000000000000    34.968852682000

  Charge       = 1
  Multiplicity = 1
  Basis Set: AUG-CC-PVTZ
    Blend: AUG-CC-PVTZ
  Basis Set: (AUG-CC-PVTZ AUX)
    Blend: AUG-CC-PVTZ-JKFIT + DEF2-UNIVERSAL-JKFIT

    Orbital Energies [Eh]
    ---------------------

    Doubly Occupied:

       1A   -133.753615     2A    -14.709086     3A    -11.739155
       4A    -11.739150     5A    -11.739148     6A     -1.964301
       7A     -1.170935     8A     -1.170901     9A     -1.170875

  @DF-RHF Final Energy:  -599.01750893018107

   => Energetics <=

    Nuclear Repulsion Energy =              0.0000000000000000
    One-Electron Energy =                -819.7206870449190319
    Two-Electron Energy =                 220.7031781147379945
    Total Energy =                       -599.0175089301810658
 Dipole X            :          0.0002091            0.0000000            0.0002091
 Dipole Y            :          0.0004920            0.0000000            0.0004920
 Dipole Z            :         -0.0000000            0.0000000           -0.0000000
 Magnitude           :                                                    0.0005346
  Basis Set: (AUG-CC-PVTZ AUX)
    Blend: AUG-CC-PVTZ-RI + DEF2-QZVPP-RI
	 Reference Energy          =    -599.0175089301810658 [Eh]
	 Singles Energy            =      -0.0000000000000000 [Eh]
	 Same-Spin Energy          =      -0.0286611801552888 [Eh]
	 Opposite-Spin Energy      =      -0.0671676060628204 [Eh]
	 Correlation Energy        =      -0.0958287862181092 [Eh]
	 Total Energy              =    -599.1133377163992009 [Eh]

	 ================> DF-SCS-MP2 Energies <==================
	-----------------------------------------------------------
	 SCS Same-Spin Scale       =       0.3333333333333333 [-]
	 SCS Opposite-Spin Scale   =       1.2000000000000000 [-]
	 SCS Same-Spin Energy      =      -0.0095537267184296 [Eh]
	 SCS Opposite-Spin Energy  =      -0.0806011272753845 [Eh]
	 SCS Correlation Energy    =      -0.0901548539938141 [Eh]
	 SCS Total Energy          =    -599.1076637841748607 [Eh]
	-----------------------------------------------------------

*** Psi4 exiting successfully. Buy a developer a beer!
