                               Psi4 1.9 release

  ==> Input File <==

--------------------------------------------------------------------------
MEMORY 60 GB

molecule dimer {
1 1
K      0.000000     0.000000     0.000000
--
-1 1
Cl     0.000000     2.633546     0.000000
--
-1 1
Cl     2.633546     0.000000     0.000000

units ang
no_reorient
no_com
symmetry c1
}

set {
basis        aug-cc-pVTZ
scf_type     df
}

energy("mp2", bsse_type="cp")
--------------------------------------------------------------------------

                               Psi4 1.9 release
    Molecular point group: c1
  Charge       = 1
  Multiplicity = 1
  Basis Set: AUG-CC-PVTZ
    Blend: AUG-CC-PVTZ
  Basis Set: (AUG-CC-PVTZ AUX)
    Blend: AUG-CC-PVTZ-JKFIT + DEF2-UNIVERSAL-JKFIT
  @DF-RHF Final Energy:  -599.01751010202543
    Total Energy =                       -599.0175101020254260
 Dipole X            :          0.0004666            0.0000000            0.0004666
 Dipole Y            :          0.0004666            0.0000000            0.0004666
 Dipole Z            :         -0.0000000            0.0000000           -0.0000000
 Magnitude           :                                                    0.0006599
  Basis Set: (AUG-CC-PVTZ AUX)
    Blend: AUG-CC-PVTZ-RI + DEF2-QZVPP-RI
	 Reference Energy          =    -599.0175101020254260 [Eh]
	 Singles Energy            =      -0.0000000000000000 [Eh]
	 Same-Spin Energy          =      -0.0310355543600396 [Eh]
	 Opposite-Spin Energy      =      -0.0735836818341942 [Eh]
	 Correlation Energy        =      -0.1046192361942338 [Eh]
	 Total Energy              =    -599.1221293382196791 [Eh]
	 SCS Total Energy          =    -599.1161557050131705 [Eh]
                               Psi4 1.9 release
    Molecular point group: c1
  Basis Set: AUG-CC-PVTZ
    Blend: AUG-CC-PVTZ
  Basis Set: (AUG-CC-PVTZ AUX)
    Blend: AUG-CC-PVTZ-JKFIT + DEF2-UNIVERSAL-JKFIT
  @DF-RHF Final Energy:  -459.57350339116624
    Total Energy =                       -459.5735033911662413
  Basis Set: (AUG-CC-PVTZ AUX)
                               Psi4 1.9 release
  @DF-RHF Final Energy:  -919.01423179495225
    Total Energy =                       -919.0142317949521384
                               Psi4 1.9 release
  @DF-RHF Final Energy: -1058.76876483273304
    Total Energy =                      -1058.7687648327332681
                               Psi4 1.9 release
  @DF-RHF Final Energy: -1058.76876483269712
    Total Energy =                      -1058.7687648326971157
                               Psi4 1.9 release
  Multiplicity = 1
  @DF-RHF Final Energy:  -459.57350339120120
    Total Energy =                       -459.5735033912011431
	 Singles Energy            =      -0.0000000000000000 [Eh]
	 Same-Spin Energy          =      -0.0625496506923158 [Eh]
	 Opposite-Spin Energy      =      -0.1795564948913461 [Eh]
	 Correlation Energy        =      -0.2421061455836619 [Eh]
	 Total Energy              =    -459.8156095367848479 [Eh]
	 SCS Total Energy          =    -459.8098210686349034 [Eh]
                               Psi4 1.9 release
    Molecular point group: c1

    Geometry (in Bohr), charge = -1, multiplicity = 1:

       Center              X                  Y                   Z               Mass
    ------------   -----------------  -----------------  -----------------  -----------------
         K            0.000000000000     0.000000000000     0.000000000000    38.963706486400
         CL           0.000000000000     4.976680678795     0.000000000000    34.968852682000
         CL           4.976680678795     0.000000000000     0.000000000000    34.968852682000

  Charge       = -1
  Multiplicity = 1
  Basis Set: AUG-CC-PVTZ
    Blend: AUG-CC-PVTZ
  Basis Set: (AUG-CC-PVTZ AUX)
    Blend: AUG-CC-PVTZ-JKFIT + DEF2-UNIVERSAL-JKFIT

    Orbital Energies [Eh]
    ---------------------

    Doubly Occupied:

       1A   -133.319411     2A   -104.544136     3A   -104.544136
       4A    -14.279067     5A    -11.308554     6A    -11.308536
       7A    -11.308420     8A    -10.270041     9A    -10.270040
      10A     -7.736159    11A     -7.736157    12A     -7.736001
      13A     -7.736001    14A     -7.735947    15A     -7.735945
      16A     -1.548575    17A     -0.805740    18A     -0.803498
      19A     -0.760140    20A     -0.739699    21A     -0.737483
      22A     -0.212121    23A     -0.205899    24A     -0.201762
      25A     -0.201684    26A     -0.195951    27A     -0.183831

  @DF-RHF Final Energy: -1518.36891072299136

   => Energetics <=

    Nuclear Repulsion Energy =            170.8676755947328161
    One-Electron Energy =               -2450.1433025936130434
    Two-Electron Energy =                 760.9067162758890390
    Total Energy =                      -1518.3689107229913589
 Dipole X            :        -88.7928263           84.6035715           -4.1892548
 Dipole Y            :        -88.7928263           84.6035715           -4.1892548
 Dipole Z            :         -0.0000000            0.0000000           -0.0000000
 Magnitude           :                                                    5.9245009
  Basis Set: (AUG-CC-PVTZ AUX)
    Blend: AUG-CC-PVTZ-RI + DEF2-QZVPP-RI
	 Reference Energy          =   -1518.3689107229913589 [Eh]
	 Singles Energy            =      -0.0000000000000000 [Eh]
	 Same-Spin Energy          =      -0.1624949636804119 [Eh]
	 Opposite-Spin Energy      =      -0.4379368837283338 [Eh]
	 Correlation Energy        =      -0.6004318474087458 [Eh]
	 Total Energy              =   -1518.9693425704001584 [Eh]

	 ================> DF-SCS-MP2 Energies <==================
	-----------------------------------------------------------
	 SCS Same-Spin Scale       =       0.3333333333333333 [-]
	 SCS Opposite-Spin Scale   =       1.2000000000000000 [-]
	 SCS Same-Spin Energy      =      -0.0541649878934706 [Eh]
	 SCS Opposite-Spin Energy  =      -0.5255242604740006 [Eh]
	 SCS Correlation Energy    =      -0.5796892483674713 [Eh]
	 SCS Total Energy          =   -1518.9485999713588171 [Eh]
	-----------------------------------------------------------

*** Psi4 exiting successfully. Buy a developer a beer!
