                               Psi4 1.9 release

  ==> Input File <==

--------------------------------------------------------------------------
MEMORY 60 GB

molecule dimer {
1 1
Gh(Br)     0.000000     0.000000     0.000000
Gh(K)      0.000000     2.788700     0.000000
K          3.346440     0.000000     0.000000

units ang
no_reorient
no_com
symmetry c1
}

set {
basis        aug-cc-pVTZ
scf_type     df
}

energy("mp2")
--------------------------------------------------------------------------

    Molecular point group: c1

    Geometry (in Angstrom), charge = 1, multiplicity = 1:

       Center              X                  Y                   Z               Mass
    ------------   -----------------  -----------------  -----------------  -----------------
      Gh(BR)          0.000000000000     0.000000000000     0.000000000000    78.918337600000
      Gh(K)           0.000000000000     2.788700000000     0.000000000000    38.963706486400
         K            3.346440000000     0.000000000000     0.000000000000    38.963706486400

  Charge       = 1
  Multiplicity = 1
  Basis Set: AUG-CC-PVTZ
    Blend: AUG-CC-PVTZ
  Basis Set: (AUG-CC-PVTZ AUX)
    Blend: AUG-CC-PVTZ-JKFIT + DEF2-UNIVERSAL-JKFIT

    Orbital Energies [Eh]
    ---------------------

    Doubly Occupied:

       1A   -133.753597     2A    -14.709082     3A    -11.739146
       4A    -11.739142     5A    -11.739141     6A     -1.964310
       7A     -1.170934     8A     -1.170898     9A     -1.170888

  @DF-RHF Final Energy:  -599.01750833712924

   => Energetics <=

    Nuclear Repulsion Energy =              0.0000000000000000
    One-Electron Energy =                -819.7207407937829657
    Two-Electron Energy =                 220.7032324566536943
    Total Energy =                       -599.0175083371292430
 Dipole X            :       -113.8297547          120.1532468            6.3234921
 Dipole Y            :          0.0001232            0.0000000            0.0001232
 Dipole Z            :         -0.0000000            0.0000000           -0.0000000
 Magnitude           :                                                    6.3234921
  Basis Set: (AUG-CC-PVTZ AUX)
    Blend: AUG-CC-PVTZ-RI + DEF2-QZVPP-RI
	 Reference Energy          =    -599.0175083371292430 [Eh]
	 Singles Energy            =      -0.0000000000000000 [Eh]
	 Same-Spin Energy          =      -0.0280072782832806 [Eh]
	 Opposite-Spin Energy      =      -0.0652537021307945 [Eh]
	 Correlation Energy        =      -0.0932609804140751 [Eh]
	 Total Energy              =    -599.1107693175433724 [Eh]

	 ================> DF-SCS-MP2 Energies <==================
	-----------------------------------------------------------
	 SCS Same-Spin Scale       =       0.3333333333333333 [-]
	 SCS Opposite-Spin Scale   =       1.2000000000000000 [-]
	 SCS Same-Spin Energy      =      -0.0093357594277602 [Eh]
	 SCS Opposite-Spin Energy  =      -0.0783044425569534 [Eh]
	 SCS Correlation Energy    =      -0.0876402019847136 [Eh]
	 SCS Total Energy          =    -599.1051485391139977 [Eh]
	-----------------------------------------------------------

*** Psi4 exiting successfully. Buy a developer a beer!
