                               Psi4 1.9 release

  ==> Input File <==

--------------------------------------------------------------------------
MEMORY 60 GB

molecule dimer {
-1 1
Br         0.000000     0.000000     0.000000
Gh(K)      0.000000     2.788700     0.000000
Gh(K)      3.067570     0.000000     0.000000

units ang
no_reorient
no_com
symmetry c1
}

set {
basis        aug-cc-pVTZ
scf_type     df
}

energy("mp2")
--------------------------------------------------------------------------

    Molecular point group: c1

    Geometry (in Angstrom), charge = -1, multiplicity = 1:

       Center              X                  Y                   Z               Mass
    ------------   -----------------  -----------------  -----------------  -----------------
         BR           0.000000000000     0.000000000000     0.000000000000    78.918337600000
      Gh(K)           0.000000000000     2.788700000000     0.000000000000    38.963706486400
      Gh(K)           3.067570000000     0.000000000000     0.000000000000    38.963706486400

  Charge       = -1
  Multiplicity = 1
  Basis Set: AUG-CC-PVTZ
    Blend: AUG-CC-PVTZ
  Basis Set: (AUG-CC-PVTZ AUX)
    Blend: AUG-CC-PVTZ-JKFIT + DEF2-UNIVERSAL-JKFIT

    Orbital Energies [Eh]
    ---------------------

    Doubly Occupied:

       1A   -489.721000     2A    -64.860898     3A    -58.215394
       4A    -58.215393     5A    -58.215392     6A     -9.532987
       7A     -7.140333     8A     -7.140325     9A     -7.140323
      10A     -2.882012    11A     -2.882010    12A     -2.882007
      13A     -2.882007    14A     -2.882007    15A     -0.685995
      16A     -0.139338    17A     -0.139336    18A     -0.139334

  @DF-RHF Final Energy: -2572.53368790958530

   => Energetics <=

    Nuclear Repulsion Energy =              0.0000000000000000
    One-Electron Energy =               -3593.6751926829310833
    Two-Electron Energy =                1021.1415047733455594
    Total Energy =                      -2572.5336879095857512
 Dipole X            :          0.0003276            0.0000000            0.0003276
 Dipole Y            :          0.0004783            0.0000000            0.0004783
 Dipole Z            :         -0.0000000            0.0000000           -0.0000000
 Magnitude           :                                                    0.0005797
  Basis Set: (AUG-CC-PVTZ AUX)
    Blend: AUG-CC-PVTZ-RI + DEF2-QZVPP-RI
	 Reference Energy          =   -2572.5336879095852964 [Eh]
	 Singles Energy            =      -0.0000000000000000 [Eh]
	 Same-Spin Energy          =      -0.0880607353032922 [Eh]
	 Opposite-Spin Energy      =      -0.2040134286179797 [Eh]
	 Correlation Energy        =      -0.2920741639212720 [Eh]
	 Total Energy              =   -2572.8257620735066666 [Eh]

	 ================> DF-SCS-MP2 Energies <==================
	-----------------------------------------------------------
	 SCS Same-Spin Scale       =       0.3333333333333333 [-]
	 SCS Opposite-Spin Scale   =       1.2000000000000000 [-]
	 SCS Same-Spin Energy      =      -0.0293535784344307 [Eh]
	 SCS Opposite-Spin Energy  =      -0.2448161143415757 [Eh]
	 SCS Correlation Energy    =      -0.2741696927760064 [Eh]
	 SCS Total Energy          =   -2572.8078576023613095 [Eh]
	-----------------------------------------------------------

*** Psi4 exiting successfully. Buy a developer a beer!
