                               Psi4 1.9 release

  ==> Input File <==

--------------------------------------------------------------------------
MEMORY 60 GB

molecule dimer {
1 1
Br         0.000000     0.000000     0.000000
K          0.000000     2.788700     0.000000
K          4.183050     0.000000     0.000000

units ang
no_reorient
no_com
symmetry c1
}

set {
basis        aug-cc-pVTZ
scf_type     df
}

energy("mp2")
--------------------------------------------------------------------------

    Molecular point group: c1

    Geometry (in Angstrom), charge = 1, multiplicity = 1:

       Center              X                  Y                   Z               Mass
    ------------   -----------------  -----------------  -----------------  -----------------
         BR           0.000000000000     0.000000000000     0.000000000000    78.918337600000
         K            0.000000000000     2.788700000000     0.000000000000    38.963706486400
         K            4.183050000000     0.000000000000     0.000000000000    38.963706486400

  Charge       = 1
  Multiplicity = 1
  Basis Set: AUG-CC-PVTZ
    Blend: AUG-CC-PVTZ
  Basis Set: (AUG-CC-PVTZ AUX)
    Blend: AUG-CC-PVTZ-JKFIT + DEF2-UNIVERSAL-JKFIT

    Orbital Energies [Eh]
    ---------------------

    Doubly Occupied:

       1A   -490.021552     2A   -133.722729     3A   -133.639148
       4A    -65.162139     5A    -58.516667     6A    -58.516541
       7A    -58.516486     8A    -14.678279     9A    -14.596942
      10A    -11.708361    11A    -11.708340    12A    -11.708269
      13A    -11.626686    14A    -11.626639    15A    -11.626625
      16A     -9.834949    17A     -7.442682    18A     -7.442289
      19A     -7.442057    20A     -3.184459    21A     -3.184209
      22A     -3.184167    23A     -3.183458    24A     -3.183412
      25A     -1.933755    26A     -1.859716    27A     -1.141406
      28A     -1.140890    29A     -1.138890    30A     -1.075498
      31A     -1.069143    32A     -1.068257    33A     -0.986876
      34A     -0.453026    35A     -0.447238    36A     -0.442925

  @DF-RHF Final Energy: -3770.76172189924000

   => Energetics <=

    Nuclear Repulsion Energy =            248.3131098588151531
    One-Electron Energy =               -5721.7202556917682159
    Two-Electron Energy =                1702.6454239337126637
    Total Energy =                      -3770.7617218992400012
 Dipole X            :       -142.9343240          150.1915585            7.2572345
 Dipole Y            :        -95.8153452          100.1277057            4.3123605
 Dipole Z            :         -0.0000000            0.0000000           -0.0000000
 Magnitude           :                                                    8.4417952
  Basis Set: (AUG-CC-PVTZ AUX)
    Blend: AUG-CC-PVTZ-RI + DEF2-QZVPP-RI
	 Reference Energy          =   -3770.7617218992400012 [Eh]
	 Singles Energy            =      -0.0000000000000000 [Eh]
	 Same-Spin Energy          =      -0.1468481665266149 [Eh]
	 Opposite-Spin Energy      =      -0.3367013333554801 [Eh]
	 Correlation Energy        =      -0.4835494998820950 [Eh]
	 Total Energy              =   -3771.2452713991219753 [Eh]

	 ================> DF-SCS-MP2 Energies <==================
	-----------------------------------------------------------
	 SCS Same-Spin Scale       =       0.3333333333333333 [-]
	 SCS Opposite-Spin Scale   =       1.2000000000000000 [-]
	 SCS Same-Spin Energy      =      -0.0489493888422050 [Eh]
	 SCS Opposite-Spin Energy  =      -0.4040416000265761 [Eh]
	 SCS Correlation Energy    =      -0.4529909888687811 [Eh]
	 SCS Total Energy          =   -3771.2147128881088065 [Eh]
	-----------------------------------------------------------

*** Psi4 exiting successfully. Buy a developer a beer!
