                               Psi4 1.9 release

  ==> Input File <==

--------------------------------------------------------------------------
MEMORY 60 GB

molecule dimer {
-1 1
Br     0.000000     0.000000     0.000000
--
1 1
K      0.000000     2.788700     0.000000
--
1 1
K      3.346440     0.000000     0.000000

units ang
no_reorient
no_com
symmetry c1
}

set {
basis        aug-cc-pVTZ
scf_type     df
}

energy("mp2", bsse_type="cp")
--------------------------------------------------------------------------

                               Psi4 1.9 release
    Molecular point group: c1
  Charge       = -1
  Multiplicity = 1
  Basis Set: AUG-CC-PVTZ
    Blend: AUG-CC-PVTZ
  Basis Set: (AUG-CC-PVTZ AUX)
    Blend: AUG-CC-PVTZ-JKFIT + DEF2-UNIVERSAL-JKFIT
  @DF-RHF Final Energy: -2572.53368724599159
    Total Energy =                      -2572.5336872459915867
 Dipole X            :          0.0002245            0.0000000            0.0002245
 Dipole Y            :          0.0005052            0.0000000            0.0005052
 Dipole Z            :         -0.0000000            0.0000000           -0.0000000
 Magnitude           :                                                    0.0005528
  Basis Set: (AUG-CC-PVTZ AUX)
    Blend: AUG-CC-PVTZ-RI + DEF2-QZVPP-RI
	 Reference Energy          =   -2572.5336872459915867 [Eh]
	 Singles Energy            =      -0.0000000000000000 [Eh]
	 Same-Spin Energy          =      -0.0880103725574061 [Eh]
	 Opposite-Spin Energy      =      -0.2038939193857644 [Eh]
	 Correlation Energy        =      -0.2919042919431705 [Eh]
	 Total Energy              =   -2572.8255915379345424 [Eh]
	 SCS Total Energy          =   -2572.8076967401070760 [Eh]
                               Psi4 1.9 release
    Molecular point group: c1
  Basis Set: AUG-CC-PVTZ
    Blend: AUG-CC-PVTZ
  Basis Set: (AUG-CC-PVTZ AUX)
    Blend: AUG-CC-PVTZ-JKFIT + DEF2-UNIVERSAL-JKFIT
  @DF-RHF Final Energy:  -599.01750912232831
    Total Energy =                       -599.0175091223283061
  Basis Set: (AUG-CC-PVTZ AUX)
                               Psi4 1.9 release
  @DF-RHF Final Energy: -1197.91465723264832
    Total Energy =                      -1197.9146572326485511
                               Psi4 1.9 release
  @DF-RHF Final Energy: -3171.71271846650188
    Total Energy =                      -3171.7127184665014283
                               Psi4 1.9 release
  @DF-RHF Final Energy: -3171.72020131958152
    Total Energy =                      -3171.7202013195815198
                               Psi4 1.9 release
  Multiplicity = 1
  @DF-RHF Final Energy:  -599.01750833714868
    Total Energy =                       -599.0175083371485698
	 Singles Energy            =      -0.0000000000000000 [Eh]
	 Same-Spin Energy          =      -0.0280072782825405 [Eh]
	 Opposite-Spin Energy      =      -0.0652537021291947 [Eh]
	 Correlation Energy        =      -0.0932609804117352 [Eh]
	 Total Energy              =    -599.1107693175604254 [Eh]
	 SCS Total Energy          =    -599.1051485391312781 [Eh]
                               Psi4 1.9 release
    Molecular point group: c1

    Geometry (in Bohr), charge = 1, multiplicity = 1:

       Center              X                  Y                   Z               Mass
    ------------   -----------------  -----------------  -----------------  -----------------
         BR           0.000000000000     0.000000000000     0.000000000000    78.918337600000
         K            0.000000000000     5.269879246064     0.000000000000    38.963706486400
         K            6.323855095277     0.000000000000     0.000000000000    38.963706486400

  Charge       = 1
  Multiplicity = 1
  Basis Set: AUG-CC-PVTZ
    Blend: AUG-CC-PVTZ
  Basis Set: (AUG-CC-PVTZ AUX)
    Blend: AUG-CC-PVTZ-JKFIT + DEF2-UNIVERSAL-JKFIT

    Orbital Energies [Eh]
    ---------------------

    Doubly Occupied:

       1A   -490.047416     2A   -133.698080     3A   -133.656396
       4A    -65.188115     5A    -58.542622     6A    -58.542521
       7A    -58.542466     8A    -14.654133     9A    -14.614154
      10A    -11.684164    11A    -11.684121    12A    -11.684013
      13A    -11.643921    14A    -11.643857    15A    -11.643849
      16A     -9.861019    17A     -7.468775    18A     -7.468392
      19A     -7.468153    20A     -3.210518    21A     -3.210275
      22A     -3.210225    23A     -3.209565    24A     -3.209522
      25A     -1.911224    26A     -1.876771    27A     -1.120000
      28A     -1.118990    29A     -1.116652    30A     -1.093686
      31A     -1.086186    32A     -1.085051    33A     -1.013258
      34A     -0.479964    35A     -0.478506    36A     -0.469646

  @DF-RHF Final Energy: -3770.77422408176972

   => Energetics <=

    Nuclear Repulsion Energy =            275.2004680237532170
    One-Electron Energy =               -5774.6769774736940235
    Two-Electron Energy =                1728.7022853681710330
    Total Energy =                      -3770.7742240817697166
 Dipole X            :       -114.6568401          120.1532468            5.4964067
 Dipole Y            :        -95.7829964          100.1277057            4.3447093
 Dipole Z            :         -0.0000000            0.0000000           -0.0000000
 Magnitude           :                                                    7.0062105
  Basis Set: (AUG-CC-PVTZ AUX)
    Blend: AUG-CC-PVTZ-RI + DEF2-QZVPP-RI
	 Reference Energy          =   -3770.7742240817697166 [Eh]
	 Singles Energy            =      -0.0000000000000000 [Eh]
	 Same-Spin Energy          =      -0.1494214041334311 [Eh]
	 Opposite-Spin Energy      =      -0.3420760020605773 [Eh]
	 Correlation Energy        =      -0.4914974061940083 [Eh]
	 Total Energy              =   -3771.2657214879636740 [Eh]

	 ================> DF-SCS-MP2 Energies <==================
	-----------------------------------------------------------
	 SCS Same-Spin Scale       =       0.3333333333333333 [-]
	 SCS Opposite-Spin Scale   =       1.2000000000000000 [-]
	 SCS Same-Spin Energy      =      -0.0498071347111437 [Eh]
	 SCS Opposite-Spin Energy  =      -0.4104912024726927 [Eh]
	 SCS Correlation Energy    =      -0.4602983371838364 [Eh]
	 SCS Total Energy          =   -3771.2345224189534747 [Eh]
	-----------------------------------------------------------

*** Psi4 exiting successfully. Buy a developer a beer!
