                               Psi4 1.9 release

  ==> Input File <==

--------------------------------------------------------------------------
MEMORY 60 GB

molecule dimer {
1 1
Gh(Br)     0.000000     0.000000     0.000000
Gh(K)      0.000000     2.788700     0.000000
K          4.183050     0.000000     0.000000

units ang
no_reorient
no_com
symmetry c1
}

set {
basis        aug-cc-pVTZ
scf_type     df
}

energy("mp2")
--------------------------------------------------------------------------

    Molecular point group: c1

    Geometry (in Angstrom), charge = 1, multiplicity = 1:

       Center              X                  Y                   Z               Mass
    ------------   -----------------  -----------------  -----------------  -----------------
      Gh(BR)          0.000000000000     0.000000000000     0.000000000000    78.918337600000
      Gh(K)           0.000000000000     2.788700000000     0.000000000000    38.963706486400
         K            4.183050000000     0.000000000000     0.000000000000    38.963706486400

  Charge       = 1
  Multiplicity = 1
  Basis Set: AUG-CC-PVTZ
    Blend: AUG-CC-PVTZ
  Basis Set: (AUG-CC-PVTZ AUX)
    Blend: AUG-CC-PVTZ-JKFIT + DEF2-UNIVERSAL-JKFIT

    Orbital Energies [Eh]
    ---------------------

    Doubly Occupied:

       1A   -133.753740     2A    -14.709195     3A    -11.739260
       4A    -11.739256     5A    -11.739256     6A     -1.964360
       7A     -1.170969     8A     -1.170937     9A     -1.170932

  @DF-RHF Final Energy:  -599.01750751069142

   => Energetics <=

    Nuclear Repulsion Energy =              0.0000000000000000
    One-Electron Energy =                -819.7192043284703686
    Two-Electron Energy =                 220.7016968177789522
    Total Energy =                       -599.0175075106914164
 Dipole X            :       -142.2870372          150.1915585            7.9045214
 Dipole Y            :          0.0000456            0.0000000            0.0000456
 Dipole Z            :          0.0000000            0.0000000            0.0000000
 Magnitude           :                                                    7.9045214
  Basis Set: (AUG-CC-PVTZ AUX)
    Blend: AUG-CC-PVTZ-RI + DEF2-QZVPP-RI
	 Reference Energy          =    -599.0175075106914164 [Eh]
	 Singles Energy            =      -0.0000000000000000 [Eh]
	 Same-Spin Energy          =      -0.0268853606442306 [Eh]
	 Opposite-Spin Energy      =      -0.0622820009557251 [Eh]
	 Correlation Energy        =      -0.0891673615999556 [Eh]
	 Total Energy              =    -599.1066748722913644 [Eh]

	 ================> DF-SCS-MP2 Energies <==================
	-----------------------------------------------------------
	 SCS Same-Spin Scale       =       0.3333333333333333 [-]
	 SCS Opposite-Spin Scale   =       1.2000000000000000 [-]
	 SCS Same-Spin Energy      =      -0.0089617868814102 [Eh]
	 SCS Opposite-Spin Energy  =      -0.0747384011468701 [Eh]
	 SCS Correlation Energy    =      -0.0837001880282803 [Eh]
	 SCS Total Energy          =    -599.1012076987196906 [Eh]
	-----------------------------------------------------------

*** Psi4 exiting successfully. Buy a developer a beer!
