                               Psi4 1.9 release

  ==> Input File <==

--------------------------------------------------------------------------
MEMORY 60 GB

molecule dimer {
0 1
Br     0.000000     0.000000     0.000000
K      0.000000     2.788700     0.000000
--
1 1
K      3.625310     0.000000     0.000000

units ang
no_reorient
no_com
symmetry c1
}

set {
basis        aug-cc-pVTZ
scf_type     df
}

energy("mp2", bsse_type="cp")
--------------------------------------------------------------------------

                               Psi4 1.9 release
    Molecular point group: c1
  Charge       = 1
  Multiplicity = 1
  Basis Set: AUG-CC-PVTZ
    Blend: AUG-CC-PVTZ
  Basis Set: (AUG-CC-PVTZ AUX)
    Blend: AUG-CC-PVTZ-JKFIT + DEF2-UNIVERSAL-JKFIT
  @DF-RHF Final Energy:  -599.01750801848061
    Total Energy =                       -599.0175080184806120
 Dipole X            :       -123.3155471          130.1660174            6.8504703
 Dipole Y            :          0.0000873            0.0000000            0.0000873
 Dipole Z            :         -0.0000000            0.0000000           -0.0000000
 Magnitude           :                                                    6.8504703
  Basis Set: (AUG-CC-PVTZ AUX)
    Blend: AUG-CC-PVTZ-RI + DEF2-QZVPP-RI
	 Reference Energy          =    -599.0175080184806120 [Eh]
	 Singles Energy            =      -0.0000000000000000 [Eh]
	 Same-Spin Energy          =      -0.0275036175622262 [Eh]
	 Opposite-Spin Energy      =      -0.0639442271908534 [Eh]
	 Correlation Energy        =      -0.0914478447530796 [Eh]
	 Total Energy              =    -599.1089558632337457 [Eh]
	 SCS Total Energy          =    -599.1034089636303861 [Eh]
                               Psi4 1.9 release
    Molecular point group: c1
  Multiplicity = 1
  Basis Set: AUG-CC-PVTZ
    Blend: AUG-CC-PVTZ
  Basis Set: (AUG-CC-PVTZ AUX)
    Blend: AUG-CC-PVTZ-JKFIT + DEF2-UNIVERSAL-JKFIT
  @DF-RHF Final Energy: -3171.72019164696940
    Total Energy =                      -3171.7201916469693970
  Basis Set: (AUG-CC-PVTZ AUX)
	 Singles Energy            =      -0.0000000000000000 [Eh]
	 Same-Spin Energy          =      -0.1200155568542163 [Eh]
	 Opposite-Spin Energy      =      -0.2749023511619490 [Eh]
	 Correlation Energy        =      -0.3949179080161653 [Eh]
	 Total Energy              =   -3172.1151095549853380 [Eh]
	 SCS Total Energy          =   -3172.0900796539817748 [Eh]
                               Psi4 1.9 release
    Molecular point group: c1

    Geometry (in Bohr), charge = 1, multiplicity = 1:

       Center              X                  Y                   Z               Mass
    ------------   -----------------  -----------------  -----------------  -----------------
         BR           0.000000000000     0.000000000000     0.000000000000    78.918337600000
         K            0.000000000000     5.269879246064     0.000000000000    38.963706486400
         K            6.850843019884     0.000000000000     0.000000000000    38.963706486400

  Charge       = 1
  Multiplicity = 1
  Basis Set: AUG-CC-PVTZ
    Blend: AUG-CC-PVTZ
  Basis Set: (AUG-CC-PVTZ AUX)
    Blend: AUG-CC-PVTZ-JKFIT + DEF2-UNIVERSAL-JKFIT

    Orbital Energies [Eh]
    ---------------------

    Doubly Occupied:

       1A   -490.038712     2A   -133.707914     3A   -133.650321
       4A    -65.179324     5A    -58.533851     6A    -58.533725
       7A    -58.533671     8A    -14.663711     9A    -14.608093
      10A    -11.693774    11A    -11.693740    12A    -11.693641
      13A    -11.637852    14A    -11.637794    15A    -11.637784
      16A     -9.852148    17A     -7.459920    18A     -7.459485
      19A     -7.459245    20A     -3.201700    21A     -3.201430
      22A     -3.201382    23A     -3.200626    24A     -3.200581
      25A     -1.919960    26A     -1.870769    27A     -1.128264
      28A     -1.127483    29A     -1.124732    30A     -1.087398
      31A     -1.080198    32A     -1.079147    33A     -1.004010
      34A     -0.470176    35A     -0.467373    36A     -0.460102

  @DF-RHF Final Energy: -3770.77037960268490

   => Energetics <=

    Nuclear Repulsion Energy =            265.0239181947612224
    One-Electron Energy =               -5754.5885265382457874
    Two-Electron Energy =                1718.7942287408000084
    Total Energy =                      -3770.7703796026848977
 Dipole X            :       -124.0902434          130.1660174            6.0757739
 Dipole Y            :        -95.7962121          100.1277057            4.3314935
 Dipole Z            :         -0.0000000            0.0000000           -0.0000000
 Magnitude           :                                                    7.4616932
  Basis Set: (AUG-CC-PVTZ AUX)
    Blend: AUG-CC-PVTZ-RI + DEF2-QZVPP-RI
	 Reference Energy          =   -3770.7703796026848977 [Eh]
	 Singles Energy            =      -0.0000000000000000 [Eh]
	 Same-Spin Energy          =      -0.1483205512502195 [Eh]
	 Opposite-Spin Energy      =      -0.3398897456444312 [Eh]
	 Correlation Energy        =      -0.4882102968946507 [Eh]
	 Total Energy              =   -3771.2585898995794196 [Eh]

	 ================> DF-SCS-MP2 Energies <==================
	-----------------------------------------------------------
	 SCS Same-Spin Scale       =       0.3333333333333333 [-]
	 SCS Opposite-Spin Scale   =       1.2000000000000000 [-]
	 SCS Same-Spin Energy      =      -0.0494401837500732 [Eh]
	 SCS Opposite-Spin Energy  =      -0.4078676947733174 [Eh]
	 SCS Correlation Energy    =      -0.4573078785233906 [Eh]
	 SCS Total Energy          =   -3771.2276874812082497 [Eh]
	-----------------------------------------------------------

*** Psi4 exiting successfully. Buy a developer a beer!
