                               Psi4 1.9 release

  ==> Input File <==

--------------------------------------------------------------------------
MEMORY 60 GB

molecule dimer {
1 1
Gh(Br)     0.000000     0.000000     0.000000
K          0.000000     2.788700     0.000000
Gh(K)      3.067570     0.000000     0.000000

units ang
no_reorient
no_com
symmetry c1
}

set {
basis        aug-cc-pVTZ
scf_type     df
}

energy("mp2")
--------------------------------------------------------------------------

    Molecular point group: c1

    Geometry (in Angstrom), charge = 1, multiplicity = 1:

       Center              X                  Y                   Z               Mass
    ------------   -----------------  -----------------  -----------------  -----------------
      Gh(BR)          0.000000000000     0.000000000000     0.000000000000    78.918337600000
         K            0.000000000000     2.788700000000     0.000000000000    38.963706486400
      Gh(K)           3.067570000000     0.000000000000     0.000000000000    38.963706486400

  Charge       = 1
  Multiplicity = 1
  Basis Set: AUG-CC-PVTZ
    Blend: AUG-CC-PVTZ
  Basis Set: (AUG-CC-PVTZ AUX)
    Blend: AUG-CC-PVTZ-JKFIT + DEF2-UNIVERSAL-JKFIT

    Orbital Energies [Eh]
    ---------------------

    Doubly Occupied:

       1A   -133.753514     2A    -14.709013     3A    -11.739081
       4A    -11.739076     5A    -11.739074     6A     -1.964267
       7A     -1.170916     8A     -1.170876     9A     -1.170856

  @DF-RHF Final Energy:  -599.01750933380936

   => Energetics <=

    Nuclear Repulsion Energy =              0.0000000000000000
    One-Electron Energy =                -819.7216767076581618
    Two-Electron Energy =                 220.7041673738487475
    Total Energy =                       -599.0175093338093575
 Dipole X            :          0.0001192            0.0000000            0.0001192
 Dipole Y            :        -94.8582827          100.1277057            5.2694230
 Dipole Z            :         -0.0000000            0.0000000           -0.0000000
 Magnitude           :                                                    5.2694230
  Basis Set: (AUG-CC-PVTZ AUX)
    Blend: AUG-CC-PVTZ-RI + DEF2-QZVPP-RI
	 Reference Energy          =    -599.0175093338093575 [Eh]
	 Singles Energy            =      -0.0000000000000000 [Eh]
	 Same-Spin Energy          =      -0.0294526124453667 [Eh]
	 Opposite-Spin Energy      =      -0.0693895785282171 [Eh]
	 Correlation Energy        =      -0.0988421909735838 [Eh]
	 Total Energy              =    -599.1163515247828855 [Eh]

	 ================> DF-SCS-MP2 Energies <==================
	-----------------------------------------------------------
	 SCS Same-Spin Scale       =       0.3333333333333333 [-]
	 SCS Opposite-Spin Scale   =       1.2000000000000000 [-]
	 SCS Same-Spin Energy      =      -0.0098175374817889 [Eh]
	 SCS Opposite-Spin Energy  =      -0.0832674942338605 [Eh]
	 SCS Correlation Energy    =      -0.0930850317156494 [Eh]
	 SCS Total Energy          =    -599.1105943655250030 [Eh]
	-----------------------------------------------------------

*** Psi4 exiting successfully. Buy a developer a beer!
