                               Psi4 1.9 release

  ==> Input File <==

--------------------------------------------------------------------------
MEMORY 60 GB

molecule dimer {
1 1
Gh(Br)     0.000000     0.000000     0.000000
K          0.000000     2.788700     0.000000
Gh(K)      4.183050     0.000000     0.000000

units ang
no_reorient
no_com
symmetry c1
}

set {
basis        aug-cc-pVTZ
scf_type     df
}

energy("mp2")
--------------------------------------------------------------------------

    Molecular point group: c1

    Geometry (in Angstrom), charge = 1, multiplicity = 1:

       Center              X                  Y                   Z               Mass
    ------------   -----------------  -----------------  -----------------  -----------------
      Gh(BR)          0.000000000000     0.000000000000     0.000000000000    78.918337600000
         K            0.000000000000     2.788700000000     0.000000000000    38.963706486400
      Gh(K)           4.183050000000     0.000000000000     0.000000000000    38.963706486400

  Charge       = 1
  Multiplicity = 1
  Basis Set: AUG-CC-PVTZ
    Blend: AUG-CC-PVTZ
  Basis Set: (AUG-CC-PVTZ AUX)
    Blend: AUG-CC-PVTZ-JKFIT + DEF2-UNIVERSAL-JKFIT

    Orbital Energies [Eh]
    ---------------------

    Doubly Occupied:

       1A   -133.753648     2A    -14.709117     3A    -11.739186
       4A    -11.739181     5A    -11.739180     6A     -1.964314
       7A     -1.170950     8A     -1.170910     9A     -1.170896

  @DF-RHF Final Energy:  -599.01750860823802

   => Energetics <=

    Nuclear Repulsion Energy =              0.0000000000000000
    One-Electron Energy =                -819.7202612207647690
    Two-Electron Energy =                 220.7027526125267514
    Total Energy =                       -599.0175086082380176
 Dipole X            :          0.0000337            0.0000000            0.0000337
 Dipole Y            :        -94.8583172          100.1277057            5.2693885
 Dipole Z            :         -0.0000000            0.0000000           -0.0000000
 Magnitude           :                                                    5.2693885
  Basis Set: (AUG-CC-PVTZ AUX)
    Blend: AUG-CC-PVTZ-RI + DEF2-QZVPP-RI
	 Reference Energy          =    -599.0175086082380176 [Eh]
	 Singles Energy            =      -0.0000000000000000 [Eh]
	 Same-Spin Energy          =      -0.0288881216887040 [Eh]
	 Opposite-Spin Energy      =      -0.0677856757719255 [Eh]
	 Correlation Energy        =      -0.0966737974606295 [Eh]
	 Total Energy              =    -599.1141824056986707 [Eh]

	 ================> DF-SCS-MP2 Energies <==================
	-----------------------------------------------------------
	 SCS Same-Spin Scale       =       0.3333333333333333 [-]
	 SCS Opposite-Spin Scale   =       1.2000000000000000 [-]
	 SCS Same-Spin Energy      =      -0.0096293738962347 [Eh]
	 SCS Opposite-Spin Energy  =      -0.0813428109263106 [Eh]
	 SCS Correlation Energy    =      -0.0909721848225453 [Eh]
	 SCS Total Energy          =    -599.1084807930606075 [Eh]
	-----------------------------------------------------------

*** Psi4 exiting successfully. Buy a developer a beer!
