                               Psi4 1.9 release

  ==> Input File <==

--------------------------------------------------------------------------
MEMORY 60 GB

molecule dimer {
1 1
Br         0.000000     0.000000     0.000000
K          0.000000     2.788700     0.000000
K          2.788700     0.000000     0.000000

units ang
no_reorient
no_com
symmetry c1
}

set {
basis        aug-cc-pVTZ
scf_type     df
}

energy("mp2")
--------------------------------------------------------------------------

    Molecular point group: c1

    Geometry (in Angstrom), charge = 1, multiplicity = 1:

       Center              X                  Y                   Z               Mass
    ------------   -----------------  -----------------  -----------------  -----------------
         BR           0.000000000000     0.000000000000     0.000000000000    78.918337600000
         K            0.000000000000     2.788700000000     0.000000000000    38.963706486400
         K            2.788700000000     0.000000000000     0.000000000000    38.963706486400

  Charge       = 1
  Multiplicity = 1
  Basis Set: AUG-CC-PVTZ
    Blend: AUG-CC-PVTZ
  Basis Set: (AUG-CC-PVTZ AUX)
    Blend: AUG-CC-PVTZ-JKFIT + DEF2-UNIVERSAL-JKFIT

    Orbital Energies [Eh]
    ---------------------

    Doubly Occupied:

       1A   -490.063160     2A   -133.669605     3A   -133.669605
       4A    -65.204445     5A    -58.558853     6A    -58.558841
       7A    -58.558774     8A    -14.627348     9A    -14.627348
      10A    -11.657130    11A    -11.657130    12A    -11.657053
      13A    -11.657053    14A    -11.657052    15A    -11.657052
      16A     -9.877907    17A     -7.485586    18A     -7.485413
      19A     -7.485229    20A     -3.227063    21A     -3.227032
      22A     -3.226995    23A     -3.226739    24A     -3.226721
      25A     -1.890044    26A     -1.889698    27A     -1.117695
      28A     -1.100102    29A     -1.098406    30A     -1.098152
      31A     -1.097663    32A     -1.097224    33A     -1.026996
      34A     -0.501703    35A     -0.500018    36A     -0.491251

  @DF-RHF Final Energy: -3770.76895984608518

   => Energetics <=

    Nuclear Repulsion Energy =            300.8162946413398231
    One-Electron Energy =               -5825.4543393829389970
    Two-Electron Energy =                1753.8690848955145611
    Total Energy =                      -3770.7689598460847265
 Dipole X            :        -95.7468945          100.1277057            4.3808112
 Dipole Y            :        -95.7468945          100.1277057            4.3808112
 Dipole Z            :          0.0000000            0.0000000            0.0000000
 Magnitude           :                                                    6.1954026
  Basis Set: (AUG-CC-PVTZ AUX)
    Blend: AUG-CC-PVTZ-RI + DEF2-QZVPP-RI
	 Reference Energy          =   -3770.7689598460851812 [Eh]
	 Singles Energy            =      -0.0000000000000000 [Eh]
	 Same-Spin Energy          =      -0.1529308633763495 [Eh]
	 Opposite-Spin Energy      =      -0.3487155504309309 [Eh]
	 Correlation Energy        =      -0.5016464138072805 [Eh]
	 Total Energy              =   -3771.2706062598922472 [Eh]

	 ================> DF-SCS-MP2 Energies <==================
	-----------------------------------------------------------
	 SCS Same-Spin Scale       =       0.3333333333333333 [-]
	 SCS Opposite-Spin Scale   =       1.2000000000000000 [-]
	 SCS Same-Spin Energy      =      -0.0509769544587832 [Eh]
	 SCS Opposite-Spin Energy  =      -0.4184586605171171 [Eh]
	 SCS Correlation Energy    =      -0.4694356149759003 [Eh]
	 SCS Total Energy          =   -3771.2383954610609180 [Eh]
	-----------------------------------------------------------

*** Psi4 exiting successfully. Buy a developer a beer!
