                               Psi4 1.9 release

  ==> Input File <==

--------------------------------------------------------------------------
MEMORY 60 GB

molecule dimer {
0 1
Br     0.000000     0.000000     0.000000
K      0.000000     2.788700     0.000000
--
1 1
K      3.346440     0.000000     0.000000

units ang
no_reorient
no_com
symmetry c1
}

set {
basis        aug-cc-pVTZ
scf_type     df
}

energy("mp2", bsse_type="cp")
--------------------------------------------------------------------------

                               Psi4 1.9 release
    Molecular point group: c1
  Charge       = 1
  Multiplicity = 1
  Basis Set: AUG-CC-PVTZ
    Blend: AUG-CC-PVTZ
  Basis Set: (AUG-CC-PVTZ AUX)
    Blend: AUG-CC-PVTZ-JKFIT + DEF2-UNIVERSAL-JKFIT
  @DF-RHF Final Energy:  -599.01750833714891
    Total Energy =                       -599.0175083371489109
 Dipole X            :       -113.8297547          120.1532468            6.3234921
 Dipole Y            :          0.0001232            0.0000000            0.0001232
 Dipole Z            :         -0.0000000            0.0000000           -0.0000000
 Magnitude           :                                                    6.3234921
  Basis Set: (AUG-CC-PVTZ AUX)
    Blend: AUG-CC-PVTZ-RI + DEF2-QZVPP-RI
	 Reference Energy          =    -599.0175083371489109 [Eh]
	 Singles Energy            =      -0.0000000000000000 [Eh]
	 Same-Spin Energy          =      -0.0280072782828430 [Eh]
	 Opposite-Spin Energy      =      -0.0652537021296688 [Eh]
	 Correlation Energy        =      -0.0932609804125118 [Eh]
	 Total Energy              =    -599.1107693175614486 [Eh]
	 SCS Total Energy          =    -599.1051485391320739 [Eh]
                               Psi4 1.9 release
    Molecular point group: c1
  Multiplicity = 1
  Basis Set: AUG-CC-PVTZ
    Blend: AUG-CC-PVTZ
  Basis Set: (AUG-CC-PVTZ AUX)
    Blend: AUG-CC-PVTZ-JKFIT + DEF2-UNIVERSAL-JKFIT
  @DF-RHF Final Energy: -3171.72020131958107
    Total Energy =                      -3171.7202013195815198
  Basis Set: (AUG-CC-PVTZ AUX)
	 Singles Energy            =      -0.0000000000000000 [Eh]
	 Same-Spin Energy          =      -0.1202396882989991 [Eh]
	 Opposite-Spin Energy      =      -0.2754818489993869 [Eh]
	 Correlation Energy        =      -0.3957215372983859 [Eh]
	 Total Energy              =   -3172.1159228568794788 [Eh]
	 SCS Total Energy          =   -3172.0908594344800804 [Eh]
                               Psi4 1.9 release
    Molecular point group: c1

    Geometry (in Bohr), charge = 1, multiplicity = 1:

       Center              X                  Y                   Z               Mass
    ------------   -----------------  -----------------  -----------------  -----------------
         BR           0.000000000000     0.000000000000     0.000000000000    78.918337600000
         K            0.000000000000     5.269879246064     0.000000000000    38.963706486400
         K            6.323855095277     0.000000000000     0.000000000000    38.963706486400

  Charge       = 1
  Multiplicity = 1
  Basis Set: AUG-CC-PVTZ
    Blend: AUG-CC-PVTZ
  Basis Set: (AUG-CC-PVTZ AUX)
    Blend: AUG-CC-PVTZ-JKFIT + DEF2-UNIVERSAL-JKFIT

    Orbital Energies [Eh]
    ---------------------

    Doubly Occupied:

       1A   -490.047416     2A   -133.698080     3A   -133.656396
       4A    -65.188115     5A    -58.542622     6A    -58.542521
       7A    -58.542466     8A    -14.654133     9A    -14.614154
      10A    -11.684164    11A    -11.684121    12A    -11.684013
      13A    -11.643921    14A    -11.643857    15A    -11.643849
      16A     -9.861019    17A     -7.468775    18A     -7.468392
      19A     -7.468153    20A     -3.210518    21A     -3.210275
      22A     -3.210225    23A     -3.209565    24A     -3.209522
      25A     -1.911224    26A     -1.876771    27A     -1.120000
      28A     -1.118990    29A     -1.116652    30A     -1.093686
      31A     -1.086186    32A     -1.085051    33A     -1.013258
      34A     -0.479964    35A     -0.478506    36A     -0.469646

  @DF-RHF Final Energy: -3770.77422408177199

   => Energetics <=

    Nuclear Repulsion Energy =            275.2004680237532170
    One-Electron Energy =               -5774.6769774737131229
    Two-Electron Energy =                1728.7022853681878587
    Total Energy =                      -3770.7742240817719903
 Dipole X            :       -114.6568401          120.1532468            5.4964067
 Dipole Y            :        -95.7829964          100.1277057            4.3447093
 Dipole Z            :         -0.0000000            0.0000000           -0.0000000
 Magnitude           :                                                    7.0062105
  Basis Set: (AUG-CC-PVTZ AUX)
    Blend: AUG-CC-PVTZ-RI + DEF2-QZVPP-RI
	 Reference Energy          =   -3770.7742240817719903 [Eh]
	 Singles Energy            =      -0.0000000000000000 [Eh]
	 Same-Spin Energy          =      -0.1494214041333380 [Eh]
	 Opposite-Spin Energy      =      -0.3420760020603762 [Eh]
	 Correlation Energy        =      -0.4914974061937143 [Eh]
	 Total Energy              =   -3771.2657214879654930 [Eh]

	 ================> DF-SCS-MP2 Energies <==================
	-----------------------------------------------------------
	 SCS Same-Spin Scale       =       0.3333333333333333 [-]
	 SCS Opposite-Spin Scale   =       1.2000000000000000 [-]
	 SCS Same-Spin Energy      =      -0.0498071347111127 [Eh]
	 SCS Opposite-Spin Energy  =      -0.4104912024724515 [Eh]
	 SCS Correlation Energy    =      -0.4602983371835642 [Eh]
	 SCS Total Energy          =   -3771.2345224189557484 [Eh]
	-----------------------------------------------------------

*** Psi4 exiting successfully. Buy a developer a beer!
