                               Psi4 1.9 release

  ==> Input File <==

--------------------------------------------------------------------------
MEMORY 60 GB

molecule dimer {
1 1
Br         0.000000     0.000000     0.000000
K          0.000000     2.788700     0.000000
K          3.625310     0.000000     0.000000

units ang
no_reorient
no_com
symmetry c1
}

set {
basis        aug-cc-pVTZ
scf_type     df
}

energy("mp2")
--------------------------------------------------------------------------

    Molecular point group: c1

    Geometry (in Angstrom), charge = 1, multiplicity = 1:

       Center              X                  Y                   Z               Mass
    ------------   -----------------  -----------------  -----------------  -----------------
         BR           0.000000000000     0.000000000000     0.000000000000    78.918337600000
         K            0.000000000000     2.788700000000     0.000000000000    38.963706486400
         K            3.625310000000     0.000000000000     0.000000000000    38.963706486400

  Charge       = 1
  Multiplicity = 1
  Basis Set: AUG-CC-PVTZ
    Blend: AUG-CC-PVTZ
  Basis Set: (AUG-CC-PVTZ AUX)
    Blend: AUG-CC-PVTZ-JKFIT + DEF2-UNIVERSAL-JKFIT

    Orbital Energies [Eh]
    ---------------------

    Doubly Occupied:

       1A   -490.038712     2A   -133.707914     3A   -133.650321
       4A    -65.179324     5A    -58.533851     6A    -58.533725
       7A    -58.533671     8A    -14.663711     9A    -14.608093
      10A    -11.693774    11A    -11.693740    12A    -11.693641
      13A    -11.637852    14A    -11.637794    15A    -11.637784
      16A     -9.852148    17A     -7.459920    18A     -7.459485
      19A     -7.459245    20A     -3.201700    21A     -3.201430
      22A     -3.201382    23A     -3.200626    24A     -3.200581
      25A     -1.919960    26A     -1.870769    27A     -1.128264
      28A     -1.127483    29A     -1.124732    30A     -1.087398
      31A     -1.080198    32A     -1.079147    33A     -1.004010
      34A     -0.470176    35A     -0.467373    36A     -0.460102

  @DF-RHF Final Energy: -3770.77037960268171

   => Energetics <=

    Nuclear Repulsion Energy =            265.0239181947612224
    One-Electron Energy =               -5754.5885265366741805
    Two-Electron Energy =                1718.7942287392313574
    Total Energy =                      -3770.7703796026817145
 Dipole X            :       -124.0902434          130.1660174            6.0757739
 Dipole Y            :        -95.7962121          100.1277057            4.3314936
 Dipole Z            :         -0.0000000            0.0000000           -0.0000000
 Magnitude           :                                                    7.4616932
  Basis Set: (AUG-CC-PVTZ AUX)
    Blend: AUG-CC-PVTZ-RI + DEF2-QZVPP-RI
	 Reference Energy          =   -3770.7703796026817145 [Eh]
	 Singles Energy            =      -0.0000000000000000 [Eh]
	 Same-Spin Energy          =      -0.1483205512499188 [Eh]
	 Opposite-Spin Energy      =      -0.3398897456438802 [Eh]
	 Correlation Energy        =      -0.4882102968937990 [Eh]
	 Total Energy              =   -3771.2585898995753269 [Eh]

	 ================> DF-SCS-MP2 Energies <==================
	-----------------------------------------------------------
	 SCS Same-Spin Scale       =       0.3333333333333333 [-]
	 SCS Opposite-Spin Scale   =       1.2000000000000000 [-]
	 SCS Same-Spin Energy      =      -0.0494401837499729 [Eh]
	 SCS Opposite-Spin Energy  =      -0.4078676947726563 [Eh]
	 SCS Correlation Energy    =      -0.4573078785226292 [Eh]
	 SCS Total Energy          =   -3771.2276874812041569 [Eh]
	-----------------------------------------------------------

*** Psi4 exiting successfully. Buy a developer a beer!
