                               Psi4 1.9 release

  ==> Input File <==

--------------------------------------------------------------------------
MEMORY 60 GB

molecule dimer {
-1 1
Br         0.000000     0.000000     0.000000
Gh(K)      0.000000     2.788700     0.000000
Gh(K)      3.346440     0.000000     0.000000

units ang
no_reorient
no_com
symmetry c1
}

set {
basis        aug-cc-pVTZ
scf_type     df
}

energy("mp2")
--------------------------------------------------------------------------

    Molecular point group: c1

    Geometry (in Angstrom), charge = -1, multiplicity = 1:

       Center              X                  Y                   Z               Mass
    ------------   -----------------  -----------------  -----------------  -----------------
         BR           0.000000000000     0.000000000000     0.000000000000    78.918337600000
      Gh(K)           0.000000000000     2.788700000000     0.000000000000    38.963706486400
      Gh(K)           3.346440000000     0.000000000000     0.000000000000    38.963706486400

  Charge       = -1
  Multiplicity = 1
  Basis Set: AUG-CC-PVTZ
    Blend: AUG-CC-PVTZ
  Basis Set: (AUG-CC-PVTZ AUX)
    Blend: AUG-CC-PVTZ-JKFIT + DEF2-UNIVERSAL-JKFIT

    Orbital Energies [Eh]
    ---------------------

    Doubly Occupied:

       1A   -489.720982     2A    -64.860886     3A    -58.215381
       4A    -58.215380     5A    -58.215379     6A     -9.532984
       7A     -7.140329     8A     -7.140322     9A     -7.140319
      10A     -2.882008    11A     -2.882007    12A     -2.882004
      13A     -2.882003    14A     -2.882003    15A     -0.685996
      16A     -0.139338    17A     -0.139337    18A     -0.139335

  @DF-RHF Final Energy: -2572.53368724605389

   => Energetics <=

    Nuclear Repulsion Energy =              0.0000000000000000
    One-Electron Energy =               -3593.6753858751098960
    Two-Electron Energy =                1021.1416986290556679
    Total Energy =                      -2572.5336872460543418
 Dipole X            :          0.0002245            0.0000000            0.0002245
 Dipole Y            :          0.0005052            0.0000000            0.0005052
 Dipole Z            :         -0.0000000            0.0000000           -0.0000000
 Magnitude           :                                                    0.0005528
  Basis Set: (AUG-CC-PVTZ AUX)
    Blend: AUG-CC-PVTZ-RI + DEF2-QZVPP-RI
	 Reference Energy          =   -2572.5336872460538871 [Eh]
	 Singles Energy            =      -0.0000000000000000 [Eh]
	 Same-Spin Energy          =      -0.0880103725573777 [Eh]
	 Opposite-Spin Energy      =      -0.2038939193857468 [Eh]
	 Correlation Energy        =      -0.2919042919431245 [Eh]
	 Total Energy              =   -2572.8255915379968428 [Eh]

	 ================> DF-SCS-MP2 Energies <==================
	-----------------------------------------------------------
	 SCS Same-Spin Scale       =       0.3333333333333333 [-]
	 SCS Opposite-Spin Scale   =       1.2000000000000000 [-]
	 SCS Same-Spin Energy      =      -0.0293367908524592 [Eh]
	 SCS Opposite-Spin Energy  =      -0.2446727032628962 [Eh]
	 SCS Correlation Energy    =      -0.2740094941153554 [Eh]
	 SCS Total Energy          =   -2572.8076967401693764 [Eh]
	-----------------------------------------------------------

*** Psi4 exiting successfully. Buy a developer a beer!
