                               Psi4 1.9 release

  ==> Input File <==

--------------------------------------------------------------------------
MEMORY 60 GB

molecule dimer {
-1 1
Br     0.000000     0.000000     0.000000
--
1 1
K      0.000000     2.788700     0.000000
--
1 1
K      2.788700     0.000000     0.000000

units ang
no_reorient
no_com
symmetry c1
}

set {
basis        aug-cc-pVTZ
scf_type     df
}

energy("mp2", bsse_type="cp")
--------------------------------------------------------------------------

                               Psi4 1.9 release
    Molecular point group: c1
  Charge       = -1
  Multiplicity = 1
  Basis Set: AUG-CC-PVTZ
    Blend: AUG-CC-PVTZ
  Basis Set: (AUG-CC-PVTZ AUX)
    Blend: AUG-CC-PVTZ-JKFIT + DEF2-UNIVERSAL-JKFIT
  @DF-RHF Final Energy: -2572.53368892058870
    Total Energy =                      -2572.5336889205887019
 Dipole X            :          0.0004234            0.0000000            0.0004234
 Dipole Y            :          0.0004234            0.0000000            0.0004234
 Dipole Z            :         -0.0000000            0.0000000           -0.0000000
 Magnitude           :                                                    0.0005987
  Basis Set: (AUG-CC-PVTZ AUX)
    Blend: AUG-CC-PVTZ-RI + DEF2-QZVPP-RI
	 Reference Energy          =   -2572.5336889205887019 [Eh]
	 Singles Energy            =      -0.0000000000000000 [Eh]
	 Same-Spin Energy          =      -0.0880960604048902 [Eh]
	 Opposite-Spin Energy      =      -0.2041163611015971 [Eh]
	 Correlation Energy        =      -0.2922124215064872 [Eh]
	 Total Energy              =   -2572.8259013420952215 [Eh]
	 SCS Total Energy          =   -2572.8079939073791138 [Eh]
                               Psi4 1.9 release
    Molecular point group: c1
  Basis Set: AUG-CC-PVTZ
    Blend: AUG-CC-PVTZ
  Basis Set: (AUG-CC-PVTZ AUX)
    Blend: AUG-CC-PVTZ-JKFIT + DEF2-UNIVERSAL-JKFIT
  @DF-RHF Final Energy:  -599.01750953021156
    Total Energy =                       -599.0175095302115551
  Basis Set: (AUG-CC-PVTZ AUX)
                               Psi4 1.9 release
  @DF-RHF Final Energy: -1197.90250907724339
    Total Energy =                      -1197.9025090772433941
                               Psi4 1.9 release
  @DF-RHF Final Energy: -3171.72021733293241
    Total Energy =                      -3171.7202173329324069
                               Psi4 1.9 release
  @DF-RHF Final Energy: -3171.72021733310521
    Total Energy =                      -3171.7202173331052109
                               Psi4 1.9 release
  Multiplicity = 1
  @DF-RHF Final Energy:  -599.01750953006172
    Total Energy =                       -599.0175095300617159
	 Singles Energy            =      -0.0000000000000000 [Eh]
	 Same-Spin Energy          =      -0.0295746135717522 [Eh]
	 Opposite-Spin Energy      =      -0.0697501585540503 [Eh]
	 Correlation Energy        =      -0.0993247721258025 [Eh]
	 Total Energy              =    -599.1168343021874989 [Eh]
	 SCS Total Energy          =    -599.1110679248505448 [Eh]
                               Psi4 1.9 release
    Molecular point group: c1

    Geometry (in Bohr), charge = 1, multiplicity = 1:

       Center              X                  Y                   Z               Mass
    ------------   -----------------  -----------------  -----------------  -----------------
         BR           0.000000000000     0.000000000000     0.000000000000    78.918337600000
         K            0.000000000000     5.269879246064     0.000000000000    38.963706486400
         K            5.269879246064     0.000000000000     0.000000000000    38.963706486400

  Charge       = 1
  Multiplicity = 1
  Basis Set: AUG-CC-PVTZ
    Blend: AUG-CC-PVTZ
  Basis Set: (AUG-CC-PVTZ AUX)
    Blend: AUG-CC-PVTZ-JKFIT + DEF2-UNIVERSAL-JKFIT

    Orbital Energies [Eh]
    ---------------------

    Doubly Occupied:

       1A   -490.063160     2A   -133.669605     3A   -133.669605
       4A    -65.204445     5A    -58.558853     6A    -58.558841
       7A    -58.558774     8A    -14.627348     9A    -14.627348
      10A    -11.657130    11A    -11.657130    12A    -11.657053
      13A    -11.657053    14A    -11.657052    15A    -11.657052
      16A     -9.877907    17A     -7.485586    18A     -7.485413
      19A     -7.485229    20A     -3.227063    21A     -3.227032
      22A     -3.226995    23A     -3.226739    24A     -3.226721
      25A     -1.890044    26A     -1.889698    27A     -1.117695
      28A     -1.100102    29A     -1.098406    30A     -1.098152
      31A     -1.097663    32A     -1.097224    33A     -1.026996
      34A     -0.501703    35A     -0.500018    36A     -0.491251

  @DF-RHF Final Energy: -3770.76895984608745

   => Energetics <=

    Nuclear Repulsion Energy =            300.8162946413398231
    One-Electron Energy =               -5825.4543393880676376
    Two-Electron Energy =                1753.8690849006409280
    Total Energy =                      -3770.7689598460874549
 Dipole X            :        -95.7468945          100.1277057            4.3808112
 Dipole Y            :        -95.7468945          100.1277057            4.3808112
 Dipole Z            :          0.0000000            0.0000000            0.0000000
 Magnitude           :                                                    6.1954026
  Basis Set: (AUG-CC-PVTZ AUX)
    Blend: AUG-CC-PVTZ-RI + DEF2-QZVPP-RI
	 Reference Energy          =   -3770.7689598460874549 [Eh]
	 Singles Energy            =      -0.0000000000000000 [Eh]
	 Same-Spin Energy          =      -0.1529308633757253 [Eh]
	 Opposite-Spin Energy      =      -0.3487155504296718 [Eh]
	 Correlation Energy        =      -0.5016464138053971 [Eh]
	 Total Energy              =   -3771.2706062598927019 [Eh]

	 ================> DF-SCS-MP2 Energies <==================
	-----------------------------------------------------------
	 SCS Same-Spin Scale       =       0.3333333333333333 [-]
	 SCS Opposite-Spin Scale   =       1.2000000000000000 [-]
	 SCS Same-Spin Energy      =      -0.0509769544585751 [Eh]
	 SCS Opposite-Spin Energy  =      -0.4184586605156062 [Eh]
	 SCS Correlation Energy    =      -0.4694356149741813 [Eh]
	 SCS Total Energy          =   -3771.2383954610618275 [Eh]
	-----------------------------------------------------------

*** Psi4 exiting successfully. Buy a developer a beer!
