                               Psi4 1.9 release

  ==> Input File <==

--------------------------------------------------------------------------
MEMORY 60 GB

molecule dimer {
-1 1
Br     0.000000     0.000000     0.000000
--
1 1
K      0.000000     2.788700     0.000000
--
1 1
K      4.183050     0.000000     0.000000

units ang
no_reorient
no_com
symmetry c1
}

set {
basis        aug-cc-pVTZ
scf_type     df
}

energy("mp2", bsse_type="cp")
--------------------------------------------------------------------------

                               Psi4 1.9 release
    Molecular point group: c1
  Charge       = -1
  Multiplicity = 1
  Basis Set: AUG-CC-PVTZ
    Blend: AUG-CC-PVTZ
  Basis Set: (AUG-CC-PVTZ AUX)
    Blend: AUG-CC-PVTZ-JKFIT + DEF2-UNIVERSAL-JKFIT
  @DF-RHF Final Energy: -2572.53368464095684
    Total Energy =                      -2572.5336846409568352
 Dipole X            :          0.0001856            0.0000000            0.0001856
 Dipole Y            :          0.0005454            0.0000000            0.0005454
 Dipole Z            :         -0.0000000            0.0000000           -0.0000000
 Magnitude           :                                                    0.0005762
  Basis Set: (AUG-CC-PVTZ AUX)
    Blend: AUG-CC-PVTZ-RI + DEF2-QZVPP-RI
	 Reference Energy          =   -2572.5336846409568352 [Eh]
	 Singles Energy            =      -0.0000000000000000 [Eh]
	 Same-Spin Energy          =      -0.0878077005559035 [Eh]
	 Opposite-Spin Energy      =      -0.2034501936529628 [Eh]
	 Correlation Energy        =      -0.2912578942088663 [Eh]
	 Total Energy              =   -2572.8249425351655191 [Eh]
	 SCS Total Energy          =   -2572.8070941068590400 [Eh]
                               Psi4 1.9 release
    Molecular point group: c1
  Basis Set: AUG-CC-PVTZ
    Blend: AUG-CC-PVTZ
  Basis Set: (AUG-CC-PVTZ AUX)
    Blend: AUG-CC-PVTZ-JKFIT + DEF2-UNIVERSAL-JKFIT
  @DF-RHF Final Energy:  -599.01750860823790
    Total Energy =                       -599.0175086082379039
  Basis Set: (AUG-CC-PVTZ AUX)
                               Psi4 1.9 release
  @DF-RHF Final Energy: -1197.93038095215024
    Total Energy =                      -1197.9303809521502444
                               Psi4 1.9 release
  @DF-RHF Final Energy: -3171.68347632679433
    Total Energy =                      -3171.6834763267943345
                               Psi4 1.9 release
  @DF-RHF Final Energy: -3171.72017490358849
    Total Energy =                      -3171.7201749035884859
                               Psi4 1.9 release
  Multiplicity = 1
  @DF-RHF Final Energy:  -599.01750751069130
    Total Energy =                       -599.0175075106913027
	 Singles Energy            =      -0.0000000000000000 [Eh]
	 Same-Spin Energy          =      -0.0268853606446637 [Eh]
	 Opposite-Spin Energy      =      -0.0622820009564857 [Eh]
	 Correlation Energy        =      -0.0891673616011493 [Eh]
	 Total Energy              =    -599.1066748722925013 [Eh]
	 SCS Total Energy          =    -599.1012076987206001 [Eh]
                               Psi4 1.9 release
    Molecular point group: c1

    Geometry (in Bohr), charge = 1, multiplicity = 1:

       Center              X                  Y                   Z               Mass
    ------------   -----------------  -----------------  -----------------  -----------------
         BR           0.000000000000     0.000000000000     0.000000000000    78.918337600000
         K            0.000000000000     5.269879246064     0.000000000000    38.963706486400
         K            7.904818869096     0.000000000000     0.000000000000    38.963706486400

  Charge       = 1
  Multiplicity = 1
  Basis Set: AUG-CC-PVTZ
    Blend: AUG-CC-PVTZ
  Basis Set: (AUG-CC-PVTZ AUX)
    Blend: AUG-CC-PVTZ-JKFIT + DEF2-UNIVERSAL-JKFIT

    Orbital Energies [Eh]
    ---------------------

    Doubly Occupied:

       1A   -490.021552     2A   -133.722729     3A   -133.639148
       4A    -65.162139     5A    -58.516667     6A    -58.516541
       7A    -58.516486     8A    -14.678279     9A    -14.596942
      10A    -11.708361    11A    -11.708340    12A    -11.708269
      13A    -11.626686    14A    -11.626639    15A    -11.626625
      16A     -9.834949    17A     -7.442682    18A     -7.442289
      19A     -7.442057    20A     -3.184459    21A     -3.184209
      22A     -3.184167    23A     -3.183458    24A     -3.183412
      25A     -1.933755    26A     -1.859716    27A     -1.141406
      28A     -1.140890    29A     -1.138890    30A     -1.075498
      31A     -1.069143    32A     -1.068257    33A     -0.986876
      34A     -0.453026    35A     -0.447238    36A     -0.442925

  @DF-RHF Final Energy: -3770.76172189923591

   => Energetics <=

    Nuclear Repulsion Energy =            248.3131098588151531
    One-Electron Energy =               -5721.7202556911142892
    Two-Electron Energy =                1702.6454239330623750
    Total Energy =                      -3770.7617218992363632
 Dipole X            :       -142.9343240          150.1915585            7.2572345
 Dipole Y            :        -95.8153452          100.1277057            4.3123605
 Dipole Z            :         -0.0000000            0.0000000           -0.0000000
 Magnitude           :                                                    8.4417952
  Basis Set: (AUG-CC-PVTZ AUX)
    Blend: AUG-CC-PVTZ-RI + DEF2-QZVPP-RI
	 Reference Energy          =   -3770.7617218992359085 [Eh]
	 Singles Energy            =      -0.0000000000000000 [Eh]
	 Same-Spin Energy          =      -0.1468481665265533 [Eh]
	 Opposite-Spin Energy      =      -0.3367013333554164 [Eh]
	 Correlation Energy        =      -0.4835494998819697 [Eh]
	 Total Energy              =   -3771.2452713991178825 [Eh]

	 ================> DF-SCS-MP2 Energies <==================
	-----------------------------------------------------------
	 SCS Same-Spin Scale       =       0.3333333333333333 [-]
	 SCS Opposite-Spin Scale   =       1.2000000000000000 [-]
	 SCS Same-Spin Energy      =      -0.0489493888421844 [Eh]
	 SCS Opposite-Spin Energy  =      -0.4040416000264996 [Eh]
	 SCS Correlation Energy    =      -0.4529909888686841 [Eh]
	 SCS Total Energy          =   -3771.2147128881047138 [Eh]
	-----------------------------------------------------------

*** Psi4 exiting successfully. Buy a developer a beer!
