                               Psi4 1.9 release

  ==> Input File <==

--------------------------------------------------------------------------
MEMORY 60 GB

molecule dimer {
-1 1
Br         0.000000     0.000000     0.000000
Gh(K)      0.000000     2.788700     0.000000
Gh(K)      5.577400     0.000000     0.000000

units ang
no_reorient
no_com
symmetry c1
}

set {
basis        aug-cc-pVTZ
scf_type     df
}

energy("mp2")
--------------------------------------------------------------------------

    Molecular point group: c1

    Geometry (in Angstrom), charge = -1, multiplicity = 1:

       Center              X                  Y                   Z               Mass
    ------------   -----------------  -----------------  -----------------  -----------------
         BR           0.000000000000     0.000000000000     0.000000000000    78.918337600000
      Gh(K)           0.000000000000     2.788700000000     0.000000000000    38.963706486400
      Gh(K)           5.577400000000     0.000000000000     0.000000000000    38.963706486400

  Charge       = -1
  Multiplicity = 1
  Basis Set: AUG-CC-PVTZ
    Blend: AUG-CC-PVTZ
  Basis Set: (AUG-CC-PVTZ AUX)
    Blend: AUG-CC-PVTZ-JKFIT + DEF2-UNIVERSAL-JKFIT

    Orbital Energies [Eh]
    ---------------------

    Doubly Occupied:

       1A   -489.720805     2A    -64.860763     3A    -58.215251
       4A    -58.215251     5A    -58.215249     6A     -9.532948
       7A     -7.140294     8A     -7.140292     9A     -7.140285
      10A     -2.881970    11A     -2.881969    12A     -2.881966
      13A     -2.881964    14A     -2.881963    15A     -0.685999
      16A     -0.139341    17A     -0.139339    18A     -0.139338

  @DF-RHF Final Energy: -2572.53368165702750

   => Energetics <=

    Nuclear Repulsion Energy =              0.0000000000000000
    One-Electron Energy =               -3593.6773845778529903
    Two-Electron Energy =                1021.1437029208253762
    Total Energy =                      -2572.5336816570275005
 Dipole X            :          0.0000375            0.0000000            0.0000375
 Dipole Y            :          0.0006378            0.0000000            0.0006378
 Dipole Z            :          0.0000000            0.0000000            0.0000000
 Magnitude           :                                                    0.0006389
  Basis Set: (AUG-CC-PVTZ AUX)
    Blend: AUG-CC-PVTZ-RI + DEF2-QZVPP-RI
	 Reference Energy          =   -2572.5336816570275005 [Eh]
	 Singles Energy            =      -0.0000000000000000 [Eh]
	 Same-Spin Energy          =      -0.0876425216487627 [Eh]
	 Opposite-Spin Energy      =      -0.2030893835410833 [Eh]
	 Correlation Energy        =      -0.2907319051898459 [Eh]
	 Total Energy              =   -2572.8244135622171598 [Eh]

	 ================> DF-SCS-MP2 Energies <==================
	-----------------------------------------------------------
	 SCS Same-Spin Scale       =       0.3333333333333333 [-]
	 SCS Opposite-Spin Scale   =       1.2000000000000000 [-]
	 SCS Same-Spin Energy      =      -0.0292141738829209 [Eh]
	 SCS Opposite-Spin Energy  =      -0.2437072602493000 [Eh]
	 SCS Correlation Energy    =      -0.2729214341322208 [Eh]
	 SCS Total Energy          =   -2572.8066030911595590 [Eh]
	-----------------------------------------------------------

*** Psi4 exiting successfully. Buy a developer a beer!
