                               Psi4 1.9 release

  ==> Input File <==

--------------------------------------------------------------------------
MEMORY 60 GB

molecule dimer {
0 1
Br     0.000000     0.000000     0.000000
K      0.000000     2.788700     0.000000
--
1 1
K      3.067570     0.000000     0.000000

units ang
no_reorient
no_com
symmetry c1
}

set {
basis        aug-cc-pVTZ
scf_type     df
}

energy("mp2", bsse_type="cp")
--------------------------------------------------------------------------

                               Psi4 1.9 release
    Molecular point group: c1
  Charge       = 1
  Multiplicity = 1
  Basis Set: AUG-CC-PVTZ
    Blend: AUG-CC-PVTZ
  Basis Set: (AUG-CC-PVTZ AUX)
    Blend: AUG-CC-PVTZ-JKFIT + DEF2-UNIVERSAL-JKFIT
  @DF-RHF Final Energy:  -599.01750884580952
    Total Energy =                       -599.0175088458095161
 Dipole X            :       -104.3439911          110.1404762            5.7964851
 Dipole Y            :          0.0001476            0.0000000            0.0001476
 Dipole Z            :         -0.0000000            0.0000000           -0.0000000
 Magnitude           :                                                    5.7964852
  Basis Set: (AUG-CC-PVTZ AUX)
    Blend: AUG-CC-PVTZ-RI + DEF2-QZVPP-RI
	 Reference Energy          =    -599.0175088458095161 [Eh]
	 Singles Energy            =      -0.0000000000000000 [Eh]
	 Same-Spin Energy          =      -0.0286912093994591 [Eh]
	 Opposite-Spin Energy      =      -0.0671482359744406 [Eh]
	 Correlation Energy        =      -0.0958394453738997 [Eh]
	 Total Energy              =    -599.1133482911834562 [Eh]
	 SCS Total Energy          =    -599.1076504654453174 [Eh]
                               Psi4 1.9 release
    Molecular point group: c1
  Multiplicity = 1
  Basis Set: AUG-CC-PVTZ
    Blend: AUG-CC-PVTZ
  Basis Set: (AUG-CC-PVTZ AUX)
    Blend: AUG-CC-PVTZ-JKFIT + DEF2-UNIVERSAL-JKFIT
  @DF-RHF Final Energy: -3171.72021040157279
    Total Energy =                      -3171.7202104015723307
  Basis Set: (AUG-CC-PVTZ AUX)
	 Singles Energy            =      -0.0000000000000000 [Eh]
	 Same-Spin Energy          =      -0.1204258153957231 [Eh]
	 Opposite-Spin Energy      =      -0.2759849718833334 [Eh]
	 Correlation Energy        =      -0.3964107872790565 [Eh]
	 Total Energy              =   -3172.1166211888516955 [Eh]
	 SCS Total Energy          =   -3172.0915343062979446 [Eh]
                               Psi4 1.9 release
    Molecular point group: c1

    Geometry (in Bohr), charge = 1, multiplicity = 1:

       Center              X                  Y                   Z               Mass
    ------------   -----------------  -----------------  -----------------  -----------------
         BR           0.000000000000     0.000000000000     0.000000000000    78.918337600000
         K            0.000000000000     5.269879246064     0.000000000000    38.963706486400
         K            5.796867170671     0.000000000000     0.000000000000    38.963706486400

  Charge       = 1
  Multiplicity = 1
  Basis Set: AUG-CC-PVTZ
    Blend: AUG-CC-PVTZ
  Basis Set: (AUG-CC-PVTZ AUX)
    Blend: AUG-CC-PVTZ-JKFIT + DEF2-UNIVERSAL-JKFIT

    Orbital Energies [Eh]
    ---------------------

    Doubly Occupied:

       1A   -490.055701     2A   -133.685671     3A   -133.662802
       4A    -65.196600     5A    -58.551062     6A    -58.551012
       7A    -58.550953     8A    -14.642273     9A    -14.620550
      10A    -11.672227    11A    -11.672170    12A    -11.672077
      13A    -11.650324    14A    -11.650254    15A    -11.650249
      16A     -9.869692    17A     -7.477404    18A     -7.477133
      19A     -7.476904    20A     -3.219054    21A     -3.218881
      22A     -3.218832    23A     -3.218384    24A     -3.218345
      25A     -1.901125    26A     -1.883115    27A     -1.112037
      28A     -1.109748    29A     -1.109111    30A     -1.098225
      31A     -1.092484    32A     -1.091281    33A     -1.022035
      34A     -0.491065    35A     -0.489259    36A     -0.479931

  @DF-RHF Final Energy: -3770.77539669383077

   => Energetics <=

    Nuclear Repulsion Energy =            286.9857661933390318
    One-Electron Energy =               -5798.0063927490118658
    Two-Electron Energy =                1740.2452298618418354
    Total Energy =                      -3770.7753966938307713
 Dipole X            :       -105.2102764          110.1404762            4.9301999
 Dipole Y            :        -95.7667301          100.1277057            4.3609755
 Dipole Z            :          0.0000000            0.0000000            0.0000000
 Magnitude           :                                                    6.5821713
  Basis Set: (AUG-CC-PVTZ AUX)
    Blend: AUG-CC-PVTZ-RI + DEF2-QZVPP-RI
	 Reference Energy          =   -3770.7753966938307713 [Eh]
	 Singles Energy            =      -0.0000000000000000 [Eh]
	 Same-Spin Energy          =      -0.1508953424841274 [Eh]
	 Opposite-Spin Energy      =      -0.3449303369312043 [Eh]
	 Correlation Energy        =      -0.4958256794153317 [Eh]
	 Total Energy              =   -3771.2712223732460188 [Eh]

	 ================> DF-SCS-MP2 Energies <==================
	-----------------------------------------------------------
	 SCS Same-Spin Scale       =       0.3333333333333333 [-]
	 SCS Opposite-Spin Scale   =       1.2000000000000000 [-]
	 SCS Same-Spin Energy      =      -0.0502984474947091 [Eh]
	 SCS Opposite-Spin Energy  =      -0.4139164043174451 [Eh]
	 SCS Correlation Energy    =      -0.4642148518121543 [Eh]
	 SCS Total Energy          =   -3771.2396115456431289 [Eh]
	-----------------------------------------------------------

*** Psi4 exiting successfully. Buy a developer a beer!
