                               Psi4 1.9 release

  ==> Input File <==

--------------------------------------------------------------------------
MEMORY 60 GB

molecule dimer {
1 1
Gh(Br)     0.000000     0.000000     0.000000
K          0.000000     2.788700     0.000000
Gh(K)      3.625310     0.000000     0.000000

units ang
no_reorient
no_com
symmetry c1
}

set {
basis        aug-cc-pVTZ
scf_type     df
}

energy("mp2")
--------------------------------------------------------------------------

    Molecular point group: c1

    Geometry (in Angstrom), charge = 1, multiplicity = 1:

       Center              X                  Y                   Z               Mass
    ------------   -----------------  -----------------  -----------------  -----------------
      Gh(BR)          0.000000000000     0.000000000000     0.000000000000    78.918337600000
         K            0.000000000000     2.788700000000     0.000000000000    38.963706486400
      Gh(K)           3.625310000000     0.000000000000     0.000000000000    38.963706486400

  Charge       = 1
  Multiplicity = 1
  Basis Set: AUG-CC-PVTZ
    Blend: AUG-CC-PVTZ
  Basis Set: (AUG-CC-PVTZ AUX)
    Blend: AUG-CC-PVTZ-JKFIT + DEF2-UNIVERSAL-JKFIT

    Orbital Energies [Eh]
    ---------------------

    Doubly Occupied:

       1A   -133.753588     2A    -14.709070     3A    -11.739139
       4A    -11.739134     5A    -11.739132     6A     -1.964293
       7A     -1.170935     8A     -1.170895     9A     -1.170878

  @DF-RHF Final Energy:  -599.01750892807456

   => Energetics <=

    Nuclear Repulsion Energy =              0.0000000000000000
    One-Electron Energy =                -819.7208950333073290
    Two-Electron Energy =                 220.7033861052326813
    Total Energy =                       -599.0175089280746761
 Dipole X            :          0.0000766            0.0000000            0.0000766
 Dipole Y            :        -94.8583060          100.1277057            5.2693997
 Dipole Z            :         -0.0000000            0.0000000           -0.0000000
 Magnitude           :                                                    5.2693997
  Basis Set: (AUG-CC-PVTZ AUX)
    Blend: AUG-CC-PVTZ-RI + DEF2-QZVPP-RI
	 Reference Energy          =    -599.0175089280745624 [Eh]
	 Singles Energy            =      -0.0000000000000000 [Eh]
	 Same-Spin Energy          =      -0.0291877029973634 [Eh]
	 Opposite-Spin Energy      =      -0.0686173507990202 [Eh]
	 Correlation Energy        =      -0.0978050537963836 [Eh]
	 Total Energy              =    -599.1153139818709406 [Eh]

	 ================> DF-SCS-MP2 Energies <==================
	-----------------------------------------------------------
	 SCS Same-Spin Scale       =       0.3333333333333333 [-]
	 SCS Opposite-Spin Scale   =       1.2000000000000000 [-]
	 SCS Same-Spin Energy      =      -0.0097292343324545 [Eh]
	 SCS Opposite-Spin Energy  =      -0.0823408209588243 [Eh]
	 SCS Correlation Energy    =      -0.0920700552912787 [Eh]
	 SCS Total Energy          =    -599.1095789833658500 [Eh]
	-----------------------------------------------------------

*** Psi4 exiting successfully. Buy a developer a beer!
