                               Psi4 1.9 release

  ==> Input File <==

--------------------------------------------------------------------------
MEMORY 60 GB

molecule dimer {
-1 1
Br         0.000000     0.000000     0.000000
Gh(K)      0.000000     2.788700     0.000000
Gh(K)      3.904180     0.000000     0.000000

units ang
no_reorient
no_com
symmetry c1
}

set {
basis        aug-cc-pVTZ
scf_type     df
}

energy("mp2")
--------------------------------------------------------------------------

    Molecular point group: c1

    Geometry (in Angstrom), charge = -1, multiplicity = 1:

       Center              X                  Y                   Z               Mass
    ------------   -----------------  -----------------  -----------------  -----------------
         BR           0.000000000000     0.000000000000     0.000000000000    78.918337600000
      Gh(K)           0.000000000000     2.788700000000     0.000000000000    38.963706486400
      Gh(K)           3.904180000000     0.000000000000     0.000000000000    38.963706486400

  Charge       = -1
  Multiplicity = 1
  Basis Set: AUG-CC-PVTZ
    Blend: AUG-CC-PVTZ
  Basis Set: (AUG-CC-PVTZ AUX)
    Blend: AUG-CC-PVTZ-JKFIT + DEF2-UNIVERSAL-JKFIT

    Orbital Energies [Eh]
    ---------------------

    Doubly Occupied:

       1A   -489.720910     2A    -64.860838     3A    -58.215330
       4A    -58.215329     5A    -58.215328     6A     -9.532970
       7A     -7.140315     8A     -7.140310     9A     -7.140307
      10A     -2.881994    11A     -2.881991    12A     -2.881989
      13A     -2.881988    14A     -2.881987    15A     -0.685996
      16A     -0.139339    17A     -0.139337    18A     -0.139335

  @DF-RHF Final Energy: -2572.53368552633037

   => Energetics <=

    Nuclear Repulsion Energy =              0.0000000000000000
    One-Electron Energy =               -3593.6761799579808212
    Two-Electron Energy =                1021.1424944316504480
    Total Energy =                      -2572.5336855263303732
 Dipole X            :          0.0001777            0.0000000            0.0001777
 Dipole Y            :          0.0005310            0.0000000            0.0005310
 Dipole Z            :         -0.0000000            0.0000000           -0.0000000
 Magnitude           :                                                    0.0005599
  Basis Set: (AUG-CC-PVTZ AUX)
    Blend: AUG-CC-PVTZ-RI + DEF2-QZVPP-RI
	 Reference Energy          =   -2572.5336855263303732 [Eh]
	 Singles Energy            =      -0.0000000000000000 [Eh]
	 Same-Spin Energy          =      -0.0878672217996847 [Eh]
	 Opposite-Spin Energy      =      -0.2035808016412026 [Eh]
	 Correlation Energy        =      -0.2914480234408873 [Eh]
	 Total Energy              =   -2572.8251335497711807 [Eh]

	 ================> DF-SCS-MP2 Energies <==================
	-----------------------------------------------------------
	 SCS Same-Spin Scale       =       0.3333333333333333 [-]
	 SCS Opposite-Spin Scale   =       1.2000000000000000 [-]
	 SCS Same-Spin Energy      =      -0.0292890739332282 [Eh]
	 SCS Opposite-Spin Energy  =      -0.2442969619694431 [Eh]
	 SCS Correlation Energy    =      -0.2735860359026713 [Eh]
	 SCS Total Energy          =   -2572.8072715622329270 [Eh]
	-----------------------------------------------------------

*** Psi4 exiting successfully. Buy a developer a beer!
