                               Psi4 1.9 release

  ==> Input File <==

--------------------------------------------------------------------------
MEMORY 60 GB

molecule dimer {
1 1
Gh(Br)     0.000000     0.000000     0.000000
K          0.000000     2.788700     0.000000
Gh(K)      3.904180     0.000000     0.000000

units ang
no_reorient
no_com
symmetry c1
}

set {
basis        aug-cc-pVTZ
scf_type     df
}

energy("mp2")
--------------------------------------------------------------------------

    Molecular point group: c1

    Geometry (in Angstrom), charge = 1, multiplicity = 1:

       Center              X                  Y                   Z               Mass
    ------------   -----------------  -----------------  -----------------  -----------------
      Gh(BR)          0.000000000000     0.000000000000     0.000000000000    78.918337600000
         K            0.000000000000     2.788700000000     0.000000000000    38.963706486400
      Gh(K)           3.904180000000     0.000000000000     0.000000000000    38.963706486400

  Charge       = 1
  Multiplicity = 1
  Basis Set: AUG-CC-PVTZ
    Blend: AUG-CC-PVTZ
  Basis Set: (AUG-CC-PVTZ AUX)
    Blend: AUG-CC-PVTZ-JKFIT + DEF2-UNIVERSAL-JKFIT

    Orbital Energies [Eh]
    ---------------------

    Doubly Occupied:

       1A   -133.753620     2A    -14.709095     3A    -11.739164
       4A    -11.739159     5A    -11.739158     6A     -1.964304
       7A     -1.170943     8A     -1.170903     9A     -1.170888

  @DF-RHF Final Energy:  -599.01750875611970

   => Energetics <=

    Nuclear Repulsion Energy =              0.0000000000000000
    One-Electron Energy =                -819.7205553709526384
    Two-Electron Energy =                 220.7030466148329424
    Total Energy =                       -599.0175087561196960
 Dipole X            :          0.0000536            0.0000000            0.0000536
 Dipole Y            :        -94.8583131          100.1277057            5.2693925
 Dipole Z            :         -0.0000000            0.0000000           -0.0000000
 Magnitude           :                                                    5.2693925
  Basis Set: (AUG-CC-PVTZ AUX)
    Blend: AUG-CC-PVTZ-RI + DEF2-QZVPP-RI
	 Reference Energy          =    -599.0175087561196960 [Eh]
	 Singles Energy            =      -0.0000000000000000 [Eh]
	 Same-Spin Energy          =      -0.0290392370545026 [Eh]
	 Opposite-Spin Energy      =      -0.0681998875737984 [Eh]
	 Correlation Energy        =      -0.0972391246283010 [Eh]
	 Total Energy              =    -599.1147478807480411 [Eh]

	 ================> DF-SCS-MP2 Energies <==================
	-----------------------------------------------------------
	 SCS Same-Spin Scale       =       0.3333333333333333 [-]
	 SCS Opposite-Spin Scale   =       1.2000000000000000 [-]
	 SCS Same-Spin Energy      =      -0.0096797456848342 [Eh]
	 SCS Opposite-Spin Energy  =      -0.0818398650885581 [Eh]
	 SCS Correlation Energy    =      -0.0915196107733923 [Eh]
	 SCS Total Energy          =    -599.1090283668930851 [Eh]
	-----------------------------------------------------------

*** Psi4 exiting successfully. Buy a developer a beer!
