                               Psi4 1.9 release

  ==> Input File <==

--------------------------------------------------------------------------
MEMORY 60 GB

molecule dimer {
-1 1
Br         0.000000     0.000000     0.000000
Gh(K)      0.000000     2.788700     0.000000
Gh(K)      3.625310     0.000000     0.000000

units ang
no_reorient
no_com
symmetry c1
}

set {
basis        aug-cc-pVTZ
scf_type     df
}

energy("mp2")
--------------------------------------------------------------------------

    Molecular point group: c1

    Geometry (in Angstrom), charge = -1, multiplicity = 1:

       Center              X                  Y                   Z               Mass
    ------------   -----------------  -----------------  -----------------  -----------------
         BR           0.000000000000     0.000000000000     0.000000000000    78.918337600000
      Gh(K)           0.000000000000     2.788700000000     0.000000000000    38.963706486400
      Gh(K)           3.625310000000     0.000000000000     0.000000000000    38.963706486400

  Charge       = -1
  Multiplicity = 1
  Basis Set: AUG-CC-PVTZ
    Blend: AUG-CC-PVTZ
  Basis Set: (AUG-CC-PVTZ AUX)
    Blend: AUG-CC-PVTZ-JKFIT + DEF2-UNIVERSAL-JKFIT

    Orbital Energies [Eh]
    ---------------------

    Doubly Occupied:

       1A   -489.720945     2A    -64.860862     3A    -58.215355
       4A    -58.215354     5A    -58.215353     6A     -9.532977
       7A     -7.140322     8A     -7.140315     9A     -7.140314
      10A     -2.882001    11A     -2.881999    12A     -2.881997
      13A     -2.881995    14A     -2.881995    15A     -0.685996
      16A     -0.139339    17A     -0.139337    18A     -0.139335

  @DF-RHF Final Energy: -2572.53368641426732

   => Energetics <=

    Nuclear Repulsion Energy =              0.0000000000000000
    One-Electron Energy =               -3593.6757872992884586
    Two-Electron Energy =                1021.1421008850215912
    Total Energy =                      -2572.5336864142668674
 Dipole X            :          0.0001808            0.0000000            0.0001808
 Dipole Y            :          0.0005190            0.0000000            0.0005190
 Dipole Z            :         -0.0000000            0.0000000           -0.0000000
 Magnitude           :                                                    0.0005496
  Basis Set: (AUG-CC-PVTZ AUX)
    Blend: AUG-CC-PVTZ-RI + DEF2-QZVPP-RI
	 Reference Energy          =   -2572.5336864142673221 [Eh]
	 Singles Energy            =      -0.0000000000000000 [Eh]
	 Same-Spin Energy          =      -0.0879372550424715 [Eh]
	 Opposite-Spin Energy      =      -0.2037336431350104 [Eh]
	 Correlation Energy        =      -0.2916708981774819 [Eh]
	 Total Energy              =   -2572.8253573124447939 [Eh]

	 ================> DF-SCS-MP2 Energies <==================
	-----------------------------------------------------------
	 SCS Same-Spin Scale       =       0.3333333333333333 [-]
	 SCS Opposite-Spin Scale   =       1.2000000000000000 [-]
	 SCS Same-Spin Energy      =      -0.0293124183474905 [Eh]
	 SCS Opposite-Spin Energy  =      -0.2444803717620125 [Eh]
	 SCS Correlation Energy    =      -0.2737927901095030 [Eh]
	 SCS Total Energy          =   -2572.8074792043767047 [Eh]
	-----------------------------------------------------------

*** Psi4 exiting successfully. Buy a developer a beer!
