                               Psi4 1.9 release

  ==> Input File <==

--------------------------------------------------------------------------
MEMORY 60 GB

molecule dimer {
1 1
Gh(Br)     0.000000     0.000000     0.000000
K          0.000000     2.788700     0.000000
Gh(K)      5.577400     0.000000     0.000000

units ang
no_reorient
no_com
symmetry c1
}

set {
basis        aug-cc-pVTZ
scf_type     df
}

energy("mp2")
--------------------------------------------------------------------------

    Molecular point group: c1

    Geometry (in Angstrom), charge = 1, multiplicity = 1:

       Center              X                  Y                   Z               Mass
    ------------   -----------------  -----------------  -----------------  -----------------
      Gh(BR)          0.000000000000     0.000000000000     0.000000000000    78.918337600000
         K            0.000000000000     2.788700000000     0.000000000000    38.963706486400
      Gh(K)           5.577400000000     0.000000000000     0.000000000000    38.963706486400

  Charge       = 1
  Multiplicity = 1
  Basis Set: AUG-CC-PVTZ
    Blend: AUG-CC-PVTZ
  Basis Set: (AUG-CC-PVTZ AUX)
    Blend: AUG-CC-PVTZ-JKFIT + DEF2-UNIVERSAL-JKFIT

    Orbital Energies [Eh]
    ---------------------

    Doubly Occupied:

       1A   -133.753727     2A    -14.709179     3A    -11.739248
       4A    -11.739243     5A    -11.739242     6A     -1.964340
       7A     -1.170970     8A     -1.170928     9A     -1.170919

  @DF-RHF Final Energy:  -599.01750825484544

   => Energetics <=

    Nuclear Repulsion Energy =              0.0000000000000000
    One-Electron Energy =                -819.7194244587643652
    Two-Electron Energy =                 220.7019162039189553
    Total Energy =                       -599.0175082548454384
 Dipole X            :          0.0000019            0.0000000            0.0000019
 Dipole Y            :        -94.8583294          100.1277057            5.2693763
 Dipole Z            :         -0.0000000            0.0000000           -0.0000000
 Magnitude           :                                                    5.2693763
  Basis Set: (AUG-CC-PVTZ AUX)
    Blend: AUG-CC-PVTZ-RI + DEF2-QZVPP-RI
	 Reference Energy          =    -599.0175082548454384 [Eh]
	 Singles Energy            =      -0.0000000000000000 [Eh]
	 Same-Spin Energy          =      -0.0282824957409904 [Eh]
	 Opposite-Spin Energy      =      -0.0662064542241137 [Eh]
	 Correlation Energy        =      -0.0944889499651041 [Eh]
	 Total Energy              =    -599.1119972048105637 [Eh]

	 ================> DF-SCS-MP2 Energies <==================
	-----------------------------------------------------------
	 SCS Same-Spin Scale       =       0.3333333333333333 [-]
	 SCS Opposite-Spin Scale   =       1.2000000000000000 [-]
	 SCS Same-Spin Energy      =      -0.0094274985803301 [Eh]
	 SCS Opposite-Spin Energy  =      -0.0794477450689365 [Eh]
	 SCS Correlation Energy    =      -0.0888752436492666 [Eh]
	 SCS Total Energy          =    -599.1063834984946652 [Eh]
	-----------------------------------------------------------

*** Psi4 exiting successfully. Buy a developer a beer!
