                               Psi4 1.9 release

  ==> Input File <==

--------------------------------------------------------------------------
MEMORY 60 GB

molecule dimer {
-1 1
Br     0.000000     0.000000     0.000000
--
1 1
K      0.000000     2.788700     0.000000
--
1 1
K      3.067570     0.000000     0.000000

units ang
no_reorient
no_com
symmetry c1
}

set {
basis        aug-cc-pVTZ
scf_type     df
}

energy("mp2", bsse_type="cp")
--------------------------------------------------------------------------

                               Psi4 1.9 release
    Molecular point group: c1
  Charge       = -1
  Multiplicity = 1
  Basis Set: AUG-CC-PVTZ
    Blend: AUG-CC-PVTZ
  Basis Set: (AUG-CC-PVTZ AUX)
    Blend: AUG-CC-PVTZ-JKFIT + DEF2-UNIVERSAL-JKFIT
  @DF-RHF Final Energy: -2572.53368790958712
    Total Energy =                      -2572.5336879095871154
 Dipole X            :          0.0003276            0.0000000            0.0003276
 Dipole Y            :          0.0004783            0.0000000            0.0004783
 Dipole Z            :         -0.0000000            0.0000000           -0.0000000
 Magnitude           :                                                    0.0005797
  Basis Set: (AUG-CC-PVTZ AUX)
    Blend: AUG-CC-PVTZ-RI + DEF2-QZVPP-RI
	 Reference Energy          =   -2572.5336879095871154 [Eh]
	 Singles Energy            =      -0.0000000000000000 [Eh]
	 Same-Spin Energy          =      -0.0880607353033570 [Eh]
	 Opposite-Spin Energy      =      -0.2040134286180205 [Eh]
	 Correlation Energy        =      -0.2920741639213775 [Eh]
	 Total Energy              =   -2572.8257620735084856 [Eh]
	 SCS Total Energy          =   -2572.8078576023631285 [Eh]
                               Psi4 1.9 release
    Molecular point group: c1
  Basis Set: AUG-CC-PVTZ
    Blend: AUG-CC-PVTZ
  Basis Set: (AUG-CC-PVTZ AUX)
    Blend: AUG-CC-PVTZ-JKFIT + DEF2-UNIVERSAL-JKFIT
  @DF-RHF Final Energy:  -599.01750933381061
    Total Energy =                       -599.0175093338104944
  Basis Set: (AUG-CC-PVTZ AUX)
                               Psi4 1.9 release
  @DF-RHF Final Energy: -1197.90874039742562
    Total Energy =                      -1197.9087403974258450
                               Psi4 1.9 release
  @DF-RHF Final Energy: -3171.72009242247213
    Total Energy =                      -3171.7200924224721348
                               Psi4 1.9 release
  @DF-RHF Final Energy: -3171.72021040157006
    Total Energy =                      -3171.7202104015705117
                               Psi4 1.9 release
  Multiplicity = 1
  @DF-RHF Final Energy:  -599.01750884580986
    Total Energy =                       -599.0175088458097434
	 Singles Energy            =      -0.0000000000000000 [Eh]
	 Same-Spin Energy          =      -0.0286912093988301 [Eh]
	 Opposite-Spin Energy      =      -0.0671482359732212 [Eh]
	 Correlation Energy        =      -0.0958394453720514 [Eh]
	 Total Energy              =    -599.1133482911818646 [Eh]
	 SCS Total Energy          =    -599.1076504654439532 [Eh]
                               Psi4 1.9 release
    Molecular point group: c1

    Geometry (in Bohr), charge = 1, multiplicity = 1:

       Center              X                  Y                   Z               Mass
    ------------   -----------------  -----------------  -----------------  -----------------
         BR           0.000000000000     0.000000000000     0.000000000000    78.918337600000
         K            0.000000000000     5.269879246064     0.000000000000    38.963706486400
         K            5.796867170671     0.000000000000     0.000000000000    38.963706486400

  Charge       = 1
  Multiplicity = 1
  Basis Set: AUG-CC-PVTZ
    Blend: AUG-CC-PVTZ
  Basis Set: (AUG-CC-PVTZ AUX)
    Blend: AUG-CC-PVTZ-JKFIT + DEF2-UNIVERSAL-JKFIT

    Orbital Energies [Eh]
    ---------------------

    Doubly Occupied:

       1A   -490.055701     2A   -133.685671     3A   -133.662802
       4A    -65.196600     5A    -58.551062     6A    -58.551012
       7A    -58.550953     8A    -14.642273     9A    -14.620550
      10A    -11.672227    11A    -11.672170    12A    -11.672077
      13A    -11.650324    14A    -11.650254    15A    -11.650249
      16A     -9.869692    17A     -7.477404    18A     -7.477133
      19A     -7.476904    20A     -3.219054    21A     -3.218881
      22A     -3.218832    23A     -3.218384    24A     -3.218345
      25A     -1.901125    26A     -1.883115    27A     -1.112037
      28A     -1.109748    29A     -1.109111    30A     -1.098225
      31A     -1.092484    32A     -1.091281    33A     -1.022035
      34A     -0.491065    35A     -0.489259    36A     -0.479931

  @DF-RHF Final Energy: -3770.77539669382759

   => Energetics <=

    Nuclear Repulsion Energy =            286.9857661933390318
    One-Electron Energy =               -5798.0063927489973139
    Two-Electron Energy =                1740.2452298618300119
    Total Energy =                      -3770.7753966938280428
 Dipole X            :       -105.2102764          110.1404762            4.9301999
 Dipole Y            :        -95.7667301          100.1277057            4.3609755
 Dipole Z            :          0.0000000            0.0000000            0.0000000
 Magnitude           :                                                    6.5821713
  Basis Set: (AUG-CC-PVTZ AUX)
    Blend: AUG-CC-PVTZ-RI + DEF2-QZVPP-RI
	 Reference Energy          =   -3770.7753966938275880 [Eh]
	 Singles Energy            =      -0.0000000000000000 [Eh]
	 Same-Spin Energy          =      -0.1508953424842771 [Eh]
	 Opposite-Spin Energy      =      -0.3449303369315542 [Eh]
	 Correlation Energy        =      -0.4958256794158313 [Eh]
	 Total Energy              =   -3771.2712223732432903 [Eh]

	 ================> DF-SCS-MP2 Energies <==================
	-----------------------------------------------------------
	 SCS Same-Spin Scale       =       0.3333333333333333 [-]
	 SCS Opposite-Spin Scale   =       1.2000000000000000 [-]
	 SCS Same-Spin Energy      =      -0.0502984474947590 [Eh]
	 SCS Opposite-Spin Energy  =      -0.4139164043178651 [Eh]
	 SCS Correlation Energy    =      -0.4642148518126241 [Eh]
	 SCS Total Energy          =   -3771.2396115456404004 [Eh]
	-----------------------------------------------------------

*** Psi4 exiting successfully. Buy a developer a beer!
