                               Psi4 1.9 release

  ==> Input File <==

--------------------------------------------------------------------------
MEMORY 60 GB

molecule dimer {
0 1
Br     0.000000     0.000000     0.000000
K      0.000000     2.788700     0.000000
--
1 1
K      4.183050     0.000000     0.000000

units ang
no_reorient
no_com
symmetry c1
}

set {
basis        aug-cc-pVTZ
scf_type     df
}

energy("mp2", bsse_type="cp")
--------------------------------------------------------------------------

                               Psi4 1.9 release
    Molecular point group: c1
  Charge       = 1
  Multiplicity = 1
  Basis Set: AUG-CC-PVTZ
    Blend: AUG-CC-PVTZ
  Basis Set: (AUG-CC-PVTZ AUX)
    Blend: AUG-CC-PVTZ-JKFIT + DEF2-UNIVERSAL-JKFIT
  @DF-RHF Final Energy:  -599.01750751069051
    Total Energy =                       -599.0175075106905069
 Dipole X            :       -142.2870372          150.1915585            7.9045214
 Dipole Y            :          0.0000456            0.0000000            0.0000456
 Dipole Z            :         -0.0000000            0.0000000           -0.0000000
 Magnitude           :                                                    7.9045214
  Basis Set: (AUG-CC-PVTZ AUX)
    Blend: AUG-CC-PVTZ-RI + DEF2-QZVPP-RI
	 Reference Energy          =    -599.0175075106905069 [Eh]
	 Singles Energy            =      -0.0000000000000000 [Eh]
	 Same-Spin Energy          =      -0.0268853606442887 [Eh]
	 Opposite-Spin Energy      =      -0.0622820009557922 [Eh]
	 Correlation Energy        =      -0.0891673616000809 [Eh]
	 Total Energy              =    -599.1066748722905686 [Eh]
	 SCS Total Energy          =    -599.1012076987188948 [Eh]
                               Psi4 1.9 release
    Molecular point group: c1
  Multiplicity = 1
  Basis Set: AUG-CC-PVTZ
    Blend: AUG-CC-PVTZ
  Basis Set: (AUG-CC-PVTZ AUX)
    Blend: AUG-CC-PVTZ-JKFIT + DEF2-UNIVERSAL-JKFIT
  @DF-RHF Final Energy: -3171.72017490358985
    Total Energy =                      -3171.7201749035898501
  Basis Set: (AUG-CC-PVTZ AUX)
	 Singles Energy            =      -0.0000000000000000 [Eh]
	 Same-Spin Energy          =      -0.1195643309314508 [Eh]
	 Opposite-Spin Energy      =      -0.2737547578424827 [Eh]
	 Correlation Energy        =      -0.3933190887739336 [Eh]
	 Total Energy              =   -3172.1134939923636011 [Eh]
	 SCS Total Energy          =   -3172.0885353899780057 [Eh]
                               Psi4 1.9 release
    Molecular point group: c1

    Geometry (in Bohr), charge = 1, multiplicity = 1:

       Center              X                  Y                   Z               Mass
    ------------   -----------------  -----------------  -----------------  -----------------
         BR           0.000000000000     0.000000000000     0.000000000000    78.918337600000
         K            0.000000000000     5.269879246064     0.000000000000    38.963706486400
         K            7.904818869096     0.000000000000     0.000000000000    38.963706486400

  Charge       = 1
  Multiplicity = 1
  Basis Set: AUG-CC-PVTZ
    Blend: AUG-CC-PVTZ
  Basis Set: (AUG-CC-PVTZ AUX)
    Blend: AUG-CC-PVTZ-JKFIT + DEF2-UNIVERSAL-JKFIT

    Orbital Energies [Eh]
    ---------------------

    Doubly Occupied:

       1A   -490.021552     2A   -133.722729     3A   -133.639148
       4A    -65.162139     5A    -58.516667     6A    -58.516541
       7A    -58.516486     8A    -14.678279     9A    -14.596942
      10A    -11.708361    11A    -11.708340    12A    -11.708269
      13A    -11.626686    14A    -11.626639    15A    -11.626625
      16A     -9.834949    17A     -7.442682    18A     -7.442289
      19A     -7.442057    20A     -3.184459    21A     -3.184209
      22A     -3.184167    23A     -3.183458    24A     -3.183412
      25A     -1.933755    26A     -1.859716    27A     -1.141406
      28A     -1.140890    29A     -1.138890    30A     -1.075498
      31A     -1.069143    32A     -1.068257    33A     -0.986876
      34A     -0.453026    35A     -0.447238    36A     -0.442925

  @DF-RHF Final Energy: -3770.76172189923773

   => Energetics <=

    Nuclear Repulsion Energy =            248.3131098588151531
    One-Electron Energy =               -5721.7202556889778862
    Two-Electron Energy =                1702.6454239309243803
    Total Energy =                      -3770.7617218992381822
 Dipole X            :       -142.9343240          150.1915585            7.2572345
 Dipole Y            :        -95.8153452          100.1277057            4.3123605
 Dipole Z            :         -0.0000000            0.0000000           -0.0000000
 Magnitude           :                                                    8.4417952
  Basis Set: (AUG-CC-PVTZ AUX)
    Blend: AUG-CC-PVTZ-RI + DEF2-QZVPP-RI
	 Reference Energy          =   -3770.7617218992377275 [Eh]
	 Singles Energy            =      -0.0000000000000000 [Eh]
	 Same-Spin Energy          =      -0.1468481665263302 [Eh]
	 Opposite-Spin Energy      =      -0.3367013333549967 [Eh]
	 Correlation Energy        =      -0.4835494998813269 [Eh]
	 Total Energy              =   -3771.2452713991192468 [Eh]

	 ================> DF-SCS-MP2 Energies <==================
	-----------------------------------------------------------
	 SCS Same-Spin Scale       =       0.3333333333333333 [-]
	 SCS Opposite-Spin Scale   =       1.2000000000000000 [-]
	 SCS Same-Spin Energy      =      -0.0489493888421101 [Eh]
	 SCS Opposite-Spin Energy  =      -0.4040416000259961 [Eh]
	 SCS Correlation Energy    =      -0.4529909888681062 [Eh]
	 SCS Total Energy          =   -3771.2147128881056233 [Eh]
	-----------------------------------------------------------

*** Psi4 exiting successfully. Buy a developer a beer!
