                               Psi4 1.9 release

  ==> Input File <==

--------------------------------------------------------------------------
MEMORY 60 GB

molecule dimer {
1 1
Gh(Br)     0.000000     0.000000     0.000000
Gh(K)      0.000000     2.788700     0.000000
K          5.577400     0.000000     0.000000

units ang
no_reorient
no_com
symmetry c1
}

set {
basis        aug-cc-pVTZ
scf_type     df
}

energy("mp2")
--------------------------------------------------------------------------

    Molecular point group: c1

    Geometry (in Angstrom), charge = 1, multiplicity = 1:

       Center              X                  Y                   Z               Mass
    ------------   -----------------  -----------------  -----------------  -----------------
      Gh(BR)          0.000000000000     0.000000000000     0.000000000000    78.918337600000
      Gh(K)           0.000000000000     2.788700000000     0.000000000000    38.963706486400
         K            5.577400000000     0.000000000000     0.000000000000    38.963706486400

  Charge       = 1
  Multiplicity = 1
  Basis Set: AUG-CC-PVTZ
    Blend: AUG-CC-PVTZ
  Basis Set: (AUG-CC-PVTZ AUX)
    Blend: AUG-CC-PVTZ-JKFIT + DEF2-UNIVERSAL-JKFIT

    Orbital Energies [Eh]
    ---------------------

    Doubly Occupied:

       1A   -133.753906     2A    -14.709330     3A    -11.739393
       4A    -11.739391     5A    -11.739391     6A     -1.964424
       7A     -1.171004     8A     -1.170988     9A     -1.170988

  @DF-RHF Final Energy:  -599.01750642011200

   => Energetics <=

    Nuclear Repulsion Energy =              0.0000000000000000
    One-Electron Energy =                -819.7173873510298563
    Two-Electron Energy =                 220.6998809309179137
    Total Energy =                       -599.0175064201118857
 Dipole X            :       -189.7156962          200.2554114           10.5397152
 Dipole Y            :          0.0000194            0.0000000            0.0000194
 Dipole Z            :         -0.0000000            0.0000000           -0.0000000
 Magnitude           :                                                   10.5397152
  Basis Set: (AUG-CC-PVTZ AUX)
    Blend: AUG-CC-PVTZ-RI + DEF2-QZVPP-RI
	 Reference Energy          =    -599.0175064201119994 [Eh]
	 Singles Energy            =      -0.0000000000000000 [Eh]
	 Same-Spin Energy          =      -0.0259201675947246 [Eh]
	 Opposite-Spin Energy      =      -0.0595923523369713 [Eh]
	 Correlation Energy        =      -0.0855125199316960 [Eh]
	 Total Energy              =    -599.1030189400437393 [Eh]

	 ================> DF-SCS-MP2 Energies <==================
	-----------------------------------------------------------
	 SCS Same-Spin Scale       =       0.3333333333333333 [-]
	 SCS Opposite-Spin Scale   =       1.2000000000000000 [-]
	 SCS Same-Spin Energy      =      -0.0086400558649082 [Eh]
	 SCS Opposite-Spin Energy  =      -0.0715108228043656 [Eh]
	 SCS Correlation Energy    =      -0.0801508786692738 [Eh]
	 SCS Total Energy          =    -599.0976572987813142 [Eh]
	-----------------------------------------------------------

*** Psi4 exiting successfully. Buy a developer a beer!
