                               Psi4 1.9 release

  ==> Input File <==

--------------------------------------------------------------------------
MEMORY 60 GB

molecule dimer {
-1 1
Br         0.000000     0.000000     0.000000
Gh(K)      0.000000     2.788700     0.000000
Gh(K)      2.788700     0.000000     0.000000

units ang
no_reorient
no_com
symmetry c1
}

set {
basis        aug-cc-pVTZ
scf_type     df
}

energy("mp2")
--------------------------------------------------------------------------

    Molecular point group: c1

    Geometry (in Angstrom), charge = -1, multiplicity = 1:

       Center              X                  Y                   Z               Mass
    ------------   -----------------  -----------------  -----------------  -----------------
         BR           0.000000000000     0.000000000000     0.000000000000    78.918337600000
      Gh(K)           0.000000000000     2.788700000000     0.000000000000    38.963706486400
      Gh(K)           2.788700000000     0.000000000000     0.000000000000    38.963706486400

  Charge       = -1
  Multiplicity = 1
  Basis Set: AUG-CC-PVTZ
    Blend: AUG-CC-PVTZ
  Basis Set: (AUG-CC-PVTZ AUX)
    Blend: AUG-CC-PVTZ-JKFIT + DEF2-UNIVERSAL-JKFIT

    Orbital Energies [Eh]
    ---------------------

    Doubly Occupied:

       1A   -489.721003     2A    -64.860903     3A    -58.215399
       4A    -58.215398     5A    -58.215397     6A     -9.532988
       7A     -7.140334     8A     -7.140327     9A     -7.140327
      10A     -2.882014    11A     -2.882010    12A     -2.882010
      13A     -2.882009    14A     -2.882007    15A     -0.685994
      16A     -0.139337    17A     -0.139336    18A     -0.139334

  @DF-RHF Final Energy: -2572.53368892058688

   => Energetics <=

    Nuclear Repulsion Energy =              0.0000000000000000
    One-Electron Energy =               -3593.6751208075379509
    Two-Electron Energy =                1021.1414318869510680
    Total Energy =                      -2572.5336889205868829
 Dipole X            :          0.0004234            0.0000000            0.0004234
 Dipole Y            :          0.0004234            0.0000000            0.0004234
 Dipole Z            :          0.0000000            0.0000000            0.0000000
 Magnitude           :                                                    0.0005987
  Basis Set: (AUG-CC-PVTZ AUX)
    Blend: AUG-CC-PVTZ-RI + DEF2-QZVPP-RI
	 Reference Energy          =   -2572.5336889205868829 [Eh]
	 Singles Energy            =      -0.0000000000000000 [Eh]
	 Same-Spin Energy          =      -0.0880960604048924 [Eh]
	 Opposite-Spin Energy      =      -0.2041163611015925 [Eh]
	 Correlation Energy        =      -0.2922124215064849 [Eh]
	 Total Energy              =   -2572.8259013420934025 [Eh]

	 ================> DF-SCS-MP2 Energies <==================
	-----------------------------------------------------------
	 SCS Same-Spin Scale       =       0.3333333333333333 [-]
	 SCS Opposite-Spin Scale   =       1.2000000000000000 [-]
	 SCS Same-Spin Energy      =      -0.0293653534682975 [Eh]
	 SCS Opposite-Spin Energy  =      -0.2449396333219110 [Eh]
	 SCS Correlation Energy    =      -0.2743049867902084 [Eh]
	 SCS Total Energy          =   -2572.8079939073772948 [Eh]
	-----------------------------------------------------------

*** Psi4 exiting successfully. Buy a developer a beer!
