                               Psi4 1.9 release

  ==> Input File <==

--------------------------------------------------------------------------
MEMORY 60 GB

molecule dimer {
0 1
Br     0.000000     0.000000     0.000000
K      0.000000     2.788700     0.000000
--
1 1
K      5.577400     0.000000     0.000000

units ang
no_reorient
no_com
symmetry c1
}

set {
basis        aug-cc-pVTZ
scf_type     df
}

energy("mp2", bsse_type="cp")
--------------------------------------------------------------------------

                               Psi4 1.9 release
    Molecular point group: c1
  Charge       = 1
  Multiplicity = 1
  Basis Set: AUG-CC-PVTZ
    Blend: AUG-CC-PVTZ
  Basis Set: (AUG-CC-PVTZ AUX)
    Blend: AUG-CC-PVTZ-JKFIT + DEF2-UNIVERSAL-JKFIT
  @DF-RHF Final Energy:  -599.01750642011200
    Total Energy =                       -599.0175064201121131
 Dipole X            :       -189.7156962          200.2554114           10.5397152
 Dipole Y            :          0.0000194            0.0000000            0.0000194
 Dipole Z            :          0.0000000            0.0000000            0.0000000
 Magnitude           :                                                   10.5397152
  Basis Set: (AUG-CC-PVTZ AUX)
    Blend: AUG-CC-PVTZ-RI + DEF2-QZVPP-RI
	 Reference Energy          =    -599.0175064201119994 [Eh]
	 Singles Energy            =      -0.0000000000000000 [Eh]
	 Same-Spin Energy          =      -0.0259201675943904 [Eh]
	 Opposite-Spin Energy      =      -0.0595923523364069 [Eh]
	 Correlation Energy        =      -0.0855125199307973 [Eh]
	 Total Energy              =    -599.1030189400428299 [Eh]
	 SCS Total Energy          =    -599.0976572987805184 [Eh]
                               Psi4 1.9 release
    Molecular point group: c1
  Multiplicity = 1
  Basis Set: AUG-CC-PVTZ
    Blend: AUG-CC-PVTZ
  Basis Set: (AUG-CC-PVTZ AUX)
    Blend: AUG-CC-PVTZ-JKFIT + DEF2-UNIVERSAL-JKFIT
  @DF-RHF Final Energy: -3171.72015531157058
    Total Energy =                      -3171.7201553115701245
  Basis Set: (AUG-CC-PVTZ AUX)
	 Singles Energy            =      -0.0000000000000000 [Eh]
	 Same-Spin Energy          =      -0.1187659781238573 [Eh]
	 Opposite-Spin Energy      =      -0.2717787743514937 [Eh]
	 Correlation Energy        =      -0.3905447524753510 [Eh]
	 Total Energy              =   -3172.1107000640458864 [Eh]
	 SCS Total Energy          =   -3172.0858785001669276 [Eh]
                               Psi4 1.9 release
    Molecular point group: c1

    Geometry (in Bohr), charge = 1, multiplicity = 1:

       Center              X                  Y                   Z               Mass
    ------------   -----------------  -----------------  -----------------  -----------------
         BR           0.000000000000     0.000000000000     0.000000000000    78.918337600000
         K            0.000000000000     5.269879246064     0.000000000000    38.963706486400
         K           10.539758492128     0.000000000000     0.000000000000    38.963706486400

  Charge       = 1
  Multiplicity = 1
  Basis Set: AUG-CC-PVTZ
    Blend: AUG-CC-PVTZ
  Basis Set: (AUG-CC-PVTZ AUX)
    Blend: AUG-CC-PVTZ-JKFIT + DEF2-UNIVERSAL-JKFIT

    Orbital Energies [Eh]
    ---------------------

    Doubly Occupied:

       1A   -489.988449     2A   -133.741238     3A   -133.617181
       4A    -65.129093     5A    -58.483579     6A    -58.483518
       7A    -58.483462     8A    -14.696664     9A    -14.574985
      10A    -11.726738    11A    -11.726729    12A    -11.726707
      13A    -11.604707    14A    -11.604679    15A    -11.604659
      16A     -9.801966    17A     -7.409532    18A     -7.409410
      19A     -7.409205    20A     -3.151222    21A     -3.151104
      22A     -3.151069    23A     -3.150751    24A     -3.150708
      25A     -1.951765    26A     -1.837864    27A     -1.158698
      28A     -1.158475    29A     -1.157835    30A     -1.052473
      31A     -1.047222    32A     -1.046662    33A     -0.955306
      34A     -0.421546    35A     -0.412880    36A     -0.411289

  @DF-RHF Final Energy: -3770.74843811346545

   => Energetics <=

    Nuclear Repulsion Energy =            219.9185320690280037
    One-Electron Energy =               -5666.1552010813666129
    Two-Electron Energy =                1675.4882308988737805
    Total Energy =                      -3770.7484381134654541
 Dipole X            :       -190.0855091          200.2554114           10.1699022
 Dipole Y            :        -95.8384956          100.1277057            4.2892101
 Dipole Z            :         -0.0000000            0.0000000           -0.0000000
 Magnitude           :                                                   11.0374016
  Basis Set: (AUG-CC-PVTZ AUX)
    Blend: AUG-CC-PVTZ-RI + DEF2-QZVPP-RI
	 Reference Energy          =   -3770.7484381134654541 [Eh]
	 Singles Energy            =      -0.0000000000000000 [Eh]
	 Same-Spin Energy          =      -0.1447637250022092 [Eh]
	 Opposite-Spin Energy      =      -0.3315574438219083 [Eh]
	 Correlation Energy        =      -0.4763211688241175 [Eh]
	 Total Energy              =   -3771.2247592822895967 [Eh]

	 ================> DF-SCS-MP2 Energies <==================
	-----------------------------------------------------------
	 SCS Same-Spin Scale       =       0.3333333333333333 [-]
	 SCS Opposite-Spin Scale   =       1.2000000000000000 [-]
	 SCS Same-Spin Energy      =      -0.0482545750007364 [Eh]
	 SCS Opposite-Spin Energy  =      -0.3978689325862900 [Eh]
	 SCS Correlation Energy    =      -0.4461235075870263 [Eh]
	 SCS Total Energy          =   -3771.1945616210523440 [Eh]
	-----------------------------------------------------------

*** Psi4 exiting successfully. Buy a developer a beer!
