                               Psi4 1.9 release

  ==> Input File <==

--------------------------------------------------------------------------
MEMORY 60 GB

molecule dimer {
1 1
Gh(Br)     0.000000     0.000000     0.000000
Gh(K)      0.000000     2.788700     0.000000
K          2.788700     0.000000     0.000000

units ang
no_reorient
no_com
symmetry c1
}

set {
basis        aug-cc-pVTZ
scf_type     df
}

energy("mp2")
--------------------------------------------------------------------------

    Molecular point group: c1

    Geometry (in Angstrom), charge = 1, multiplicity = 1:

       Center              X                  Y                   Z               Mass
    ------------   -----------------  -----------------  -----------------  -----------------
      Gh(BR)          0.000000000000     0.000000000000     0.000000000000    78.918337600000
      Gh(K)           0.000000000000     2.788700000000     0.000000000000    38.963706486400
         K            2.788700000000     0.000000000000     0.000000000000    38.963706486400

  Charge       = 1
  Multiplicity = 1
  Basis Set: AUG-CC-PVTZ
    Blend: AUG-CC-PVTZ
  Basis Set: (AUG-CC-PVTZ AUX)
    Blend: AUG-CC-PVTZ-JKFIT + DEF2-UNIVERSAL-JKFIT

    Orbital Energies [Eh]
    ---------------------

    Doubly Occupied:

       1A   -133.753484     2A    -14.708990     3A    -11.739058
       4A    -11.739053     5A    -11.739050     6A     -1.964256
       7A     -1.170910     8A     -1.170866     9A     -1.170847

  @DF-RHF Final Energy:  -599.01750953006183

   => Energetics <=

    Nuclear Repulsion Energy =              0.0000000000000000
    One-Electron Energy =                -819.7219919525183514
    Two-Electron Energy =                 220.7044824224565787
    Total Energy =                       -599.0175095300617159
 Dipole X            :        -94.8582691          100.1277057            5.2694366
 Dipole Y            :          0.0001156            0.0000000            0.0001156
 Dipole Z            :          0.0000000            0.0000000            0.0000000
 Magnitude           :                                                    5.2694366
  Basis Set: (AUG-CC-PVTZ AUX)
    Blend: AUG-CC-PVTZ-RI + DEF2-QZVPP-RI
	 Reference Energy          =    -599.0175095300618295 [Eh]
	 Singles Energy            =      -0.0000000000000000 [Eh]
	 Same-Spin Energy          =      -0.0295746135720834 [Eh]
	 Opposite-Spin Energy      =      -0.0697501585546253 [Eh]
	 Correlation Energy        =      -0.0993247721267087 [Eh]
	 Total Energy              =    -599.1168343021885221 [Eh]

	 ================> DF-SCS-MP2 Energies <==================
	-----------------------------------------------------------
	 SCS Same-Spin Scale       =       0.3333333333333333 [-]
	 SCS Opposite-Spin Scale   =       1.2000000000000000 [-]
	 SCS Same-Spin Energy      =      -0.0098582045240278 [Eh]
	 SCS Opposite-Spin Energy  =      -0.0837001902655504 [Eh]
	 SCS Correlation Energy    =      -0.0935583947895782 [Eh]
	 SCS Total Energy          =    -599.1110679248514543 [Eh]
	-----------------------------------------------------------

*** Psi4 exiting successfully. Buy a developer a beer!
