                               Psi4 1.9 release

  ==> Input File <==

--------------------------------------------------------------------------
MEMORY 60 GB

molecule dimer {
-1 1
Br         0.000000     0.000000     0.000000
Gh(K)      0.000000     2.788700     0.000000
Gh(K)      4.183050     0.000000     0.000000

units ang
no_reorient
no_com
symmetry c1
}

set {
basis        aug-cc-pVTZ
scf_type     df
}

energy("mp2")
--------------------------------------------------------------------------

    Molecular point group: c1

    Geometry (in Angstrom), charge = -1, multiplicity = 1:

       Center              X                  Y                   Z               Mass
    ------------   -----------------  -----------------  -----------------  -----------------
         BR           0.000000000000     0.000000000000     0.000000000000    78.918337600000
      Gh(K)           0.000000000000     2.788700000000     0.000000000000    38.963706486400
      Gh(K)           4.183050000000     0.000000000000     0.000000000000    38.963706486400

  Charge       = -1
  Multiplicity = 1
  Basis Set: AUG-CC-PVTZ
    Blend: AUG-CC-PVTZ
  Basis Set: (AUG-CC-PVTZ AUX)
    Blend: AUG-CC-PVTZ-JKFIT + DEF2-UNIVERSAL-JKFIT

    Orbital Energies [Eh]
    ---------------------

    Doubly Occupied:

       1A   -489.720882     2A    -64.860819     3A    -58.215310
       4A    -58.215309     5A    -58.215308     6A     -9.532964
       7A     -7.140310     8A     -7.140305     9A     -7.140302
      10A     -2.881988    11A     -2.881986    12A     -2.881983
      13A     -2.881982    14A     -2.881981    15A     -0.685997
      16A     -0.139339    17A     -0.139338    18A     -0.139336

  @DF-RHF Final Energy: -2572.53368464096047

   => Energetics <=

    Nuclear Repulsion Energy =              0.0000000000000000
    One-Electron Energy =               -3593.6764942527943276
    Two-Electron Energy =                1021.1428096118337407
    Total Energy =                      -2572.5336846409604732
 Dipole X            :          0.0001856            0.0000000            0.0001856
 Dipole Y            :          0.0005454            0.0000000            0.0005454
 Dipole Z            :          0.0000000            0.0000000            0.0000000
 Magnitude           :                                                    0.0005762
  Basis Set: (AUG-CC-PVTZ AUX)
    Blend: AUG-CC-PVTZ-RI + DEF2-QZVPP-RI
	 Reference Energy          =   -2572.5336846409604732 [Eh]
	 Singles Energy            =      -0.0000000000000000 [Eh]
	 Same-Spin Energy          =      -0.0878077005558964 [Eh]
	 Opposite-Spin Energy      =      -0.2034501936529148 [Eh]
	 Correlation Energy        =      -0.2912578942088112 [Eh]
	 Total Energy              =   -2572.8249425351691571 [Eh]

	 ================> DF-SCS-MP2 Energies <==================
	-----------------------------------------------------------
	 SCS Same-Spin Scale       =       0.3333333333333333 [-]
	 SCS Opposite-Spin Scale   =       1.2000000000000000 [-]
	 SCS Same-Spin Energy      =      -0.0292692335186321 [Eh]
	 SCS Opposite-Spin Energy  =      -0.2441402323834977 [Eh]
	 SCS Correlation Energy    =      -0.2734094659021298 [Eh]
	 SCS Total Energy          =   -2572.8070941068626780 [Eh]
	-----------------------------------------------------------

*** Psi4 exiting successfully. Buy a developer a beer!
