                               Psi4 1.9 release

  ==> Input File <==

--------------------------------------------------------------------------
MEMORY 60 GB

molecule dimer {
1 1
Br         0.000000     0.000000     0.000000
K          0.000000     2.788700     0.000000
K          3.904180     0.000000     0.000000

units ang
no_reorient
no_com
symmetry c1
}

set {
basis        aug-cc-pVTZ
scf_type     df
}

energy("mp2")
--------------------------------------------------------------------------

    Molecular point group: c1

    Geometry (in Angstrom), charge = 1, multiplicity = 1:

       Center              X                  Y                   Z               Mass
    ------------   -----------------  -----------------  -----------------  -----------------
         BR           0.000000000000     0.000000000000     0.000000000000    78.918337600000
         K            0.000000000000     2.788700000000     0.000000000000    38.963706486400
         K            3.904180000000     0.000000000000     0.000000000000    38.963706486400

  Charge       = 1
  Multiplicity = 1
  Basis Set: AUG-CC-PVTZ
    Blend: AUG-CC-PVTZ
  Basis Set: (AUG-CC-PVTZ AUX)
    Blend: AUG-CC-PVTZ-JKFIT + DEF2-UNIVERSAL-JKFIT

    Orbital Energies [Eh]
    ---------------------

    Doubly Occupied:

       1A   -490.029981     2A   -133.716026     3A   -133.644568
       4A    -65.170566     5A    -58.525098     6A    -58.524966
       7A    -58.524911     8A    -14.671673     9A    -14.602352
      10A    -11.701750    11A    -11.701723    12A    -11.701638
      13A    -11.632103    14A    -11.632051    15A    -11.632039
      16A     -9.843370    17A     -7.451131    18A     -7.450699
      19A     -7.450462    20A     -3.192917    21A     -3.192649
      22A     -3.192604    23A     -3.191843    24A     -3.191797
      25A     -1.927445    26A     -1.865081    27A     -1.135383
      28A     -1.134754    29A     -1.132322    30A     -1.081265
      31A     -1.074512    32A     -1.073546    33A     -0.995142
      34A     -0.461264    35A     -0.456816    36A     -0.451194

  @DF-RHF Final Energy: -3770.76593474515448

   => Energetics <=

    Nuclear Repulsion Energy =            256.1400223621249097
    One-Electron Energy =               -5737.0966372562807010
    Two-Electron Energy =                1710.1906801490010821
    Total Energy =                      -3770.7659347451544818
 Dipole X            :       -133.5143802          140.1787879            6.6644077
 Dipole Y            :        -95.8068356          100.1277057            4.3208701
 Dipole Z            :         -0.0000000            0.0000000           -0.0000000
 Magnitude           :                                                    7.9425593
  Basis Set: (AUG-CC-PVTZ AUX)
    Blend: AUG-CC-PVTZ-RI + DEF2-QZVPP-RI
	 Reference Energy          =   -3770.7659347451544818 [Eh]
	 Singles Energy            =      -0.0000000000000000 [Eh]
	 Same-Spin Energy          =      -0.1474949623325458 [Eh]
	 Opposite-Spin Energy      =      -0.3381570187503987 [Eh]
	 Correlation Energy        =      -0.4856519810829445 [Eh]
	 Total Energy              =   -3771.2515867262372922 [Eh]

	 ================> DF-SCS-MP2 Energies <==================
	-----------------------------------------------------------
	 SCS Same-Spin Scale       =       0.3333333333333333 [-]
	 SCS Opposite-Spin Scale   =       1.2000000000000000 [-]
	 SCS Same-Spin Energy      =      -0.0491649874441819 [Eh]
	 SCS Opposite-Spin Energy  =      -0.4057884225004785 [Eh]
	 SCS Correlation Energy    =      -0.4549534099446604 [Eh]
	 SCS Total Energy          =   -3771.2208881550991464 [Eh]
	-----------------------------------------------------------

*** Psi4 exiting successfully. Buy a developer a beer!
