                               Psi4 1.9 release

  ==> Input File <==

--------------------------------------------------------------------------
MEMORY 60 GB

molecule dimer {
-1 1
K          0.000000     0.000000     0.000000
Br         0.000000     2.788700     0.000000
Br         5.577400     0.000000     0.000000

units ang
no_reorient
no_com
symmetry c1
}

set {
basis        aug-cc-pVTZ
scf_type     df
}

energy("mp2")
--------------------------------------------------------------------------

    Molecular point group: c1

    Geometry (in Angstrom), charge = -1, multiplicity = 1:

       Center              X                  Y                   Z               Mass
    ------------   -----------------  -----------------  -----------------  -----------------
         K            0.000000000000     0.000000000000     0.000000000000    38.963706486400
         BR           0.000000000000     2.788700000000     0.000000000000    78.918337600000
         BR           5.577400000000     0.000000000000     0.000000000000    78.918337600000

  Charge       = -1
  Multiplicity = 1
  Basis Set: AUG-CC-PVTZ
    Blend: AUG-CC-PVTZ
  Basis Set: (AUG-CC-PVTZ AUX)
    Blend: AUG-CC-PVTZ-JKFIT + DEF2-UNIVERSAL-JKFIT

    Orbital Energies [Eh]
    ---------------------

    Doubly Occupied:

       1A   -489.806544     2A   -489.730687     3A   -133.438670
       4A    -64.947235     5A    -64.870757     6A    -58.301692
       7A    -58.301683     8A    -58.301622     9A    -58.225250
      10A    -58.225222    11A    -58.225212    12A    -14.396420
      13A    -11.426132    14A    -11.426120    15A    -11.426087
      16A     -9.620143    17A     -9.543132    18A     -7.227768
      19A     -7.227552    20A     -7.227432    21A     -7.150587
      22A     -7.150441    23A     -7.150389    24A     -2.969326
      25A     -2.969288    26A     -2.969139    27A     -2.969052
      28A     -2.969003    29A     -2.892287    30A     -2.892244
      31A     -2.892179    32A     -2.891999    33A     -2.891994
      34A     -1.659193    35A     -0.873929    36A     -0.868548
      37A     -0.867382    38A     -0.774337    39A     -0.696172
      40A     -0.241300    41A     -0.231116    42A     -0.229972
      43A     -0.150090    44A     -0.149342    45A     -0.148974

  @DF-RHF Final Energy: -5744.26287054208296

   => Energetics <=

    Nuclear Repulsion Energy =            293.2394808935265473
    One-Electron Energy =               -8595.9174254499484960
    Two-Electron Energy =                2558.4150740143390976
    Total Energy =                      -5744.2628705420829647
 Dipole X            :       -379.0689893          368.8915472          -10.1774420
 Dipole Y            :       -188.7219478          184.4457736           -4.2761742
 Dipole Z            :          0.0000000            0.0000000            0.0000000
 Magnitude           :                                                   11.0392931
  Basis Set: (AUG-CC-PVTZ AUX)
    Blend: AUG-CC-PVTZ-RI + DEF2-QZVPP-RI
	 Reference Energy          =   -5744.2628705420829647 [Eh]
	 Singles Energy            =      -0.0000000000000000 [Eh]
	 Same-Spin Energy          =      -0.2054390178221212 [Eh]
	 Opposite-Spin Energy      =      -0.4723971223055108 [Eh]
	 Correlation Energy        =      -0.6778361401276320 [Eh]
	 Total Energy              =   -5744.9407066822104753 [Eh]

	 ================> DF-SCS-MP2 Energies <==================
	-----------------------------------------------------------
	 SCS Same-Spin Scale       =       0.3333333333333333 [-]
	 SCS Opposite-Spin Scale   =       1.2000000000000000 [-]
	 SCS Same-Spin Energy      =      -0.0684796726073737 [Eh]
	 SCS Opposite-Spin Energy  =      -0.5668765467666129 [Eh]
	 SCS Correlation Energy    =      -0.6353562193739867 [Eh]
	 SCS Total Energy          =   -5744.8982267614564989 [Eh]
	-----------------------------------------------------------

*** Psi4 exiting successfully. Buy a developer a beer!
