                               Psi4 1.9 release

  ==> Input File <==

--------------------------------------------------------------------------
MEMORY 60 GB

molecule dimer {
1 1
K          0.000000     0.000000     0.000000
Gh(Br)     0.000000     2.788700     0.000000
Gh(Br)     3.904180     0.000000     0.000000

units ang
no_reorient
no_com
symmetry c1
}

set {
basis        aug-cc-pVTZ
scf_type     df
}

energy("mp2")
--------------------------------------------------------------------------

    Molecular point group: c1

    Geometry (in Angstrom), charge = 1, multiplicity = 1:

       Center              X                  Y                   Z               Mass
    ------------   -----------------  -----------------  -----------------  -----------------
         K            0.000000000000     0.000000000000     0.000000000000    38.963706486400
      Gh(BR)          0.000000000000     2.788700000000     0.000000000000    78.918337600000
      Gh(BR)          3.904180000000     0.000000000000     0.000000000000    78.918337600000

  Charge       = 1
  Multiplicity = 1
  Basis Set: AUG-CC-PVTZ
    Blend: AUG-CC-PVTZ
  Basis Set: (AUG-CC-PVTZ AUX)
    Blend: AUG-CC-PVTZ-JKFIT + DEF2-UNIVERSAL-JKFIT

    Orbital Energies [Eh]
    ---------------------

    Doubly Occupied:

       1A   -133.753600     2A    -14.709074     3A    -11.739142
       4A    -11.739138     5A    -11.739136     6A     -1.964293
       7A     -1.170925     8A     -1.170902     9A     -1.170870

  @DF-RHF Final Energy:  -599.01750916018148

   => Energetics <=

    Nuclear Repulsion Energy =              0.0000000000000000
    One-Electron Energy =                -819.7208606619340117
    Two-Electron Energy =                 220.7033515017524792
    Total Energy =                       -599.0175091601815893
 Dipole X            :          0.0002409            0.0000000            0.0002409
 Dipole Y            :          0.0004527            0.0000000            0.0004527
 Dipole Z            :          0.0000000            0.0000000            0.0000000
 Magnitude           :                                                    0.0005128
  Basis Set: (AUG-CC-PVTZ AUX)
    Blend: AUG-CC-PVTZ-RI + DEF2-QZVPP-RI
	 Reference Energy          =    -599.0175091601814756 [Eh]
	 Singles Energy            =      -0.0000000000000000 [Eh]
	 Same-Spin Energy          =      -0.0286622518280517 [Eh]
	 Opposite-Spin Energy      =      -0.0671609438740526 [Eh]
	 Correlation Energy        =      -0.0958231957021043 [Eh]
	 Total Energy              =    -599.1133323558835855 [Eh]

	 ================> DF-SCS-MP2 Energies <==================
	-----------------------------------------------------------
	 SCS Same-Spin Scale       =       0.3333333333333333 [-]
	 SCS Opposite-Spin Scale   =       1.2000000000000000 [-]
	 SCS Same-Spin Energy      =      -0.0095540839426839 [Eh]
	 SCS Opposite-Spin Energy  =      -0.0805931326488631 [Eh]
	 SCS Correlation Energy    =      -0.0901472165915470 [Eh]
	 SCS Total Energy          =    -599.1076563767729795 [Eh]
	-----------------------------------------------------------

*** Psi4 exiting successfully. Buy a developer a beer!
