                               Psi4 1.9 release

  ==> Input File <==

--------------------------------------------------------------------------
MEMORY 60 GB

molecule dimer {
-1 1
Gh(K)      0.000000     0.000000     0.000000
Br         0.000000     2.788700     0.000000
Gh(Br)     3.625310     0.000000     0.000000

units ang
no_reorient
no_com
symmetry c1
}

set {
basis        aug-cc-pVTZ
scf_type     df
}

energy("mp2")
--------------------------------------------------------------------------

    Molecular point group: c1

    Geometry (in Angstrom), charge = -1, multiplicity = 1:

       Center              X                  Y                   Z               Mass
    ------------   -----------------  -----------------  -----------------  -----------------
      Gh(K)           0.000000000000     0.000000000000     0.000000000000    38.963706486400
         BR           0.000000000000     2.788700000000     0.000000000000    78.918337600000
      Gh(BR)          3.625310000000     0.000000000000     0.000000000000    78.918337600000

  Charge       = -1
  Multiplicity = 1
  Basis Set: AUG-CC-PVTZ
    Blend: AUG-CC-PVTZ
  Basis Set: (AUG-CC-PVTZ AUX)
    Blend: AUG-CC-PVTZ-JKFIT + DEF2-UNIVERSAL-JKFIT

    Orbital Energies [Eh]
    ---------------------

    Doubly Occupied:

       1A   -489.720801     2A    -64.860758     3A    -58.215247
       4A    -58.215246     5A    -58.215244     6A     -9.532946
       7A     -7.140291     8A     -7.140290     9A     -7.140283
      10A     -2.881968    11A     -2.881967    12A     -2.881964
      13A     -2.881962    14A     -2.881960    15A     -0.685999
      16A     -0.139341    17A     -0.139339    18A     -0.139339

  @DF-RHF Final Energy: -2572.53368171472584

   => Energetics <=

    Nuclear Repulsion Energy =              0.0000000000000000
    One-Electron Energy =               -3593.6774737403761719
    Two-Electron Energy =                1021.1437920256499865
    Total Energy =                      -2572.5336817147262991
 Dipole X            :          0.0000609            0.0000000            0.0000609
 Dipole Y            :       -189.7164493          184.4457736           -5.2706757
 Dipole Z            :          0.0000000            0.0000000            0.0000000
 Magnitude           :                                                    5.2706757
  Basis Set: (AUG-CC-PVTZ AUX)
    Blend: AUG-CC-PVTZ-RI + DEF2-QZVPP-RI
	 Reference Energy          =   -2572.5336817147258444 [Eh]
	 Singles Energy            =      -0.0000000000000000 [Eh]
	 Same-Spin Energy          =      -0.0876458181048837 [Eh]
	 Opposite-Spin Energy      =      -0.2031026464769709 [Eh]
	 Correlation Energy        =      -0.2907484645818546 [Eh]
	 Total Energy              =   -2572.8244301793079103 [Eh]

	 ================> DF-SCS-MP2 Energies <==================
	-----------------------------------------------------------
	 SCS Same-Spin Scale       =       0.3333333333333333 [-]
	 SCS Opposite-Spin Scale   =       1.2000000000000000 [-]
	 SCS Same-Spin Energy      =      -0.0292152727016279 [Eh]
	 SCS Opposite-Spin Energy  =      -0.2437231757723651 [Eh]
	 SCS Correlation Energy    =      -0.2729384484739930 [Eh]
	 SCS Total Energy          =   -2572.8066201632000229 [Eh]
	-----------------------------------------------------------

*** Psi4 exiting successfully. Buy a developer a beer!
