                               Psi4 1.9 release

  ==> Input File <==

--------------------------------------------------------------------------
MEMORY 60 GB

molecule dimer {
-1 1
Gh(K)      0.000000     0.000000     0.000000
Br         0.000000     2.788700     0.000000
Gh(Br)     3.346440     0.000000     0.000000

units ang
no_reorient
no_com
symmetry c1
}

set {
basis        aug-cc-pVTZ
scf_type     df
}

energy("mp2")
--------------------------------------------------------------------------

    Molecular point group: c1

    Geometry (in Angstrom), charge = -1, multiplicity = 1:

       Center              X                  Y                   Z               Mass
    ------------   -----------------  -----------------  -----------------  -----------------
      Gh(K)           0.000000000000     0.000000000000     0.000000000000    38.963706486400
         BR           0.000000000000     2.788700000000     0.000000000000    78.918337600000
      Gh(BR)          3.346440000000     0.000000000000     0.000000000000    78.918337600000

  Charge       = -1
  Multiplicity = 1
  Basis Set: AUG-CC-PVTZ
    Blend: AUG-CC-PVTZ
  Basis Set: (AUG-CC-PVTZ AUX)
    Blend: AUG-CC-PVTZ-JKFIT + DEF2-UNIVERSAL-JKFIT

    Orbital Energies [Eh]
    ---------------------

    Doubly Occupied:

       1A   -489.720804     2A    -64.860761     3A    -58.215250
       4A    -58.215248     5A    -58.215247     6A     -9.532946
       7A     -7.140292     8A     -7.140290     9A     -7.140283
      10A     -2.881969    11A     -2.881968    12A     -2.881965
      13A     -2.881963    14A     -2.881961    15A     -0.685999
      16A     -0.139341    17A     -0.139339    18A     -0.139338

  @DF-RHF Final Energy: -2572.53368209139171

   => Energetics <=

    Nuclear Repulsion Energy =              0.0000000000000000
    One-Electron Energy =               -3593.6774336071152902
    Two-Electron Energy =                1021.1437515157234657
    Total Energy =                      -2572.5336820913917109
 Dipole X            :          0.0000612            0.0000000            0.0000612
 Dipole Y            :       -189.7164302          184.4457736           -5.2706566
 Dipole Z            :         -0.0000000            0.0000000           -0.0000000
 Magnitude           :                                                    5.2706566
  Basis Set: (AUG-CC-PVTZ AUX)
    Blend: AUG-CC-PVTZ-RI + DEF2-QZVPP-RI
	 Reference Energy          =   -2572.5336820913917109 [Eh]
	 Singles Energy            =      -0.0000000000000000 [Eh]
	 Same-Spin Energy          =      -0.0876534267392587 [Eh]
	 Opposite-Spin Energy      =      -0.2031221824204809 [Eh]
	 Correlation Energy        =      -0.2907756091597396 [Eh]
	 Total Energy              =   -2572.8244577005516476 [Eh]

	 ================> DF-SCS-MP2 Energies <==================
	-----------------------------------------------------------
	 SCS Same-Spin Scale       =       0.3333333333333333 [-]
	 SCS Opposite-Spin Scale   =       1.2000000000000000 [-]
	 SCS Same-Spin Energy      =      -0.0292178089130862 [Eh]
	 SCS Opposite-Spin Energy  =      -0.2437466189045771 [Eh]
	 SCS Correlation Energy    =      -0.2729644278176633 [Eh]
	 SCS Total Energy          =   -2572.8066465192091528 [Eh]
	-----------------------------------------------------------

*** Psi4 exiting successfully. Buy a developer a beer!
