                               Psi4 1.9 release

  ==> Input File <==

--------------------------------------------------------------------------
MEMORY 60 GB

molecule dimer {
-1 1
Gh(K)      0.000000     0.000000     0.000000
Gh(Br)     0.000000     2.788700     0.000000
Br         3.904180     0.000000     0.000000

units ang
no_reorient
no_com
symmetry c1
}

set {
basis        aug-cc-pVTZ
scf_type     df
}

energy("mp2")
--------------------------------------------------------------------------

    Molecular point group: c1

    Geometry (in Angstrom), charge = -1, multiplicity = 1:

       Center              X                  Y                   Z               Mass
    ------------   -----------------  -----------------  -----------------  -----------------
      Gh(K)           0.000000000000     0.000000000000     0.000000000000    38.963706486400
      Gh(BR)          0.000000000000     2.788700000000     0.000000000000    78.918337600000
         BR           3.904180000000     0.000000000000     0.000000000000    78.918337600000

  Charge       = -1
  Multiplicity = 1
  Basis Set: AUG-CC-PVTZ
    Blend: AUG-CC-PVTZ
  Basis Set: (AUG-CC-PVTZ AUX)
    Blend: AUG-CC-PVTZ-JKFIT + DEF2-UNIVERSAL-JKFIT

    Orbital Energies [Eh]
    ---------------------

    Doubly Occupied:

       1A   -489.720616     2A    -64.860631     3A    -58.215111
       4A    -58.215110     5A    -58.215110     6A     -9.532909
       7A     -7.140253     8A     -7.140252     9A     -7.140247
      10A     -2.881924    11A     -2.881923    12A     -2.881923
      13A     -2.881922    14A     -2.881919    15A     -0.686002
      16A     -0.139343    17A     -0.139339    18A     -0.139339

  @DF-RHF Final Energy: -2572.53367600913589

   => Energetics <=

    Nuclear Repulsion Energy =              0.0000000000000000
    One-Electron Energy =               -3593.6796036280475164
    Two-Electron Energy =                1021.1459276189115144
    Total Energy =                      -2572.5336760091358883
 Dipole X            :       -265.6022307          258.2240831           -7.3781477
 Dipole Y            :          0.0000070            0.0000000            0.0000070
 Dipole Z            :         -0.0000000            0.0000000           -0.0000000
 Magnitude           :                                                    7.3781477
  Basis Set: (AUG-CC-PVTZ AUX)
    Blend: AUG-CC-PVTZ-RI + DEF2-QZVPP-RI
	 Reference Energy          =   -2572.5336760091358883 [Eh]
	 Singles Energy            =      -0.0000000000000000 [Eh]
	 Same-Spin Energy          =      -0.0872594893516512 [Eh]
	 Opposite-Spin Energy      =      -0.2022409402904475 [Eh]
	 Correlation Energy        =      -0.2895004296420987 [Eh]
	 Total Energy              =   -2572.8231764387778640 [Eh]

	 ================> DF-SCS-MP2 Energies <==================
	-----------------------------------------------------------
	 SCS Same-Spin Scale       =       0.3333333333333333 [-]
	 SCS Opposite-Spin Scale   =       1.2000000000000000 [-]
	 SCS Same-Spin Energy      =      -0.0290864964505504 [Eh]
	 SCS Opposite-Spin Energy  =      -0.2426891283485370 [Eh]
	 SCS Correlation Energy    =      -0.2717756247990875 [Eh]
	 SCS Total Energy          =   -2572.8054516339348083 [Eh]
	-----------------------------------------------------------

*** Psi4 exiting successfully. Buy a developer a beer!
