                               Psi4 1.9 release

  ==> Input File <==

--------------------------------------------------------------------------
MEMORY 60 GB

molecule dimer {
1 1
K          0.000000     0.000000     0.000000
Gh(Br)     0.000000     2.788700     0.000000
Gh(Br)     3.346440     0.000000     0.000000

units ang
no_reorient
no_com
symmetry c1
}

set {
basis        aug-cc-pVTZ
scf_type     df
}

energy("mp2")
--------------------------------------------------------------------------

    Molecular point group: c1

    Geometry (in Angstrom), charge = 1, multiplicity = 1:

       Center              X                  Y                   Z               Mass
    ------------   -----------------  -----------------  -----------------  -----------------
         K            0.000000000000     0.000000000000     0.000000000000    38.963706486400
      Gh(BR)          0.000000000000     2.788700000000     0.000000000000    78.918337600000
      Gh(BR)          3.346440000000     0.000000000000     0.000000000000    78.918337600000

  Charge       = 1
  Multiplicity = 1
  Basis Set: AUG-CC-PVTZ
    Blend: AUG-CC-PVTZ
  Basis Set: (AUG-CC-PVTZ AUX)
    Blend: AUG-CC-PVTZ-JKFIT + DEF2-UNIVERSAL-JKFIT

    Orbital Energies [Eh]
    ---------------------

    Doubly Occupied:

       1A   -133.753583     2A    -14.709060     3A    -11.739128
       4A    -11.739125     5A    -11.739121     6A     -1.964286
       7A     -1.170920     8A     -1.170895     9A     -1.170865

  @DF-RHF Final Energy:  -599.01750936063775

   => Energetics <=

    Nuclear Repulsion Energy =              0.0000000000000000
    One-Electron Energy =                -819.7210543516866892
    Two-Electron Energy =                 220.7035449910489717
    Total Energy =                       -599.0175093606377459
 Dipole X            :          0.0002383            0.0000000            0.0002383
 Dipole Y            :          0.0004521            0.0000000            0.0004521
 Dipole Z            :         -0.0000000            0.0000000           -0.0000000
 Magnitude           :                                                    0.0005111
  Basis Set: (AUG-CC-PVTZ AUX)
    Blend: AUG-CC-PVTZ-RI + DEF2-QZVPP-RI
	 Reference Energy          =    -599.0175093606377459 [Eh]
	 Singles Energy            =      -0.0000000000000000 [Eh]
	 Same-Spin Energy          =      -0.0291596256666198 [Eh]
	 Opposite-Spin Energy      =      -0.0684411657801144 [Eh]
	 Correlation Energy        =      -0.0976007914467342 [Eh]
	 Total Energy              =    -599.1151101520845259 [Eh]

	 ================> DF-SCS-MP2 Energies <==================
	-----------------------------------------------------------
	 SCS Same-Spin Scale       =       0.3333333333333333 [-]
	 SCS Opposite-Spin Scale   =       1.2000000000000000 [-]
	 SCS Same-Spin Energy      =      -0.0097198752222066 [Eh]
	 SCS Opposite-Spin Energy  =      -0.0821293989361372 [Eh]
	 SCS Correlation Energy    =      -0.0918492741583438 [Eh]
	 SCS Total Energy          =    -599.1093586347960809 [Eh]
	-----------------------------------------------------------

*** Psi4 exiting successfully. Buy a developer a beer!
