                               Psi4 1.9 release

  ==> Input File <==

--------------------------------------------------------------------------
MEMORY 60 GB

molecule dimer {
-1 1
Gh(K)      0.000000     0.000000     0.000000
Gh(Br)     0.000000     2.788700     0.000000
Br         3.346440     0.000000     0.000000

units ang
no_reorient
no_com
symmetry c1
}

set {
basis        aug-cc-pVTZ
scf_type     df
}

energy("mp2")
--------------------------------------------------------------------------

    Molecular point group: c1

    Geometry (in Angstrom), charge = -1, multiplicity = 1:

       Center              X                  Y                   Z               Mass
    ------------   -----------------  -----------------  -----------------  -----------------
      Gh(K)           0.000000000000     0.000000000000     0.000000000000    38.963706486400
      Gh(BR)          0.000000000000     2.788700000000     0.000000000000    78.918337600000
         BR           3.346440000000     0.000000000000     0.000000000000    78.918337600000

  Charge       = -1
  Multiplicity = 1
  Basis Set: AUG-CC-PVTZ
    Blend: AUG-CC-PVTZ
  Basis Set: (AUG-CC-PVTZ AUX)
    Blend: AUG-CC-PVTZ-JKFIT + DEF2-UNIVERSAL-JKFIT

    Orbital Energies [Eh]
    ---------------------

    Doubly Occupied:

       1A   -489.720742     2A    -64.860716     3A    -58.215201
       4A    -58.215200     5A    -58.215199     6A     -9.532934
       7A     -7.140279     8A     -7.140278     9A     -7.140267
      10A     -2.881952    11A     -2.881951    12A     -2.881951
      13A     -2.881950    14A     -2.881949    15A     -0.686001
      16A     -0.139342    17A     -0.139339    18A     -0.139338

  @DF-RHF Final Energy: -2572.53367936340419

   => Energetics <=

    Nuclear Repulsion Energy =              0.0000000000000000
    One-Electron Energy =               -3593.6781735959289108
    Two-Electron Energy =                1021.1444942325251759
    Total Energy =                      -2572.5336793634037349
 Dipole X            :       -227.6591773          221.3349283           -6.3242489
 Dipole Y            :          0.0000595            0.0000000            0.0000595
 Dipole Z            :         -0.0000000            0.0000000           -0.0000000
 Magnitude           :                                                    6.3242489
  Basis Set: (AUG-CC-PVTZ AUX)
    Blend: AUG-CC-PVTZ-RI + DEF2-QZVPP-RI
	 Reference Energy          =   -2572.5336793634041896 [Eh]
	 Singles Energy            =      -0.0000000000000000 [Eh]
	 Same-Spin Energy          =      -0.0874956637064333 [Eh]
	 Opposite-Spin Energy      =      -0.2027519023271848 [Eh]
	 Correlation Energy        =      -0.2902475660336181 [Eh]
	 Total Energy              =   -2572.8239269294376754 [Eh]

	 ================> DF-SCS-MP2 Energies <==================
	-----------------------------------------------------------
	 SCS Same-Spin Scale       =       0.3333333333333333 [-]
	 SCS Opposite-Spin Scale   =       1.2000000000000000 [-]
	 SCS Same-Spin Energy      =      -0.0291652212354778 [Eh]
	 SCS Opposite-Spin Energy  =      -0.2433022827926218 [Eh]
	 SCS Correlation Energy    =      -0.2724675040280995 [Eh]
	 SCS Total Energy          =   -2572.8061468674322896 [Eh]
	-----------------------------------------------------------

*** Psi4 exiting successfully. Buy a developer a beer!
