                               Psi4 1.9 release

  ==> Input File <==

--------------------------------------------------------------------------
MEMORY 60 GB

molecule dimer {
1 1
K          0.000000     0.000000     0.000000
Gh(Br)     0.000000     2.788700     0.000000
Gh(Br)     3.067570     0.000000     0.000000

units ang
no_reorient
no_com
symmetry c1
}

set {
basis        aug-cc-pVTZ
scf_type     df
}

energy("mp2")
--------------------------------------------------------------------------

    Molecular point group: c1

    Geometry (in Angstrom), charge = 1, multiplicity = 1:

       Center              X                  Y                   Z               Mass
    ------------   -----------------  -----------------  -----------------  -----------------
         K            0.000000000000     0.000000000000     0.000000000000    38.963706486400
      Gh(BR)          0.000000000000     2.788700000000     0.000000000000    78.918337600000
      Gh(BR)          3.067570000000     0.000000000000     0.000000000000    78.918337600000

  Charge       = 1
  Multiplicity = 1
  Basis Set: AUG-CC-PVTZ
    Blend: AUG-CC-PVTZ
  Basis Set: (AUG-CC-PVTZ AUX)
    Blend: AUG-CC-PVTZ-JKFIT + DEF2-UNIVERSAL-JKFIT

    Orbital Energies [Eh]
    ---------------------

    Doubly Occupied:

       1A   -133.753566     2A    -14.709045     3A    -11.739113
       4A    -11.739111     5A    -11.739106     6A     -1.964275
       7A     -1.170912     8A     -1.170892     9A     -1.170856

  @DF-RHF Final Energy:  -599.01750965219958

   => Energetics <=

    Nuclear Repulsion Energy =              0.0000000000000000
    One-Electron Energy =                -819.7212684939609062
    Two-Electron Energy =                 220.7037588417614131
    Total Energy =                       -599.0175096521994647
 Dipole X            :          0.0003097            0.0000000            0.0003097
 Dipole Y            :          0.0004581            0.0000000            0.0004581
 Dipole Z            :          0.0000000            0.0000000            0.0000000
 Magnitude           :                                                    0.0005529
  Basis Set: (AUG-CC-PVTZ AUX)
    Blend: AUG-CC-PVTZ-RI + DEF2-QZVPP-RI
	 Reference Energy          =    -599.0175096521995783 [Eh]
	 Singles Energy            =      -0.0000000000000000 [Eh]
	 Same-Spin Energy          =      -0.0297133081160273 [Eh]
	 Opposite-Spin Energy      =      -0.0699294331785792 [Eh]
	 Correlation Energy        =      -0.0996427412946065 [Eh]
	 Total Energy              =    -599.1171523934941661 [Eh]

	 ================> DF-SCS-MP2 Energies <==================
	-----------------------------------------------------------
	 SCS Same-Spin Scale       =       0.3333333333333333 [-]
	 SCS Opposite-Spin Scale   =       1.2000000000000000 [-]
	 SCS Same-Spin Energy      =      -0.0099044360386758 [Eh]
	 SCS Opposite-Spin Energy  =      -0.0839153198142950 [Eh]
	 SCS Correlation Energy    =      -0.0938197558529708 [Eh]
	 SCS Total Energy          =    -599.1113294080525975 [Eh]
	-----------------------------------------------------------

*** Psi4 exiting successfully. Buy a developer a beer!
