                               Psi4 1.9 release

  ==> Input File <==

--------------------------------------------------------------------------
MEMORY 60 GB

molecule dimer {
1 1
K      0.000000     0.000000     0.000000
--
-1 1
Br     0.000000     2.788700     0.000000
--
-1 1
Br     4.183050     0.000000     0.000000

units ang
no_reorient
no_com
symmetry c1
}

set {
basis        aug-cc-pVTZ
scf_type     df
}

energy("mp2", bsse_type="cp")
--------------------------------------------------------------------------

                               Psi4 1.9 release
    Molecular point group: c1
  Charge       = 1
  Multiplicity = 1
  Basis Set: AUG-CC-PVTZ
    Blend: AUG-CC-PVTZ
  Basis Set: (AUG-CC-PVTZ AUX)
    Blend: AUG-CC-PVTZ-JKFIT + DEF2-UNIVERSAL-JKFIT
  @DF-RHF Final Energy:  -599.01750897746797
    Total Energy =                       -599.0175089774679691
 Dipole X            :          0.0002009            0.0000000            0.0002009
 Dipole Y            :          0.0004664            0.0000000            0.0004664
 Dipole Z            :          0.0000000            0.0000000            0.0000000
 Magnitude           :                                                    0.0005079
  Basis Set: (AUG-CC-PVTZ AUX)
    Blend: AUG-CC-PVTZ-RI + DEF2-QZVPP-RI
	 Reference Energy          =    -599.0175089774679691 [Eh]
	 Singles Energy            =      -0.0000000000000000 [Eh]
	 Same-Spin Energy          =      -0.0285457888717902 [Eh]
	 Opposite-Spin Energy      =      -0.0668373672629088 [Eh]
	 Correlation Energy        =      -0.0953831561346990 [Eh]
	 Total Energy              =    -599.1128921336027133 [Eh]
	 SCS Total Energy          =    -599.1072290811407584 [Eh]
                               Psi4 1.9 release
    Molecular point group: c1
  Basis Set: AUG-CC-PVTZ
    Blend: AUG-CC-PVTZ
  Basis Set: (AUG-CC-PVTZ AUX)
    Blend: AUG-CC-PVTZ-JKFIT + DEF2-UNIVERSAL-JKFIT
  @DF-RHF Final Energy: -2572.53368138563928
    Total Energy =                      -2572.5336813856392837
  Basis Set: (AUG-CC-PVTZ AUX)
                               Psi4 1.9 release
  @DF-RHF Final Energy: -5144.96685077844177
    Total Energy =                      -5144.9668507784426765
                               Psi4 1.9 release
  @DF-RHF Final Energy: -3171.68346278322542
    Total Energy =                      -3171.6834627832258775
                               Psi4 1.9 release
  @DF-RHF Final Energy: -3171.72015959199416
    Total Energy =                      -3171.7201595919941610
                               Psi4 1.9 release
  Multiplicity = 1
  @DF-RHF Final Energy: -2572.53367467301359
    Total Energy =                      -2572.5336746730135928
	 Singles Energy            =      -0.0000000000000000 [Eh]
	 Same-Spin Energy          =      -0.0871666054570542 [Eh]
	 Opposite-Spin Energy      =      -0.2020406740072700 [Eh]
	 Correlation Energy        =      -0.2892072794643242 [Eh]
	 Total Energy              =   -2572.8228819524779283 [Eh]
	 SCS Total Energy          =   -2572.8051790169747619 [Eh]
                               Psi4 1.9 release
    Molecular point group: c1

    Geometry (in Bohr), charge = -1, multiplicity = 1:

       Center              X                  Y                   Z               Mass
    ------------   -----------------  -----------------  -----------------  -----------------
         K            0.000000000000     0.000000000000     0.000000000000    38.963706486400
         BR           0.000000000000     5.269879246064     0.000000000000    78.918337600000
         BR           7.904818869096     0.000000000000     0.000000000000    78.918337600000

  Charge       = -1
  Multiplicity = 1
  Basis Set: AUG-CC-PVTZ
    Blend: AUG-CC-PVTZ
  Basis Set: (AUG-CC-PVTZ AUX)
    Blend: AUG-CC-PVTZ-JKFIT + DEF2-UNIVERSAL-JKFIT

    Orbital Energies [Eh]
    ---------------------

    Doubly Occupied:

       1A   -489.785477     2A   -489.742676     3A   -133.407363
       4A    -64.926166     5A    -64.882701     6A    -58.280633
       7A    -58.280622     8A    -58.280543     9A    -58.237228
      10A    -58.237163    11A    -58.237140    12A    -14.365019
      13A    -11.394760    14A    -11.394745    15A    -11.394664
      16A     -9.599064    17A     -9.554999    18A     -7.206706
      19A     -7.206514    20A     -7.206307    21A     -7.162600
      22A     -7.162268    23A     -7.162145    24A     -2.948327
      25A     -2.948301    26A     -2.948028    27A     -2.947931
      28A     -2.947838    29A     -2.904354    30A     -2.904252
      31A     -2.904101    32A     -2.903676    33A     -2.903664
      34A     -1.627585    35A     -0.843783    36A     -0.837409
      37A     -0.834667    38A     -0.752474    39A     -0.708138
      40A     -0.220117    41A     -0.210459    42A     -0.208917
      43A     -0.163623    44A     -0.160842    45A     -0.159789

  @DF-RHF Final Energy: -5744.27403661157587

   => Energetics <=

    Nuclear Repulsion Energy =            339.2565541315713062
    One-Electron Energy =               -8688.8696202753581019
    Two-Electron Energy =                2605.3390295322110433
    Total Energy =                      -5744.2740366115758661
 Dipole X            :       -283.9427348          276.6686604           -7.2740743
 Dipole Y            :       -188.7374836          184.4457736           -4.2917100
 Dipole Z            :          0.0000000            0.0000000            0.0000000
 Magnitude           :                                                    8.4457641
  Basis Set: (AUG-CC-PVTZ AUX)
    Blend: AUG-CC-PVTZ-RI + DEF2-QZVPP-RI
	 Reference Energy          =   -5744.2740366115758661 [Eh]
	 Singles Energy            =      -0.0000000000000000 [Eh]
	 Same-Spin Energy          =      -0.2069142565314830 [Eh]
	 Opposite-Spin Energy      =      -0.4752420949079536 [Eh]
	 Correlation Energy        =      -0.6821563514394366 [Eh]
	 Total Energy              =   -5744.9561929630153827 [Eh]

	 ================> DF-SCS-MP2 Energies <==================
	-----------------------------------------------------------
	 SCS Same-Spin Scale       =       0.3333333333333333 [-]
	 SCS Opposite-Spin Scale   =       1.2000000000000000 [-]
	 SCS Same-Spin Energy      =      -0.0689714188438277 [Eh]
	 SCS Opposite-Spin Energy  =      -0.5702905138895443 [Eh]
	 SCS Correlation Energy    =      -0.6392619327333720 [Eh]
	 SCS Total Energy          =   -5744.9132985443093276 [Eh]
	-----------------------------------------------------------

*** Psi4 exiting successfully. Buy a developer a beer!
