                               Psi4 1.9 release

  ==> Input File <==

--------------------------------------------------------------------------
MEMORY 60 GB

molecule dimer {
-1 1
Gh(K)      0.000000     0.000000     0.000000
Gh(Br)     0.000000     2.788700     0.000000
Br         3.625310     0.000000     0.000000

units ang
no_reorient
no_com
symmetry c1
}

set {
basis        aug-cc-pVTZ
scf_type     df
}

energy("mp2")
--------------------------------------------------------------------------

    Molecular point group: c1

    Geometry (in Angstrom), charge = -1, multiplicity = 1:

       Center              X                  Y                   Z               Mass
    ------------   -----------------  -----------------  -----------------  -----------------
      Gh(K)           0.000000000000     0.000000000000     0.000000000000    38.963706486400
      Gh(BR)          0.000000000000     2.788700000000     0.000000000000    78.918337600000
         BR           3.625310000000     0.000000000000     0.000000000000    78.918337600000

  Charge       = -1
  Multiplicity = 1
  Basis Set: AUG-CC-PVTZ
    Blend: AUG-CC-PVTZ
  Basis Set: (AUG-CC-PVTZ AUX)
    Blend: AUG-CC-PVTZ-JKFIT + DEF2-UNIVERSAL-JKFIT

    Orbital Energies [Eh]
    ---------------------

    Doubly Occupied:

       1A   -489.720677     2A    -64.860672     3A    -58.215155
       4A    -58.215154     5A    -58.215153     6A     -9.532921
       7A     -7.140266     8A     -7.140265     9A     -7.140257
      10A     -2.881938    11A     -2.881937    12A     -2.881937
      13A     -2.881936    14A     -2.881934    15A     -0.686001
      16A     -0.139342    17A     -0.139339    18A     -0.139339

  @DF-RHF Final Energy: -2572.53367758594959

   => Energetics <=

    Nuclear Repulsion Energy =              0.0000000000000000
    One-Electron Energy =               -3593.6789075364276869
    Two-Electron Energy =                1021.1452299504780967
    Total Energy =                      -2572.5336775859495901
 Dipole X            :       -246.6306851          239.7795057           -6.8511794
 Dipole Y            :          0.0000441            0.0000000            0.0000441
 Dipole Z            :         -0.0000000            0.0000000           -0.0000000
 Magnitude           :                                                    6.8511794
  Basis Set: (AUG-CC-PVTZ AUX)
    Blend: AUG-CC-PVTZ-RI + DEF2-QZVPP-RI
	 Reference Energy          =   -2572.5336775859495901 [Eh]
	 Singles Energy            =      -0.0000000000000000 [Eh]
	 Same-Spin Energy          =      -0.0873723663357842 [Eh]
	 Opposite-Spin Energy      =      -0.2024840304596564 [Eh]
	 Correlation Energy        =      -0.2898563967954406 [Eh]
	 Total Energy              =   -2572.8235339827451753 [Eh]

	 ================> DF-SCS-MP2 Energies <==================
	-----------------------------------------------------------
	 SCS Same-Spin Scale       =       0.3333333333333333 [-]
	 SCS Opposite-Spin Scale   =       1.2000000000000000 [-]
	 SCS Same-Spin Energy      =      -0.0291241221119281 [Eh]
	 SCS Opposite-Spin Energy  =      -0.2429808365515877 [Eh]
	 SCS Correlation Energy    =      -0.2721049586635158 [Eh]
	 SCS Total Energy          =   -2572.8057825446130664 [Eh]
	-----------------------------------------------------------

*** Psi4 exiting successfully. Buy a developer a beer!
