                               Psi4 1.9 release

  ==> Input File <==

--------------------------------------------------------------------------
MEMORY 60 GB

molecule dimer {
-1 1
Gh(K)      0.000000     0.000000     0.000000
Br         0.000000     2.788700     0.000000
Gh(Br)     5.577400     0.000000     0.000000

units ang
no_reorient
no_com
symmetry c1
}

set {
basis        aug-cc-pVTZ
scf_type     df
}

energy("mp2")
--------------------------------------------------------------------------

    Molecular point group: c1

    Geometry (in Angstrom), charge = -1, multiplicity = 1:

       Center              X                  Y                   Z               Mass
    ------------   -----------------  -----------------  -----------------  -----------------
      Gh(K)           0.000000000000     0.000000000000     0.000000000000    38.963706486400
         BR           0.000000000000     2.788700000000     0.000000000000    78.918337600000
      Gh(BR)          5.577400000000     0.000000000000     0.000000000000    78.918337600000

  Charge       = -1
  Multiplicity = 1
  Basis Set: AUG-CC-PVTZ
    Blend: AUG-CC-PVTZ
  Basis Set: (AUG-CC-PVTZ AUX)
    Blend: AUG-CC-PVTZ-JKFIT + DEF2-UNIVERSAL-JKFIT

    Orbital Energies [Eh]
    ---------------------

    Doubly Occupied:

       1A   -489.720769     2A    -64.860737     3A    -58.215224
       4A    -58.215224     5A    -58.215222     6A     -9.532940
       7A     -7.140285     8A     -7.140284     9A     -7.140278
      10A     -2.881962    11A     -2.881961    12A     -2.881958
      13A     -2.881955    14A     -2.881954    15A     -0.686000
      16A     -0.139341    17A     -0.139339    18A     -0.139339

  @DF-RHF Final Energy: -2572.53368037298333

   => Energetics <=

    Nuclear Repulsion Energy =              0.0000000000000000
    One-Electron Energy =               -3593.6778107988266129
    Two-Electron Energy =                1021.1441304258430591
    Total Energy =                      -2572.5336803729833264
 Dipole X            :         -0.0000057            0.0000000           -0.0000057
 Dipole Y            :       -189.7165227          184.4457736           -5.2707491
 Dipole Z            :          0.0000000            0.0000000            0.0000000
 Magnitude           :                                                    5.2707491
  Basis Set: (AUG-CC-PVTZ AUX)
    Blend: AUG-CC-PVTZ-RI + DEF2-QZVPP-RI
	 Reference Energy          =   -2572.5336803729833264 [Eh]
	 Singles Energy            =      -0.0000000000000000 [Eh]
	 Same-Spin Energy          =      -0.0875736265491587 [Eh]
	 Opposite-Spin Energy      =      -0.2029422691281132 [Eh]
	 Correlation Energy        =      -0.2905158956772719 [Eh]
	 Total Energy              =   -2572.8241962686606712 [Eh]

	 ================> DF-SCS-MP2 Energies <==================
	-----------------------------------------------------------
	 SCS Same-Spin Scale       =       0.3333333333333333 [-]
	 SCS Opposite-Spin Scale   =       1.2000000000000000 [-]
	 SCS Same-Spin Energy      =      -0.0291912088497196 [Eh]
	 SCS Opposite-Spin Energy  =      -0.2435307229537358 [Eh]
	 SCS Correlation Energy    =      -0.2727219318034554 [Eh]
	 SCS Total Energy          =   -2572.8064023047868432 [Eh]
	-----------------------------------------------------------

*** Psi4 exiting successfully. Buy a developer a beer!
