                               Psi4 1.9 release

  ==> Input File <==

--------------------------------------------------------------------------
MEMORY 60 GB

molecule dimer {
-1 1
Gh(K)      0.000000     0.000000     0.000000
Br         0.000000     2.788700     0.000000
Gh(Br)     2.788700     0.000000     0.000000

units ang
no_reorient
no_com
symmetry c1
}

set {
basis        aug-cc-pVTZ
scf_type     df
}

energy("mp2")
--------------------------------------------------------------------------

    Molecular point group: c1

    Geometry (in Angstrom), charge = -1, multiplicity = 1:

       Center              X                  Y                   Z               Mass
    ------------   -----------------  -----------------  -----------------  -----------------
      Gh(K)           0.000000000000     0.000000000000     0.000000000000    38.963706486400
         BR           0.000000000000     2.788700000000     0.000000000000    78.918337600000
      Gh(BR)          2.788700000000     0.000000000000     0.000000000000    78.918337600000

  Charge       = -1
  Multiplicity = 1
  Basis Set: AUG-CC-PVTZ
    Blend: AUG-CC-PVTZ
  Basis Set: (AUG-CC-PVTZ AUX)
    Blend: AUG-CC-PVTZ-JKFIT + DEF2-UNIVERSAL-JKFIT

    Orbital Energies [Eh]
    ---------------------

    Doubly Occupied:

       1A   -489.720829     2A    -64.860778     3A    -58.215267
       4A    -58.215266     5A    -58.215265     6A     -9.532952
       7A     -7.140298     8A     -7.140295     9A     -7.140288
      10A     -2.881975    11A     -2.881974    12A     -2.881970
      13A     -2.881969    14A     -2.881967    15A     -0.685999
      16A     -0.139341    17A     -0.139339    18A     -0.139338

  @DF-RHF Final Energy: -2572.53368295154951

   => Energetics <=

    Nuclear Repulsion Energy =              0.0000000000000000
    One-Electron Energy =               -3593.6771479279177584
    Two-Electron Energy =                1021.1434649763683638
    Total Energy =                      -2572.5336829515495083
 Dipole X            :          0.0000457            0.0000000            0.0000457
 Dipole Y            :       -189.7163396          184.4457736           -5.2705660
 Dipole Z            :         -0.0000000            0.0000000           -0.0000000
 Magnitude           :                                                    5.2705660
  Basis Set: (AUG-CC-PVTZ AUX)
    Blend: AUG-CC-PVTZ-RI + DEF2-QZVPP-RI
	 Reference Energy          =   -2572.5336829515495083 [Eh]
	 Singles Energy            =      -0.0000000000000000 [Eh]
	 Same-Spin Energy          =      -0.0877020905833922 [Eh]
	 Opposite-Spin Energy      =      -0.2032355977505507 [Eh]
	 Correlation Energy        =      -0.2909376883339428 [Eh]
	 Total Energy              =   -2572.8246206398835056 [Eh]

	 ================> DF-SCS-MP2 Energies <==================
	-----------------------------------------------------------
	 SCS Same-Spin Scale       =       0.3333333333333333 [-]
	 SCS Opposite-Spin Scale   =       1.2000000000000000 [-]
	 SCS Same-Spin Energy      =      -0.0292340301944641 [Eh]
	 SCS Opposite-Spin Energy  =      -0.2438827173006608 [Eh]
	 SCS Correlation Energy    =      -0.2731167474951249 [Eh]
	 SCS Total Energy          =   -2572.8067996990448592 [Eh]
	-----------------------------------------------------------

*** Psi4 exiting successfully. Buy a developer a beer!
