                               Psi4 1.9 release

  ==> Input File <==

--------------------------------------------------------------------------
MEMORY 60 GB

molecule dimer {
1 1
K      0.000000     0.000000     0.000000
--
-1 1
Br     0.000000     2.788700     0.000000
--
-1 1
Br     3.625310     0.000000     0.000000

units ang
no_reorient
no_com
symmetry c1
}

set {
basis        aug-cc-pVTZ
scf_type     df
}

energy("mp2", bsse_type="cp")
--------------------------------------------------------------------------

                               Psi4 1.9 release
    Molecular point group: c1
  Charge       = 1
  Multiplicity = 1
  Basis Set: AUG-CC-PVTZ
    Blend: AUG-CC-PVTZ
  Basis Set: (AUG-CC-PVTZ AUX)
    Blend: AUG-CC-PVTZ-JKFIT + DEF2-UNIVERSAL-JKFIT
  @DF-RHF Final Energy:  -599.01750925164970
    Total Energy =                       -599.0175092516496989
 Dipole X            :          0.0002419            0.0000000            0.0002419
 Dipole Y            :          0.0004470            0.0000000            0.0004470
 Dipole Z            :          0.0000000            0.0000000            0.0000000
 Magnitude           :                                                    0.0005083
  Basis Set: (AUG-CC-PVTZ AUX)
    Blend: AUG-CC-PVTZ-RI + DEF2-QZVPP-RI
	 Reference Energy          =    -599.0175092516496989 [Eh]
	 Singles Energy            =      -0.0000000000000000 [Eh]
	 Same-Spin Energy          =      -0.0288390927575392 [Eh]
	 Opposite-Spin Energy      =      -0.0676199359556747 [Eh]
	 Correlation Energy        =      -0.0964590287132139 [Eh]
	 Total Energy              =    -599.1139682803628830 [Eh]
	 SCS Total Energy          =    -599.1082662057157222 [Eh]
                               Psi4 1.9 release
    Molecular point group: c1
  Basis Set: AUG-CC-PVTZ
    Blend: AUG-CC-PVTZ
  Basis Set: (AUG-CC-PVTZ AUX)
    Blend: AUG-CC-PVTZ-JKFIT + DEF2-UNIVERSAL-JKFIT
  @DF-RHF Final Energy: -2572.53368171472584
    Total Energy =                      -2572.5336817147258444
  Basis Set: (AUG-CC-PVTZ AUX)
                               Psi4 1.9 release
  @DF-RHF Final Energy: -5144.95819886613936
    Total Energy =                      -5144.9581988661393552
                               Psi4 1.9 release
  @DF-RHF Final Energy: -3171.70297012762603
    Total Energy =                      -3171.7029701276260312
                               Psi4 1.9 release
  @DF-RHF Final Energy: -3171.72016855874563
    Total Energy =                      -3171.7201685587460815
                               Psi4 1.9 release
  Multiplicity = 1
  @DF-RHF Final Energy: -2572.53367758594914
    Total Energy =                      -2572.5336775859495901
	 Singles Energy            =      -0.0000000000000000 [Eh]
	 Same-Spin Energy          =      -0.0873723663357833 [Eh]
	 Opposite-Spin Energy      =      -0.2024840304596551 [Eh]
	 Correlation Energy        =      -0.2898563967954385 [Eh]
	 Total Energy              =   -2572.8235339827447206 [Eh]
	 SCS Total Energy          =   -2572.8057825446126117 [Eh]
                               Psi4 1.9 release
    Molecular point group: c1

    Geometry (in Bohr), charge = -1, multiplicity = 1:

       Center              X                  Y                   Z               Mass
    ------------   -----------------  -----------------  -----------------  -----------------
         K            0.000000000000     0.000000000000     0.000000000000    38.963706486400
         BR           0.000000000000     5.269879246064     0.000000000000    78.918337600000
         BR           6.850843019884     0.000000000000     0.000000000000    78.918337600000

  Charge       = -1
  Multiplicity = 1
  Basis Set: AUG-CC-PVTZ
    Blend: AUG-CC-PVTZ
  Basis Set: (AUG-CC-PVTZ AUX)
    Blend: AUG-CC-PVTZ-JKFIT + DEF2-UNIVERSAL-JKFIT

    Orbital Energies [Eh]
    ---------------------

    Doubly Occupied:

       1A   -489.775023     2A   -489.749785     3A   -133.387327
       4A    -64.915719     5A    -64.889834     6A    -58.270189
       7A    -58.270178     8A    -58.270088     9A    -58.244367
      10A    -58.244306    11A    -58.244270    12A    -14.345086
      13A    -11.374824    14A    -11.374807    15A    -11.374689
      16A     -9.588617    17A     -9.562134    18A     -7.196263
      19A     -7.196091    20A     -7.195837    21A     -7.169788
      22A     -7.169429    23A     -7.169247    24A     -2.937923
      25A     -2.937904    26A     -2.937557    27A     -2.937465
      28A     -2.937344    29A     -2.911555    30A     -2.911454
      31A     -2.911228    32A     -2.910776    33A     -2.910752
      34A     -1.608028    35A     -0.825636    36A     -0.818237
      37A     -0.814699    38A     -0.741222    39A     -0.716117
      40A     -0.209724    41A     -0.200338    42A     -0.199606
      43A     -0.173336    44A     -0.168405    45A     -0.166058

  @DF-RHF Final Energy: -5744.28134338687960

   => Energetics <=

    Nuclear Repulsion Energy =            364.9863789603588202
    One-Electron Energy =               -8740.8089164950979466
    Two-Electron Energy =                2631.5411941478596418
    Total Energy =                      -5744.2813433868795983
 Dipole X            :       -245.8664372          239.7795057           -6.0869315
 Dipole Y            :       -188.7593334          184.4457736           -4.3135598
 Dipole Z            :          0.0000000            0.0000000            0.0000000
 Magnitude           :                                                    7.4603977
  Basis Set: (AUG-CC-PVTZ AUX)
    Blend: AUG-CC-PVTZ-RI + DEF2-QZVPP-RI
	 Reference Energy          =   -5744.2813433868795983 [Eh]
	 Singles Energy            =      -0.0000000000000000 [Eh]
	 Same-Spin Energy          =      -0.2080969257434963 [Eh]
	 Opposite-Spin Energy      =      -0.4771390250595171 [Eh]
	 Correlation Energy        =      -0.6852359508030134 [Eh]
	 Total Energy              =   -5744.9665793376825604 [Eh]

	 ================> DF-SCS-MP2 Energies <==================
	-----------------------------------------------------------
	 SCS Same-Spin Scale       =       0.3333333333333333 [-]
	 SCS Opposite-Spin Scale   =       1.2000000000000000 [-]
	 SCS Same-Spin Energy      =      -0.0693656419144988 [Eh]
	 SCS Opposite-Spin Energy  =      -0.5725668300714204 [Eh]
	 SCS Correlation Energy    =      -0.6419324719859192 [Eh]
	 SCS Total Energy          =   -5744.9232758588659635 [Eh]
	-----------------------------------------------------------

*** Psi4 exiting successfully. Buy a developer a beer!
