                               Psi4 1.9 release

  ==> Input File <==

--------------------------------------------------------------------------
MEMORY 60 GB

molecule dimer {
1 1
K          0.000000     0.000000     0.000000
Gh(Br)     0.000000     2.788700     0.000000
Gh(Br)     3.625310     0.000000     0.000000

units ang
no_reorient
no_com
symmetry c1
}

set {
basis        aug-cc-pVTZ
scf_type     df
}

energy("mp2")
--------------------------------------------------------------------------

    Molecular point group: c1

    Geometry (in Angstrom), charge = 1, multiplicity = 1:

       Center              X                  Y                   Z               Mass
    ------------   -----------------  -----------------  -----------------  -----------------
         K            0.000000000000     0.000000000000     0.000000000000    38.963706486400
      Gh(BR)          0.000000000000     2.788700000000     0.000000000000    78.918337600000
      Gh(BR)          3.625310000000     0.000000000000     0.000000000000    78.918337600000

  Charge       = 1
  Multiplicity = 1
  Basis Set: AUG-CC-PVTZ
    Blend: AUG-CC-PVTZ
  Basis Set: (AUG-CC-PVTZ AUX)
    Blend: AUG-CC-PVTZ-JKFIT + DEF2-UNIVERSAL-JKFIT

    Orbital Energies [Eh]
    ---------------------

    Doubly Occupied:

       1A   -133.753581     2A    -14.709059     3A    -11.739127
       4A    -11.739124     5A    -11.739121     6A     -1.964287
       7A     -1.170920     8A     -1.170897     9A     -1.170865

  @DF-RHF Final Energy:  -599.01750925165049

   => Energetics <=

    Nuclear Repulsion Energy =              0.0000000000000000
    One-Electron Energy =                -819.7210596548427475
    Two-Electron Energy =                 220.7035504031922244
    Total Energy =                       -599.0175092516504947
 Dipole X            :          0.0002419            0.0000000            0.0002419
 Dipole Y            :          0.0004470            0.0000000            0.0004470
 Dipole Z            :         -0.0000000            0.0000000           -0.0000000
 Magnitude           :                                                    0.0005083
  Basis Set: (AUG-CC-PVTZ AUX)
    Blend: AUG-CC-PVTZ-RI + DEF2-QZVPP-RI
	 Reference Energy          =    -599.0175092516504947 [Eh]
	 Singles Energy            =      -0.0000000000000000 [Eh]
	 Same-Spin Energy          =      -0.0288390927576457 [Eh]
	 Opposite-Spin Energy      =      -0.0676199359557833 [Eh]
	 Correlation Energy        =      -0.0964590287134289 [Eh]
	 Total Energy              =    -599.1139682803639062 [Eh]

	 ================> DF-SCS-MP2 Energies <==================
	-----------------------------------------------------------
	 SCS Same-Spin Scale       =       0.3333333333333333 [-]
	 SCS Opposite-Spin Scale   =       1.2000000000000000 [-]
	 SCS Same-Spin Energy      =      -0.0096130309192152 [Eh]
	 SCS Opposite-Spin Energy  =      -0.0811439231469399 [Eh]
	 SCS Correlation Energy    =      -0.0907569540661551 [Eh]
	 SCS Total Energy          =    -599.1082662057166317 [Eh]
	-----------------------------------------------------------

*** Psi4 exiting successfully. Buy a developer a beer!
