                               Psi4 1.9 release

  ==> Input File <==

--------------------------------------------------------------------------
MEMORY 60 GB

molecule dimer {
-1 1
Gh(K)      0.000000     0.000000     0.000000
Gh(Br)     0.000000     2.788700     0.000000
Br         3.067570     0.000000     0.000000

units ang
no_reorient
no_com
symmetry c1
}

set {
basis        aug-cc-pVTZ
scf_type     df
}

energy("mp2")
--------------------------------------------------------------------------

    Molecular point group: c1

    Geometry (in Angstrom), charge = -1, multiplicity = 1:

       Center              X                  Y                   Z               Mass
    ------------   -----------------  -----------------  -----------------  -----------------
      Gh(K)           0.000000000000     0.000000000000     0.000000000000    38.963706486400
      Gh(BR)          0.000000000000     2.788700000000     0.000000000000    78.918337600000
         BR           3.067570000000     0.000000000000     0.000000000000    78.918337600000

  Charge       = -1
  Multiplicity = 1
  Basis Set: AUG-CC-PVTZ
    Blend: AUG-CC-PVTZ
  Basis Set: (AUG-CC-PVTZ AUX)
    Blend: AUG-CC-PVTZ-JKFIT + DEF2-UNIVERSAL-JKFIT

    Orbital Energies [Eh]
    ---------------------

    Doubly Occupied:

       1A   -489.720791     2A    -64.860749     3A    -58.215237
       4A    -58.215236     5A    -58.215235     6A     -9.532943
       7A     -7.140289     8A     -7.140287     9A     -7.140277
      10A     -2.881964    11A     -2.881963    12A     -2.881962
      13A     -2.881961    14A     -2.881959    15A     -0.686000
      16A     -0.139341    17A     -0.139339    18A     -0.139338

  @DF-RHF Final Energy: -2572.53368106647804

   => Energetics <=

    Nuclear Repulsion Energy =              0.0000000000000000
    One-Electron Energy =               -3593.6776146887091272
    Two-Electron Energy =                1021.1439336222308611
    Total Energy =                      -2572.5336810664784934
 Dipole X            :       -208.6877444          202.8903510           -5.7973934
 Dipole Y            :          0.0000510            0.0000000            0.0000510
 Dipole Z            :         -0.0000000            0.0000000           -0.0000000
 Magnitude           :                                                    5.7973934
  Basis Set: (AUG-CC-PVTZ AUX)
    Blend: AUG-CC-PVTZ-RI + DEF2-QZVPP-RI
	 Reference Energy          =   -2572.5336810664780387 [Eh]
	 Singles Energy            =      -0.0000000000000000 [Eh]
	 Same-Spin Energy          =      -0.0876030314794752 [Eh]
	 Opposite-Spin Energy      =      -0.2029950201167414 [Eh]
	 Correlation Energy        =      -0.2905980515962166 [Eh]
	 Total Energy              =   -2572.8242791180741733 [Eh]

	 ================> DF-SCS-MP2 Energies <==================
	-----------------------------------------------------------
	 SCS Same-Spin Scale       =       0.3333333333333333 [-]
	 SCS Opposite-Spin Scale   =       1.2000000000000000 [-]
	 SCS Same-Spin Energy      =      -0.0292010104931584 [Eh]
	 SCS Opposite-Spin Energy  =      -0.2435940241400897 [Eh]
	 SCS Correlation Energy    =      -0.2727950346332481 [Eh]
	 SCS Total Energy          =   -2572.8064761011114570 [Eh]
	-----------------------------------------------------------

*** Psi4 exiting successfully. Buy a developer a beer!
