                               Psi4 1.9 release

  ==> Input File <==

--------------------------------------------------------------------------
MEMORY 60 GB

molecule dimer {
-1 1
K          0.000000     0.000000     0.000000
Br         0.000000     2.788700     0.000000
Br         4.183050     0.000000     0.000000

units ang
no_reorient
no_com
symmetry c1
}

set {
basis        aug-cc-pVTZ
scf_type     df
}

energy("mp2")
--------------------------------------------------------------------------

    Molecular point group: c1

    Geometry (in Angstrom), charge = -1, multiplicity = 1:

       Center              X                  Y                   Z               Mass
    ------------   -----------------  -----------------  -----------------  -----------------
         K            0.000000000000     0.000000000000     0.000000000000    38.963706486400
         BR           0.000000000000     2.788700000000     0.000000000000    78.918337600000
         BR           4.183050000000     0.000000000000     0.000000000000    78.918337600000

  Charge       = -1
  Multiplicity = 1
  Basis Set: AUG-CC-PVTZ
    Blend: AUG-CC-PVTZ
  Basis Set: (AUG-CC-PVTZ AUX)
    Blend: AUG-CC-PVTZ-JKFIT + DEF2-UNIVERSAL-JKFIT

    Orbital Energies [Eh]
    ---------------------

    Doubly Occupied:

       1A   -489.785477     2A   -489.742676     3A   -133.407363
       4A    -64.926166     5A    -64.882701     6A    -58.280633
       7A    -58.280622     8A    -58.280543     9A    -58.237228
      10A    -58.237163    11A    -58.237140    12A    -14.365019
      13A    -11.394760    14A    -11.394745    15A    -11.394664
      16A     -9.599064    17A     -9.554999    18A     -7.206706
      19A     -7.206514    20A     -7.206307    21A     -7.162600
      22A     -7.162268    23A     -7.162145    24A     -2.948327
      25A     -2.948301    26A     -2.948028    27A     -2.947931
      28A     -2.947838    29A     -2.904354    30A     -2.904252
      31A     -2.904101    32A     -2.903676    33A     -2.903664
      34A     -1.627585    35A     -0.843783    36A     -0.837409
      37A     -0.834667    38A     -0.752474    39A     -0.708138
      40A     -0.220117    41A     -0.210459    42A     -0.208917
      43A     -0.163623    44A     -0.160842    45A     -0.159789

  @DF-RHF Final Energy: -5744.27403661157950

   => Energetics <=

    Nuclear Repulsion Energy =            339.2565541315713062
    One-Electron Energy =               -8688.8696202748706128
    Two-Electron Energy =                2605.3390295317203709
    Total Energy =                      -5744.2740366115795041
 Dipole X            :       -283.9427348          276.6686604           -7.2740743
 Dipole Y            :       -188.7374836          184.4457736           -4.2917100
 Dipole Z            :          0.0000000            0.0000000            0.0000000
 Magnitude           :                                                    8.4457641
  Basis Set: (AUG-CC-PVTZ AUX)
    Blend: AUG-CC-PVTZ-RI + DEF2-QZVPP-RI
	 Reference Energy          =   -5744.2740366115795041 [Eh]
	 Singles Energy            =      -0.0000000000000000 [Eh]
	 Same-Spin Energy          =      -0.2069142565316008 [Eh]
	 Opposite-Spin Energy      =      -0.4752420949082385 [Eh]
	 Correlation Energy        =      -0.6821563514398392 [Eh]
	 Total Energy              =   -5744.9561929630190207 [Eh]

	 ================> DF-SCS-MP2 Energies <==================
	-----------------------------------------------------------
	 SCS Same-Spin Scale       =       0.3333333333333333 [-]
	 SCS Opposite-Spin Scale   =       1.2000000000000000 [-]
	 SCS Same-Spin Energy      =      -0.0689714188438669 [Eh]
	 SCS Opposite-Spin Energy  =      -0.5702905138898862 [Eh]
	 SCS Correlation Energy    =      -0.6392619327337531 [Eh]
	 SCS Total Energy          =   -5744.9132985443129655 [Eh]
	-----------------------------------------------------------

*** Psi4 exiting successfully. Buy a developer a beer!
