                               Psi4 1.9 release

  ==> Input File <==

--------------------------------------------------------------------------
MEMORY 60 GB

molecule dimer {
1 1
K      0.000000     0.000000     0.000000
--
-1 1
Br     0.000000     2.788700     0.000000
--
-1 1
Br     2.788700     0.000000     0.000000

units ang
no_reorient
no_com
symmetry c1
}

set {
basis        aug-cc-pVTZ
scf_type     df
}

energy("mp2", bsse_type="cp")
--------------------------------------------------------------------------

                               Psi4 1.9 release
    Molecular point group: c1
  Charge       = 1
  Multiplicity = 1
  Basis Set: AUG-CC-PVTZ
    Blend: AUG-CC-PVTZ
  Basis Set: (AUG-CC-PVTZ AUX)
    Blend: AUG-CC-PVTZ-JKFIT + DEF2-UNIVERSAL-JKFIT
  @DF-RHF Final Energy:  -599.01751011056388
    Total Energy =                       -599.0175101105638760
 Dipole X            :          0.0004368            0.0000000            0.0004368
 Dipole Y            :          0.0004368            0.0000000            0.0004368
 Dipole Z            :          0.0000000            0.0000000            0.0000000
 Magnitude           :                                                    0.0006177
  Basis Set: (AUG-CC-PVTZ AUX)
    Blend: AUG-CC-PVTZ-RI + DEF2-QZVPP-RI
	 Reference Energy          =    -599.0175101105638760 [Eh]
	 Singles Energy            =      -0.0000000000000000 [Eh]
	 Same-Spin Energy          =      -0.0305778717558513 [Eh]
	 Opposite-Spin Energy      =      -0.0723402702286609 [Eh]
	 Correlation Energy        =      -0.1029181419845122 [Eh]
	 Total Energy              =    -599.1204282525484359 [Eh]
	 SCS Total Energy          =    -599.1145110587568752 [Eh]
                               Psi4 1.9 release
    Molecular point group: c1
  Basis Set: AUG-CC-PVTZ
    Blend: AUG-CC-PVTZ
  Basis Set: (AUG-CC-PVTZ AUX)
    Blend: AUG-CC-PVTZ-JKFIT + DEF2-UNIVERSAL-JKFIT
  @DF-RHF Final Energy: -2572.53368295154723
    Total Energy =                      -2572.5336829515472346
  Basis Set: (AUG-CC-PVTZ AUX)
                               Psi4 1.9 release
  @DF-RHF Final Energy: -5144.94283754655862
    Total Energy =                      -5144.9428375465586214
                               Psi4 1.9 release
  @DF-RHF Final Energy: -3171.72020456414566
    Total Energy =                      -3171.7202045641456607
                               Psi4 1.9 release
  @DF-RHF Final Energy: -3171.72020456431164
    Total Energy =                      -3171.7202045643116435
                               Psi4 1.9 release
  Multiplicity = 1
  @DF-RHF Final Energy: -2572.53368295139671
    Total Energy =                      -2572.5336829513967132
	 Singles Energy            =      -0.0000000000000000 [Eh]
	 Same-Spin Energy          =      -0.0877020905835947 [Eh]
	 Opposite-Spin Energy      =      -0.2032355977508483 [Eh]
	 Correlation Energy        =      -0.2909376883344430 [Eh]
	 Total Energy              =   -2572.8246206397311653 [Eh]
	 SCS Total Energy          =   -2572.8067996988920640 [Eh]
                               Psi4 1.9 release
    Molecular point group: c1

    Geometry (in Bohr), charge = -1, multiplicity = 1:

       Center              X                  Y                   Z               Mass
    ------------   -----------------  -----------------  -----------------  -----------------
         K            0.000000000000     0.000000000000     0.000000000000    38.963706486400
         BR           0.000000000000     5.269879246064     0.000000000000    78.918337600000
         BR           5.269879246064     0.000000000000     0.000000000000    78.918337600000

  Charge       = -1
  Multiplicity = 1
  Basis Set: AUG-CC-PVTZ
    Blend: AUG-CC-PVTZ
  Basis Set: (AUG-CC-PVTZ AUX)
    Blend: AUG-CC-PVTZ-JKFIT + DEF2-UNIVERSAL-JKFIT

    Orbital Energies [Eh]
    ---------------------

    Doubly Occupied:

       1A   -489.758446     2A   -489.758446     3A   -133.340479
       4A    -64.899169     5A    -64.899169     6A    -58.253644
       7A    -58.253644     8A    -58.253628     9A    -58.253628
      10A    -58.253524    11A    -58.253524    12A    -14.299910
      13A    -11.329413    14A    -11.329400    15A    -11.329298
      16A     -9.572089    17A     -9.572088    18A     -7.179720
      19A     -7.179719    20A     -7.179605    21A     -7.179604
      22A     -7.179286    23A     -7.179285    24A     -2.921453
      25A     -2.921452    26A     -2.921441    27A     -2.921440
      28A     -2.920975    29A     -2.920971    30A     -2.920923
      31A     -2.920920    32A     -2.920752    33A     -2.920749
      34A     -1.568349    35A     -0.790926    36A     -0.789279
      37A     -0.779079    38A     -0.723436    39A     -0.719885
      40A     -0.200630    41A     -0.191921    42A     -0.187747
      43A     -0.187636    44A     -0.180996    45A     -0.167486

  @DF-RHF Final Energy: -5744.27837179418475

   => Energetics <=

    Nuclear Repulsion Energy =            416.7468938863702306
    One-Electron Energy =               -8845.2802030106759048
    Two-Electron Energy =                2684.2549373301217202
    Total Energy =                      -5744.2783717941847499
 Dipole X            :       -188.8190367          184.4457736           -4.3732630
 Dipole Y            :       -188.8190367          184.4457736           -4.3732630
 Dipole Z            :         -0.0000000            0.0000000           -0.0000000
 Magnitude           :                                                    6.1847279
  Basis Set: (AUG-CC-PVTZ AUX)
    Blend: AUG-CC-PVTZ-RI + DEF2-QZVPP-RI
	 Reference Energy          =   -5744.2783717941847499 [Eh]
	 Singles Energy            =      -0.0000000000000000 [Eh]
	 Same-Spin Energy          =      -0.2129489316765226 [Eh]
	 Opposite-Spin Energy      =      -0.4849562339741099 [Eh]
	 Correlation Energy        =      -0.6979051656506325 [Eh]
	 Total Energy              =   -5744.9762769598355590 [Eh]

	 ================> DF-SCS-MP2 Energies <==================
	-----------------------------------------------------------
	 SCS Same-Spin Scale       =       0.3333333333333333 [-]
	 SCS Opposite-Spin Scale   =       1.2000000000000000 [-]
	 SCS Same-Spin Energy      =      -0.0709829772255075 [Eh]
	 SCS Opposite-Spin Energy  =      -0.5819474807689319 [Eh]
	 SCS Correlation Energy    =      -0.6529304579944394 [Eh]
	 SCS Total Energy          =   -5744.9313022521791936 [Eh]
	-----------------------------------------------------------

*** Psi4 exiting successfully. Buy a developer a beer!
