                               Psi4 1.9 release

  ==> Input File <==

--------------------------------------------------------------------------
MEMORY 60 GB

molecule dimer {
-1 1
Gh(K)      0.000000     0.000000     0.000000
Gh(Br)     0.000000     2.788700     0.000000
Br         5.577400     0.000000     0.000000

units ang
no_reorient
no_com
symmetry c1
}

set {
basis        aug-cc-pVTZ
scf_type     df
}

energy("mp2")
--------------------------------------------------------------------------

    Molecular point group: c1

    Geometry (in Angstrom), charge = -1, multiplicity = 1:

       Center              X                  Y                   Z               Mass
    ------------   -----------------  -----------------  -----------------  -----------------
      Gh(K)           0.000000000000     0.000000000000     0.000000000000    38.963706486400
      Gh(BR)          0.000000000000     2.788700000000     0.000000000000    78.918337600000
         BR           5.577400000000     0.000000000000     0.000000000000    78.918337600000

  Charge       = -1
  Multiplicity = 1
  Basis Set: AUG-CC-PVTZ
    Blend: AUG-CC-PVTZ
  Basis Set: (AUG-CC-PVTZ AUX)
    Blend: AUG-CC-PVTZ-JKFIT + DEF2-UNIVERSAL-JKFIT

    Orbital Energies [Eh]
    ---------------------

    Doubly Occupied:

       1A   -489.720430     2A    -64.860498     3A    -58.214971
       4A    -58.214971     5A    -58.214970     6A     -9.532868
       7A     -7.140212     8A     -7.140212     9A     -7.140210
      10A     -2.881880    11A     -2.881880    12A     -2.881878
      13A     -2.881878    14A     -2.881875    15A     -0.686004
      16A     -0.139342    17A     -0.139342    18A     -0.139341

  @DF-RHF Final Energy: -2572.53366988963262

   => Energetics <=

    Nuclear Repulsion Energy =              0.0000000000000000
    One-Electron Energy =               -3593.6818146056812111
    Two-Electron Energy =                1021.1481447160488187
    Total Energy =                      -2572.5336698896326197
 Dipole X            :       -379.4314170          368.8915472          -10.5398697
 Dipole Y            :         -0.0000233            0.0000000           -0.0000233
 Dipole Z            :         -0.0000000            0.0000000           -0.0000000
 Magnitude           :                                                   10.5398697
  Basis Set: (AUG-CC-PVTZ AUX)
    Blend: AUG-CC-PVTZ-RI + DEF2-QZVPP-RI
	 Reference Energy          =   -2572.5336698896326197 [Eh]
	 Singles Energy            =      -0.0000000000000000 [Eh]
	 Same-Spin Energy          =      -0.0869008187794276 [Eh]
	 Opposite-Spin Energy      =      -0.2014707785684355 [Eh]
	 Correlation Energy        =      -0.2883715973478631 [Eh]
	 Total Energy              =   -2572.8220414869806518 [Eh]

	 ================> DF-SCS-MP2 Energies <==================
	-----------------------------------------------------------
	 SCS Same-Spin Scale       =       0.3333333333333333 [-]
	 SCS Opposite-Spin Scale   =       1.2000000000000000 [-]
	 SCS Same-Spin Energy      =      -0.0289669395931425 [Eh]
	 SCS Opposite-Spin Energy  =      -0.2417649342821226 [Eh]
	 SCS Correlation Energy    =      -0.2707318738752651 [Eh]
	 SCS Total Energy          =   -2572.8044017635079399 [Eh]
	-----------------------------------------------------------

*** Psi4 exiting successfully. Buy a developer a beer!
