                               Psi4 1.9 release

  ==> Input File <==

--------------------------------------------------------------------------
MEMORY 60 GB

molecule dimer {
0 1
K      0.000000     0.000000     0.000000
Br     0.000000     2.788700     0.000000
--
-1 1
Br     3.904180     0.000000     0.000000

units ang
no_reorient
no_com
symmetry c1
}

set {
basis        aug-cc-pVTZ
scf_type     df
}

energy("mp2", bsse_type="cp")
--------------------------------------------------------------------------

                               Psi4 1.9 release
    Molecular point group: c1
  Charge       = -1
  Multiplicity = 1
  Basis Set: AUG-CC-PVTZ
    Blend: AUG-CC-PVTZ
  Basis Set: (AUG-CC-PVTZ AUX)
    Blend: AUG-CC-PVTZ-JKFIT + DEF2-UNIVERSAL-JKFIT
  @DF-RHF Final Energy: -2572.53367600919864
    Total Energy =                      -2572.5336760091986434
 Dipole X            :       -265.6022307          258.2240831           -7.3781477
 Dipole Y            :          0.0000070            0.0000000            0.0000070
 Dipole Z            :         -0.0000000            0.0000000           -0.0000000
 Magnitude           :                                                    7.3781477
  Basis Set: (AUG-CC-PVTZ AUX)
    Blend: AUG-CC-PVTZ-RI + DEF2-QZVPP-RI
	 Reference Energy          =   -2572.5336760091986434 [Eh]
	 Singles Energy            =      -0.0000000000000000 [Eh]
	 Same-Spin Energy          =      -0.0872594893516556 [Eh]
	 Opposite-Spin Energy      =      -0.2022409402904363 [Eh]
	 Correlation Energy        =      -0.2895004296420919 [Eh]
	 Total Energy              =   -2572.8231764388406191 [Eh]
	 SCS Total Energy          =   -2572.8054516339975635 [Eh]
                               Psi4 1.9 release
    Molecular point group: c1
  Multiplicity = 1
  Basis Set: AUG-CC-PVTZ
    Blend: AUG-CC-PVTZ
  Basis Set: (AUG-CC-PVTZ AUX)
    Blend: AUG-CC-PVTZ-JKFIT + DEF2-UNIVERSAL-JKFIT
  @DF-RHF Final Energy: -3171.72016413113079
    Total Energy =                      -3171.7201641311303320
  Basis Set: (AUG-CC-PVTZ AUX)
	 Singles Energy            =      -0.0000000000000000 [Eh]
	 Same-Spin Energy          =      -0.1191535916978207 [Eh]
	 Opposite-Spin Energy      =      -0.2727472422062355 [Eh]
	 Correlation Energy        =      -0.3919008339040562 [Eh]
	 Total Energy              =   -3172.1120649650347332 [Eh]
	 SCS Total Energy          =   -3172.0871786856773724 [Eh]
                               Psi4 1.9 release
    Molecular point group: c1

    Geometry (in Bohr), charge = -1, multiplicity = 1:

       Center              X                  Y                   Z               Mass
    ------------   -----------------  -----------------  -----------------  -----------------
         K            0.000000000000     0.000000000000     0.000000000000    38.963706486400
         BR           0.000000000000     5.269879246064     0.000000000000    78.918337600000
         BR           7.377830944490     0.000000000000     0.000000000000    78.918337600000

  Charge       = -1
  Multiplicity = 1
  Basis Set: AUG-CC-PVTZ
    Blend: AUG-CC-PVTZ
  Basis Set: (AUG-CC-PVTZ AUX)
    Blend: AUG-CC-PVTZ-JKFIT + DEF2-UNIVERSAL-JKFIT

    Orbital Energies [Eh]
    ---------------------

    Doubly Occupied:

       1A   -489.780374     2A   -489.746154     3A   -133.398083
       4A    -64.921065     5A    -64.886177     6A    -58.275534
       7A    -58.275523     8A    -58.275439     9A    -58.240709
      10A    -58.240643    11A    -58.240614    12A    -14.355765
      13A    -11.385509    14A    -11.385492    15A    -11.385393
      16A     -9.593962    17A     -9.558464    18A     -7.201606
      19A     -7.201423    20A     -7.201193    21A     -7.166096
      22A     -7.165737    23A     -7.165588    24A     -2.943245
      25A     -2.943223    26A     -2.942915    27A     -2.942819
      28A     -2.942713    29A     -2.907860    30A     -2.907752
      31A     -2.907569    32A     -2.907111    33A     -2.907095
      34A     -1.618435    35A     -0.835241    36A     -0.828434
      37A     -0.825234    38A     -0.747028    39A     -0.711896
      40A     -0.214998    41A     -0.205497    42A     -0.204149
      43A     -0.168146    44A     -0.164395    45A     -0.162904

  @DF-RHF Final Energy: -5744.27759563819563

   => Energetics <=

    Nuclear Repulsion Energy =            351.4343879300560047
    One-Electron Energy =               -8713.4535582057505962
    Two-Electron Energy =                2617.7415746374986156
    Total Energy =                      -5744.2775956381956348
 Dipole X            :       -264.9037529          258.2240831           -6.6796699
 Dipole Y            :       -188.7466609          184.4457736           -4.3008873
 Dipole Z            :          0.0000000            0.0000000            0.0000000
 Magnitude           :                                                    7.9445341
  Basis Set: (AUG-CC-PVTZ AUX)
    Blend: AUG-CC-PVTZ-RI + DEF2-QZVPP-RI
	 Reference Energy          =   -5744.2775956381956348 [Eh]
	 Singles Energy            =      -0.0000000000000000 [Eh]
	 Same-Spin Energy          =      -0.2074139879938559 [Eh]
	 Opposite-Spin Energy      =      -0.4760674592562947 [Eh]
	 Correlation Energy        =      -0.6834814472501506 [Eh]
	 Total Energy              =   -5744.9610770854460498 [Eh]

	 ================> DF-SCS-MP2 Energies <==================
	-----------------------------------------------------------
	 SCS Same-Spin Scale       =       0.3333333333333333 [-]
	 SCS Opposite-Spin Scale   =       1.2000000000000000 [-]
	 SCS Same-Spin Energy      =      -0.0691379959979520 [Eh]
	 SCS Opposite-Spin Energy  =      -0.5712809511075536 [Eh]
	 SCS Correlation Energy    =      -0.6404189471055055 [Eh]
	 SCS Total Energy          =   -5744.9180145853015347 [Eh]
	-----------------------------------------------------------

*** Psi4 exiting successfully. Buy a developer a beer!
