                               Psi4 1.9 release

  ==> Input File <==

--------------------------------------------------------------------------
MEMORY 60 GB

molecule dimer {
1 1
K      0.000000     0.000000     0.000000
--
-1 1
Br     0.000000     2.788700     0.000000
--
-1 1
Br     5.577400     0.000000     0.000000

units ang
no_reorient
no_com
symmetry c1
}

set {
basis        aug-cc-pVTZ
scf_type     df
}

energy("mp2", bsse_type="cp")
--------------------------------------------------------------------------

                               Psi4 1.9 release
    Molecular point group: c1
  Charge       = 1
  Multiplicity = 1
  Basis Set: AUG-CC-PVTZ
    Blend: AUG-CC-PVTZ
  Basis Set: (AUG-CC-PVTZ AUX)
    Blend: AUG-CC-PVTZ-JKFIT + DEF2-UNIVERSAL-JKFIT
  @DF-RHF Final Energy:  -599.01750807356359
    Total Energy =                       -599.0175080735635902
 Dipole X            :          0.0000070            0.0000000            0.0000070
 Dipole Y            :          0.0005254            0.0000000            0.0005254
 Dipole Z            :          0.0000000            0.0000000            0.0000000
 Magnitude           :                                                    0.0005254
  Basis Set: (AUG-CC-PVTZ AUX)
    Blend: AUG-CC-PVTZ-RI + DEF2-QZVPP-RI
	 Reference Energy          =    -599.0175080735635902 [Eh]
	 Singles Energy            =      -0.0000000000000000 [Eh]
	 Same-Spin Energy          =      -0.0280013699258275 [Eh]
	 Opposite-Spin Energy      =      -0.0653721770647235 [Eh]
	 Correlation Energy        =      -0.0933735469905510 [Eh]
	 Total Energy              =    -599.1108816205540961 [Eh]
	 SCS Total Energy          =    -599.1052884760165398 [Eh]
                               Psi4 1.9 release
    Molecular point group: c1
  Basis Set: AUG-CC-PVTZ
    Blend: AUG-CC-PVTZ
  Basis Set: (AUG-CC-PVTZ AUX)
    Blend: AUG-CC-PVTZ-JKFIT + DEF2-UNIVERSAL-JKFIT
  @DF-RHF Final Energy: -2572.53368037298424
    Total Energy =                      -2572.5336803729842359
  Basis Set: (AUG-CC-PVTZ AUX)
                               Psi4 1.9 release
  @DF-RHF Final Energy: -5144.98459954714781
    Total Energy =                      -5144.9845995471478091
                               Psi4 1.9 release
  @DF-RHF Final Energy: -3171.64838289096633
    Total Energy =                      -3171.6483828909667864
                               Psi4 1.9 release
  @DF-RHF Final Energy: -3171.72013804549351
    Total Energy =                      -3171.7201380454935133
                               Psi4 1.9 release
  Multiplicity = 1
  @DF-RHF Final Energy: -2572.53366988962898
    Total Energy =                      -2572.5336698896289818
	 Singles Energy            =      -0.0000000000000000 [Eh]
	 Same-Spin Energy          =      -0.0869008187794287 [Eh]
	 Opposite-Spin Energy      =      -0.2014707785684426 [Eh]
	 Correlation Energy        =      -0.2883715973478713 [Eh]
	 Total Energy              =   -2572.8220414869770138 [Eh]
	 SCS Total Energy          =   -2572.8044017635043019 [Eh]
                               Psi4 1.9 release
    Molecular point group: c1

    Geometry (in Bohr), charge = -1, multiplicity = 1:

       Center              X                  Y                   Z               Mass
    ------------   -----------------  -----------------  -----------------  -----------------
         K            0.000000000000     0.000000000000     0.000000000000    38.963706486400
         BR           0.000000000000     5.269879246064     0.000000000000    78.918337600000
         BR          10.539758492128     0.000000000000     0.000000000000    78.918337600000

  Charge       = -1
  Multiplicity = 1
  Basis Set: AUG-CC-PVTZ
    Blend: AUG-CC-PVTZ
  Basis Set: (AUG-CC-PVTZ AUX)
    Blend: AUG-CC-PVTZ-JKFIT + DEF2-UNIVERSAL-JKFIT

    Orbital Energies [Eh]
    ---------------------

    Doubly Occupied:

       1A   -489.806544     2A   -489.730687     3A   -133.438670
       4A    -64.947235     5A    -64.870757     6A    -58.301692
       7A    -58.301683     8A    -58.301622     9A    -58.225250
      10A    -58.225222    11A    -58.225212    12A    -14.396420
      13A    -11.426132    14A    -11.426120    15A    -11.426087
      16A     -9.620143    17A     -9.543132    18A     -7.227768
      19A     -7.227552    20A     -7.227432    21A     -7.150587
      22A     -7.150441    23A     -7.150389    24A     -2.969326
      25A     -2.969288    26A     -2.969139    27A     -2.969052
      28A     -2.969003    29A     -2.892287    30A     -2.892244
      31A     -2.892179    32A     -2.891999    33A     -2.891994
      34A     -1.659193    35A     -0.873929    36A     -0.868548
      37A     -0.867382    38A     -0.774337    39A     -0.696172
      40A     -0.241300    41A     -0.231116    42A     -0.229972
      43A     -0.150090    44A     -0.149342    45A     -0.148974

  @DF-RHF Final Energy: -5744.26287054208296

   => Energetics <=

    Nuclear Repulsion Energy =            293.2394808935265473
    One-Electron Energy =               -8595.9174254487734288
    Two-Electron Energy =                2558.4150740131640305
    Total Energy =                      -5744.2628705420829647
 Dipole X            :       -379.0689893          368.8915472          -10.1774420
 Dipole Y            :       -188.7219478          184.4457736           -4.2761742
 Dipole Z            :         -0.0000000            0.0000000           -0.0000000
 Magnitude           :                                                   11.0392931
  Basis Set: (AUG-CC-PVTZ AUX)
    Blend: AUG-CC-PVTZ-RI + DEF2-QZVPP-RI
	 Reference Energy          =   -5744.2628705420829647 [Eh]
	 Singles Energy            =      -0.0000000000000000 [Eh]
	 Same-Spin Energy          =      -0.2054390178226447 [Eh]
	 Opposite-Spin Energy      =      -0.4723971223066581 [Eh]
	 Correlation Energy        =      -0.6778361401293028 [Eh]
	 Total Energy              =   -5744.9407066822122943 [Eh]

	 ================> DF-SCS-MP2 Energies <==================
	-----------------------------------------------------------
	 SCS Same-Spin Scale       =       0.3333333333333333 [-]
	 SCS Opposite-Spin Scale   =       1.2000000000000000 [-]
	 SCS Same-Spin Energy      =      -0.0684796726075482 [Eh]
	 SCS Opposite-Spin Energy  =      -0.5668765467679897 [Eh]
	 SCS Correlation Energy    =      -0.6353562193755380 [Eh]
	 SCS Total Energy          =   -5744.8982267614583179 [Eh]
	-----------------------------------------------------------

*** Psi4 exiting successfully. Buy a developer a beer!
