                               Psi4 1.9 release

  ==> Input File <==

--------------------------------------------------------------------------
MEMORY 60 GB

molecule dimer {
1 1
K      0.000000     0.000000     0.000000
--
-1 1
Br     0.000000     2.788700     0.000000
--
-1 1
Br     3.904180     0.000000     0.000000

units ang
no_reorient
no_com
symmetry c1
}

set {
basis        aug-cc-pVTZ
scf_type     df
}

energy("mp2", bsse_type="cp")
--------------------------------------------------------------------------

                               Psi4 1.9 release
    Molecular point group: c1
  Charge       = 1
  Multiplicity = 1
  Basis Set: AUG-CC-PVTZ
    Blend: AUG-CC-PVTZ
  Basis Set: (AUG-CC-PVTZ AUX)
    Blend: AUG-CC-PVTZ-JKFIT + DEF2-UNIVERSAL-JKFIT
  @DF-RHF Final Energy:  -599.01750916038736
    Total Energy =                       -599.0175091603872488
 Dipole X            :          0.0002409            0.0000000            0.0002409
 Dipole Y            :          0.0004527            0.0000000            0.0004527
 Dipole Z            :          0.0000000            0.0000000            0.0000000
 Magnitude           :                                                    0.0005128
  Basis Set: (AUG-CC-PVTZ AUX)
    Blend: AUG-CC-PVTZ-RI + DEF2-QZVPP-RI
	 Reference Energy          =    -599.0175091603873625 [Eh]
	 Singles Energy            =      -0.0000000000000000 [Eh]
	 Same-Spin Energy          =      -0.0286622518278465 [Eh]
	 Opposite-Spin Energy      =      -0.0671609438734630 [Eh]
	 Correlation Energy        =      -0.0958231957013095 [Eh]
	 Total Energy              =    -599.1133323560886765 [Eh]
	 SCS Total Energy          =    -599.1076563769781842 [Eh]
                               Psi4 1.9 release
    Molecular point group: c1
  Basis Set: AUG-CC-PVTZ
    Blend: AUG-CC-PVTZ
  Basis Set: (AUG-CC-PVTZ AUX)
    Blend: AUG-CC-PVTZ-JKFIT + DEF2-UNIVERSAL-JKFIT
  @DF-RHF Final Energy: -2572.53368149112430
    Total Energy =                      -2572.5336814911242982
  Basis Set: (AUG-CC-PVTZ AUX)
                               Psi4 1.9 release
  @DF-RHF Final Energy: -5144.96265232228961
    Total Energy =                      -5144.9626523222887045
                               Psi4 1.9 release
  @DF-RHF Final Energy: -3171.69295116511375
    Total Energy =                      -3171.6929511651142093
                               Psi4 1.9 release
  @DF-RHF Final Energy: -3171.72016413113170
    Total Energy =                      -3171.7201641311316962
                               Psi4 1.9 release
  Multiplicity = 1
  @DF-RHF Final Energy: -2572.53367600919910
    Total Energy =                      -2572.5336760091995529
	 Singles Energy            =      -0.0000000000000000 [Eh]
	 Same-Spin Energy          =      -0.0872594893516542 [Eh]
	 Opposite-Spin Energy      =      -0.2022409402904321 [Eh]
	 Correlation Energy        =      -0.2895004296420863 [Eh]
	 Total Energy              =   -2572.8231764388410738 [Eh]
	 SCS Total Energy          =   -2572.8054516339980182 [Eh]
                               Psi4 1.9 release
    Molecular point group: c1

    Geometry (in Bohr), charge = -1, multiplicity = 1:

       Center              X                  Y                   Z               Mass
    ------------   -----------------  -----------------  -----------------  -----------------
         K            0.000000000000     0.000000000000     0.000000000000    38.963706486400
         BR           0.000000000000     5.269879246064     0.000000000000    78.918337600000
         BR           7.377830944490     0.000000000000     0.000000000000    78.918337600000

  Charge       = -1
  Multiplicity = 1
  Basis Set: AUG-CC-PVTZ
    Blend: AUG-CC-PVTZ
  Basis Set: (AUG-CC-PVTZ AUX)
    Blend: AUG-CC-PVTZ-JKFIT + DEF2-UNIVERSAL-JKFIT

    Orbital Energies [Eh]
    ---------------------

    Doubly Occupied:

       1A   -489.780374     2A   -489.746154     3A   -133.398083
       4A    -64.921065     5A    -64.886177     6A    -58.275534
       7A    -58.275523     8A    -58.275439     9A    -58.240709
      10A    -58.240643    11A    -58.240614    12A    -14.355765
      13A    -11.385509    14A    -11.385492    15A    -11.385393
      16A     -9.593962    17A     -9.558464    18A     -7.201606
      19A     -7.201423    20A     -7.201193    21A     -7.166096
      22A     -7.165737    23A     -7.165588    24A     -2.943245
      25A     -2.943223    26A     -2.942915    27A     -2.942819
      28A     -2.942713    29A     -2.907860    30A     -2.907752
      31A     -2.907569    32A     -2.907111    33A     -2.907095
      34A     -1.618435    35A     -0.835241    36A     -0.828434
      37A     -0.825234    38A     -0.747028    39A     -0.711896
      40A     -0.214998    41A     -0.205497    42A     -0.204149
      43A     -0.168146    44A     -0.164395    45A     -0.162904

  @DF-RHF Final Energy: -5744.27759563819200

   => Energetics <=

    Nuclear Repulsion Energy =            351.4343879300560047
    One-Electron Energy =               -8713.4535582081134635
    Two-Electron Energy =                2617.7415746398646661
    Total Energy =                      -5744.2775956381929063
 Dipole X            :       -264.9037529          258.2240831           -6.6796699
 Dipole Y            :       -188.7466609          184.4457736           -4.3008873
 Dipole Z            :          0.0000000            0.0000000            0.0000000
 Magnitude           :                                                    7.9445341
  Basis Set: (AUG-CC-PVTZ AUX)
    Blend: AUG-CC-PVTZ-RI + DEF2-QZVPP-RI
	 Reference Energy          =   -5744.2775956381919968 [Eh]
	 Singles Energy            =      -0.0000000000000000 [Eh]
	 Same-Spin Energy          =      -0.2074139879932414 [Eh]
	 Opposite-Spin Energy      =      -0.4760674592555243 [Eh]
	 Correlation Energy        =      -0.6834814472487657 [Eh]
	 Total Energy              =   -5744.9610770854405928 [Eh]

	 ================> DF-SCS-MP2 Energies <==================
	-----------------------------------------------------------
	 SCS Same-Spin Scale       =       0.3333333333333333 [-]
	 SCS Opposite-Spin Scale   =       1.2000000000000000 [-]
	 SCS Same-Spin Energy      =      -0.0691379959977471 [Eh]
	 SCS Opposite-Spin Energy  =      -0.5712809511066291 [Eh]
	 SCS Correlation Energy    =      -0.6404189471043763 [Eh]
	 SCS Total Energy          =   -5744.9180145852960777 [Eh]
	-----------------------------------------------------------

*** Psi4 exiting successfully. Buy a developer a beer!
