                               Psi4 1.9 release

  ==> Input File <==

--------------------------------------------------------------------------
MEMORY 60 GB

molecule dimer {
-1 1
K          0.000000     0.000000     0.000000
Br         0.000000     2.788700     0.000000
Br         2.788700     0.000000     0.000000

units ang
no_reorient
no_com
symmetry c1
}

set {
basis        aug-cc-pVTZ
scf_type     df
}

energy("mp2")
--------------------------------------------------------------------------

    Molecular point group: c1

    Geometry (in Angstrom), charge = -1, multiplicity = 1:

       Center              X                  Y                   Z               Mass
    ------------   -----------------  -----------------  -----------------  -----------------
         K            0.000000000000     0.000000000000     0.000000000000    38.963706486400
         BR           0.000000000000     2.788700000000     0.000000000000    78.918337600000
         BR           2.788700000000     0.000000000000     0.000000000000    78.918337600000

  Charge       = -1
  Multiplicity = 1
  Basis Set: AUG-CC-PVTZ
    Blend: AUG-CC-PVTZ
  Basis Set: (AUG-CC-PVTZ AUX)
    Blend: AUG-CC-PVTZ-JKFIT + DEF2-UNIVERSAL-JKFIT

    Orbital Energies [Eh]
    ---------------------

    Doubly Occupied:

       1A   -489.758446     2A   -489.758446     3A   -133.340479
       4A    -64.899169     5A    -64.899169     6A    -58.253644
       7A    -58.253644     8A    -58.253628     9A    -58.253628
      10A    -58.253524    11A    -58.253524    12A    -14.299910
      13A    -11.329413    14A    -11.329400    15A    -11.329298
      16A     -9.572089    17A     -9.572088    18A     -7.179720
      19A     -7.179719    20A     -7.179605    21A     -7.179604
      22A     -7.179286    23A     -7.179285    24A     -2.921453
      25A     -2.921452    26A     -2.921441    27A     -2.921440
      28A     -2.920975    29A     -2.920971    30A     -2.920923
      31A     -2.920920    32A     -2.920752    33A     -2.920749
      34A     -1.568349    35A     -0.790926    36A     -0.789279
      37A     -0.779079    38A     -0.723436    39A     -0.719885
      40A     -0.200630    41A     -0.191921    42A     -0.187747
      43A     -0.187636    44A     -0.180996    45A     -0.167486

  @DF-RHF Final Energy: -5744.27837179418839

   => Energetics <=

    Nuclear Repulsion Energy =            416.7468938863702306
    One-Electron Energy =               -8845.2802030103193829
    Two-Electron Energy =                2684.2549373297611055
    Total Energy =                      -5744.2783717941892974
 Dipole X            :       -188.8190367          184.4457736           -4.3732630
 Dipole Y            :       -188.8190367          184.4457736           -4.3732630
 Dipole Z            :         -0.0000000            0.0000000           -0.0000000
 Magnitude           :                                                    6.1847279
  Basis Set: (AUG-CC-PVTZ AUX)
    Blend: AUG-CC-PVTZ-RI + DEF2-QZVPP-RI
	 Reference Energy          =   -5744.2783717941883879 [Eh]
	 Singles Energy            =      -0.0000000000000000 [Eh]
	 Same-Spin Energy          =      -0.2129489316764354 [Eh]
	 Opposite-Spin Energy      =      -0.4849562339740797 [Eh]
	 Correlation Energy        =      -0.6979051656505151 [Eh]
	 Total Energy              =   -5744.9762769598391969 [Eh]

	 ================> DF-SCS-MP2 Energies <==================
	-----------------------------------------------------------
	 SCS Same-Spin Scale       =       0.3333333333333333 [-]
	 SCS Opposite-Spin Scale   =       1.2000000000000000 [-]
	 SCS Same-Spin Energy      =      -0.0709829772254785 [Eh]
	 SCS Opposite-Spin Energy  =      -0.5819474807688957 [Eh]
	 SCS Correlation Energy    =      -0.6529304579943742 [Eh]
	 SCS Total Energy          =   -5744.9313022521828316 [Eh]
	-----------------------------------------------------------

*** Psi4 exiting successfully. Buy a developer a beer!
