                               Psi4 1.9 release

  ==> Input File <==

--------------------------------------------------------------------------
MEMORY 60 GB

molecule dimer {
0 1
K      0.000000     0.000000     0.000000
Br     0.000000     2.788700     0.000000
--
-1 1
Br     3.625310     0.000000     0.000000

units ang
no_reorient
no_com
symmetry c1
}

set {
basis        aug-cc-pVTZ
scf_type     df
}

energy("mp2", bsse_type="cp")
--------------------------------------------------------------------------

                               Psi4 1.9 release
    Molecular point group: c1
  Charge       = -1
  Multiplicity = 1
  Basis Set: AUG-CC-PVTZ
    Blend: AUG-CC-PVTZ
  Basis Set: (AUG-CC-PVTZ AUX)
    Blend: AUG-CC-PVTZ-JKFIT + DEF2-UNIVERSAL-JKFIT
  @DF-RHF Final Energy: -2572.53367758594641
    Total Energy =                      -2572.5336775859459522
 Dipole X            :       -246.6306851          239.7795057           -6.8511794
 Dipole Y            :          0.0000441            0.0000000            0.0000441
 Dipole Z            :         -0.0000000            0.0000000           -0.0000000
 Magnitude           :                                                    6.8511794
  Basis Set: (AUG-CC-PVTZ AUX)
    Blend: AUG-CC-PVTZ-RI + DEF2-QZVPP-RI
	 Reference Energy          =   -2572.5336775859464069 [Eh]
	 Singles Energy            =      -0.0000000000000000 [Eh]
	 Same-Spin Energy          =      -0.0873723663357814 [Eh]
	 Opposite-Spin Energy      =      -0.2024840304596501 [Eh]
	 Correlation Energy        =      -0.2898563967954315 [Eh]
	 Total Energy              =   -2572.8235339827419921 [Eh]
	 SCS Total Energy          =   -2572.8057825446098832 [Eh]
                               Psi4 1.9 release
    Molecular point group: c1
  Multiplicity = 1
  Basis Set: AUG-CC-PVTZ
    Blend: AUG-CC-PVTZ
  Basis Set: (AUG-CC-PVTZ AUX)
    Blend: AUG-CC-PVTZ-JKFIT + DEF2-UNIVERSAL-JKFIT
  @DF-RHF Final Energy: -3171.72016855874153
    Total Energy =                      -3171.7201685587415341
  Basis Set: (AUG-CC-PVTZ AUX)
	 Singles Energy            =      -0.0000000000000000 [Eh]
	 Same-Spin Energy          =      -0.1193428077992513 [Eh]
	 Opposite-Spin Energy      =      -0.2732300736516378 [Eh]
	 Correlation Energy        =      -0.3925728814508891 [Eh]
	 Total Energy              =   -3172.1127414401926217 [Eh]
	 SCS Total Energy          =   -3172.0878255830566559 [Eh]
                               Psi4 1.9 release
    Molecular point group: c1

    Geometry (in Bohr), charge = -1, multiplicity = 1:

       Center              X                  Y                   Z               Mass
    ------------   -----------------  -----------------  -----------------  -----------------
         K            0.000000000000     0.000000000000     0.000000000000    38.963706486400
         BR           0.000000000000     5.269879246064     0.000000000000    78.918337600000
         BR           6.850843019884     0.000000000000     0.000000000000    78.918337600000

  Charge       = -1
  Multiplicity = 1
  Basis Set: AUG-CC-PVTZ
    Blend: AUG-CC-PVTZ
  Basis Set: (AUG-CC-PVTZ AUX)
    Blend: AUG-CC-PVTZ-JKFIT + DEF2-UNIVERSAL-JKFIT

    Orbital Energies [Eh]
    ---------------------

    Doubly Occupied:

       1A   -489.775023     2A   -489.749785     3A   -133.387327
       4A    -64.915719     5A    -64.889834     6A    -58.270189
       7A    -58.270178     8A    -58.270088     9A    -58.244367
      10A    -58.244306    11A    -58.244270    12A    -14.345086
      13A    -11.374824    14A    -11.374807    15A    -11.374689
      16A     -9.588617    17A     -9.562134    18A     -7.196263
      19A     -7.196091    20A     -7.195837    21A     -7.169788
      22A     -7.169429    23A     -7.169247    24A     -2.937923
      25A     -2.937904    26A     -2.937557    27A     -2.937465
      28A     -2.937344    29A     -2.911555    30A     -2.911454
      31A     -2.911228    32A     -2.910776    33A     -2.910752
      34A     -1.608028    35A     -0.825636    36A     -0.818237
      37A     -0.814699    38A     -0.741222    39A     -0.716117
      40A     -0.209724    41A     -0.200338    42A     -0.199606
      43A     -0.173336    44A     -0.168405    45A     -0.166058

  @DF-RHF Final Energy: -5744.28134338688415

   => Energetics <=

    Nuclear Repulsion Energy =            364.9863789603588202
    One-Electron Energy =               -8740.8089164955126762
    Two-Electron Energy =                2631.5411941482698239
    Total Energy =                      -5744.2813433868841457
 Dipole X            :       -245.8664372          239.7795057           -6.0869315
 Dipole Y            :       -188.7593334          184.4457736           -4.3135598
 Dipole Z            :          0.0000000            0.0000000            0.0000000
 Magnitude           :                                                    7.4603977
  Basis Set: (AUG-CC-PVTZ AUX)
    Blend: AUG-CC-PVTZ-RI + DEF2-QZVPP-RI
	 Reference Energy          =   -5744.2813433868841457 [Eh]
	 Singles Energy            =      -0.0000000000000000 [Eh]
	 Same-Spin Energy          =      -0.2080969257434018 [Eh]
	 Opposite-Spin Energy      =      -0.4771390250592918 [Eh]
	 Correlation Energy        =      -0.6852359508026936 [Eh]
	 Total Energy              =   -5744.9665793376871079 [Eh]

	 ================> DF-SCS-MP2 Energies <==================
	-----------------------------------------------------------
	 SCS Same-Spin Scale       =       0.3333333333333333 [-]
	 SCS Opposite-Spin Scale   =       1.2000000000000000 [-]
	 SCS Same-Spin Energy      =      -0.0693656419144673 [Eh]
	 SCS Opposite-Spin Energy  =      -0.5725668300711502 [Eh]
	 SCS Correlation Energy    =      -0.6419324719856174 [Eh]
	 SCS Total Energy          =   -5744.9232758588696015 [Eh]
	-----------------------------------------------------------

*** Psi4 exiting successfully. Buy a developer a beer!
