                               Psi4 1.9 release

  ==> Input File <==

--------------------------------------------------------------------------
MEMORY 60 GB

molecule dimer {
-1 1
K          0.000000     0.000000     0.000000
Br         0.000000     2.788700     0.000000
Br         3.067570     0.000000     0.000000

units ang
no_reorient
no_com
symmetry c1
}

set {
basis        aug-cc-pVTZ
scf_type     df
}

energy("mp2")
--------------------------------------------------------------------------

    Molecular point group: c1

    Geometry (in Angstrom), charge = -1, multiplicity = 1:

       Center              X                  Y                   Z               Mass
    ------------   -----------------  -----------------  -----------------  -----------------
         K            0.000000000000     0.000000000000     0.000000000000    38.963706486400
         BR           0.000000000000     2.788700000000     0.000000000000    78.918337600000
         BR           3.067570000000     0.000000000000     0.000000000000    78.918337600000

  Charge       = -1
  Multiplicity = 1
  Basis Set: AUG-CC-PVTZ
    Blend: AUG-CC-PVTZ
  Basis Set: (AUG-CC-PVTZ AUX)
    Blend: AUG-CC-PVTZ-JKFIT + DEF2-UNIVERSAL-JKFIT

    Orbital Energies [Eh]
    ---------------------

    Doubly Occupied:

       1A   -489.763912     2A   -489.756302     3A   -133.359356
       4A    -64.904624     5A    -64.896639     6A    -58.259098
       7A    -58.259085     8A    -58.258983     9A    -58.251135
      10A    -58.251123    11A    -58.251050    12A    -14.317777
      13A    -11.347426    14A    -11.347408    15A    -11.347275
      16A     -9.577535    17A     -9.569193    18A     -7.185176
      19A     -7.185036    20A     -7.184735    21A     -7.176845
      22A     -7.176615    23A     -7.176343    24A     -2.926883
      25A     -2.926869    26A     -2.926440    27A     -2.926367
      28A     -2.926213    29A     -2.918575    30A     -2.918539
      31A     -2.918183    32A     -2.917948    33A     -2.917870
      34A     -1.582912    35A     -0.802977    36A     -0.793575
      37A     -0.793204    38A     -0.728869    39A     -0.723591
      40A     -0.200881    41A     -0.193304    42A     -0.190141
      43A     -0.184426    44A     -0.177667    45A     -0.169431

  @DF-RHF Final Energy: -5744.28510778221244

   => Energetics <=

    Nuclear Repulsion Energy =            397.2708916915882469
    One-Electron Energy =               -8805.9769212577612052
    Two-Electron Energy =                2664.4209217839602388
    Total Energy =                      -5744.2851077822124353
 Dipole X            :       -207.8182004          202.8903510           -4.9278494
 Dipole Y            :       -188.7962816          184.4457736           -4.3505080
 Dipole Z            :          0.0000000            0.0000000            0.0000000
 Magnitude           :                                                    6.5734785
  Basis Set: (AUG-CC-PVTZ AUX)
    Blend: AUG-CC-PVTZ-RI + DEF2-QZVPP-RI
	 Reference Energy          =   -5744.2851077822124353 [Eh]
	 Singles Energy            =      -0.0000000000000000 [Eh]
	 Same-Spin Energy          =      -0.2106308121676654 [Eh]
	 Opposite-Spin Energy      =      -0.4811801123880363 [Eh]
	 Correlation Energy        =      -0.6918109245557017 [Eh]
	 Total Energy              =   -5744.9769187067677194 [Eh]

	 ================> DF-SCS-MP2 Energies <==================
	-----------------------------------------------------------
	 SCS Same-Spin Scale       =       0.3333333333333333 [-]
	 SCS Opposite-Spin Scale   =       1.2000000000000000 [-]
	 SCS Same-Spin Energy      =      -0.0702102707225551 [Eh]
	 SCS Opposite-Spin Energy  =      -0.5774161348656436 [Eh]
	 SCS Correlation Energy    =      -0.6476264055881987 [Eh]
	 SCS Total Energy          =   -5744.9327341878006337 [Eh]
	-----------------------------------------------------------

*** Psi4 exiting successfully. Buy a developer a beer!
