                               Psi4 1.9 release

  ==> Input File <==

--------------------------------------------------------------------------
MEMORY 60 GB

molecule dimer {
-1 1
Gh(K)      0.000000     0.000000     0.000000
Br         0.000000     2.788700     0.000000
Gh(Br)     4.183050     0.000000     0.000000

units ang
no_reorient
no_com
symmetry c1
}

set {
basis        aug-cc-pVTZ
scf_type     df
}

energy("mp2")
--------------------------------------------------------------------------

    Molecular point group: c1

    Geometry (in Angstrom), charge = -1, multiplicity = 1:

       Center              X                  Y                   Z               Mass
    ------------   -----------------  -----------------  -----------------  -----------------
      Gh(K)           0.000000000000     0.000000000000     0.000000000000    38.963706486400
         BR           0.000000000000     2.788700000000     0.000000000000    78.918337600000
      Gh(BR)          4.183050000000     0.000000000000     0.000000000000    78.918337600000

  Charge       = -1
  Multiplicity = 1
  Basis Set: AUG-CC-PVTZ
    Blend: AUG-CC-PVTZ
  Basis Set: (AUG-CC-PVTZ AUX)
    Blend: AUG-CC-PVTZ-JKFIT + DEF2-UNIVERSAL-JKFIT

    Orbital Energies [Eh]
    ---------------------

    Doubly Occupied:

       1A   -489.720792     2A    -64.860752     3A    -58.215240
       4A    -58.215239     5A    -58.215237     6A     -9.532943
       7A     -7.140289     8A     -7.140287     9A     -7.140281
      10A     -2.881966    11A     -2.881965    12A     -2.881962
      13A     -2.881959    14A     -2.881958    15A     -0.685999
      16A     -0.139341    17A     -0.139339    18A     -0.139339

  @DF-RHF Final Energy: -2572.53368138563974

   => Energetics <=

    Nuclear Repulsion Energy =              0.0000000000000000
    One-Electron Energy =               -3593.6775835596190518
    Two-Electron Energy =                1021.1439021739793134
    Total Energy =                      -2572.5336813856397384
 Dipole X            :          0.0000111            0.0000000            0.0000111
 Dipole Y            :       -189.7164593          184.4457736           -5.2706856
 Dipole Z            :         -0.0000000            0.0000000           -0.0000000
 Magnitude           :                                                    5.2706856
  Basis Set: (AUG-CC-PVTZ AUX)
    Blend: AUG-CC-PVTZ-RI + DEF2-QZVPP-RI
	 Reference Energy          =   -2572.5336813856397384 [Eh]
	 Singles Energy            =      -0.0000000000000000 [Eh]
	 Same-Spin Energy          =      -0.0876252083310071 [Eh]
	 Opposite-Spin Energy      =      -0.2030540410270328 [Eh]
	 Correlation Energy        =      -0.2906792493580398 [Eh]
	 Total Energy              =   -2572.8243606349979018 [Eh]

	 ================> DF-SCS-MP2 Energies <==================
	-----------------------------------------------------------
	 SCS Same-Spin Scale       =       0.3333333333333333 [-]
	 SCS Opposite-Spin Scale   =       1.2000000000000000 [-]
	 SCS Same-Spin Energy      =      -0.0292084027770023 [Eh]
	 SCS Opposite-Spin Energy  =      -0.2436648492324393 [Eh]
	 SCS Correlation Energy    =      -0.2728732520094417 [Eh]
	 SCS Total Energy          =   -2572.8065546376492421 [Eh]
	-----------------------------------------------------------

*** Psi4 exiting successfully. Buy a developer a beer!
