                               Psi4 1.9 release

  ==> Input File <==

--------------------------------------------------------------------------
MEMORY 60 GB

molecule dimer {
-1 1
Gh(K)      0.000000     0.000000     0.000000
Gh(Br)     0.000000     2.788700     0.000000
Br         4.183050     0.000000     0.000000

units ang
no_reorient
no_com
symmetry c1
}

set {
basis        aug-cc-pVTZ
scf_type     df
}

energy("mp2")
--------------------------------------------------------------------------

    Molecular point group: c1

    Geometry (in Angstrom), charge = -1, multiplicity = 1:

       Center              X                  Y                   Z               Mass
    ------------   -----------------  -----------------  -----------------  -----------------
      Gh(K)           0.000000000000     0.000000000000     0.000000000000    38.963706486400
      Gh(BR)          0.000000000000     2.788700000000     0.000000000000    78.918337600000
         BR           4.183050000000     0.000000000000     0.000000000000    78.918337600000

  Charge       = -1
  Multiplicity = 1
  Basis Set: AUG-CC-PVTZ
    Blend: AUG-CC-PVTZ
  Basis Set: (AUG-CC-PVTZ AUX)
    Blend: AUG-CC-PVTZ-JKFIT + DEF2-UNIVERSAL-JKFIT

    Orbital Energies [Eh]
    ---------------------

    Doubly Occupied:

       1A   -489.720567     2A    -64.860597     3A    -58.215075
       4A    -58.215075     5A    -58.215074     6A     -9.532898
       7A     -7.140243     8A     -7.140242     9A     -7.140238
      10A     -2.881913    11A     -2.881913    12A     -2.881912
      13A     -2.881911    14A     -2.881907    15A     -0.686002
      16A     -0.139342    17A     -0.139340    18A     -0.139339

  @DF-RHF Final Energy: -2572.53367467301268

   => Energetics <=

    Nuclear Repulsion Energy =              0.0000000000000000
    One-Electron Energy =               -3593.6801681767856280
    Two-Electron Energy =                1021.1464935037724899
    Total Energy =                      -2572.5336746730131381
 Dipole X            :       -284.5737882          276.6686604           -7.9051277
 Dipole Y            :         -0.0000275            0.0000000           -0.0000275
 Dipole Z            :         -0.0000000            0.0000000           -0.0000000
 Magnitude           :                                                    7.9051277
  Basis Set: (AUG-CC-PVTZ AUX)
    Blend: AUG-CC-PVTZ-RI + DEF2-QZVPP-RI
	 Reference Energy          =   -2572.5336746730126833 [Eh]
	 Singles Energy            =      -0.0000000000000000 [Eh]
	 Same-Spin Energy          =      -0.0871666054570622 [Eh]
	 Opposite-Spin Energy      =      -0.2020406740072710 [Eh]
	 Correlation Energy        =      -0.2892072794643332 [Eh]
	 Total Energy              =   -2572.8228819524770188 [Eh]

	 ================> DF-SCS-MP2 Energies <==================
	-----------------------------------------------------------
	 SCS Same-Spin Scale       =       0.3333333333333333 [-]
	 SCS Opposite-Spin Scale   =       1.2000000000000000 [-]
	 SCS Same-Spin Energy      =      -0.0290555351523541 [Eh]
	 SCS Opposite-Spin Energy  =      -0.2424488088087252 [Eh]
	 SCS Correlation Energy    =      -0.2715043439610793 [Eh]
	 SCS Total Energy          =   -2572.8051790169738524 [Eh]
	-----------------------------------------------------------

*** Psi4 exiting successfully. Buy a developer a beer!
