                               Psi4 1.9 release

  ==> Input File <==

--------------------------------------------------------------------------
MEMORY 60 GB

molecule dimer {
1 1
K          0.000000     0.000000     0.000000
Gh(Br)     0.000000     2.788700     0.000000
Gh(Br)     5.577400     0.000000     0.000000

units ang
no_reorient
no_com
symmetry c1
}

set {
basis        aug-cc-pVTZ
scf_type     df
}

energy("mp2")
--------------------------------------------------------------------------

    Molecular point group: c1

    Geometry (in Angstrom), charge = 1, multiplicity = 1:

       Center              X                  Y                   Z               Mass
    ------------   -----------------  -----------------  -----------------  -----------------
         K            0.000000000000     0.000000000000     0.000000000000    38.963706486400
      Gh(BR)          0.000000000000     2.788700000000     0.000000000000    78.918337600000
      Gh(BR)          5.577400000000     0.000000000000     0.000000000000    78.918337600000

  Charge       = 1
  Multiplicity = 1
  Basis Set: AUG-CC-PVTZ
    Blend: AUG-CC-PVTZ
  Basis Set: (AUG-CC-PVTZ AUX)
    Blend: AUG-CC-PVTZ-JKFIT + DEF2-UNIVERSAL-JKFIT

    Orbital Energies [Eh]
    ---------------------

    Doubly Occupied:

       1A   -133.753772     2A    -14.709212     3A    -11.739282
       4A    -11.739277     5A    -11.739275     6A     -1.964356
       7A     -1.170980     8A     -1.170936     9A     -1.170930

  @DF-RHF Final Energy:  -599.01750807356257

   => Energetics <=

    Nuclear Repulsion Energy =              0.0000000000000000
    One-Electron Energy =                -819.7189774318051150
    Two-Electron Energy =                 220.7014693582426048
    Total Energy =                       -599.0175080735625670
 Dipole X            :          0.0000070            0.0000000            0.0000070
 Dipole Y            :          0.0005254            0.0000000            0.0005254
 Dipole Z            :          0.0000000            0.0000000            0.0000000
 Magnitude           :                                                    0.0005254
  Basis Set: (AUG-CC-PVTZ AUX)
    Blend: AUG-CC-PVTZ-RI + DEF2-QZVPP-RI
	 Reference Energy          =    -599.0175080735625670 [Eh]
	 Singles Energy            =      -0.0000000000000000 [Eh]
	 Same-Spin Energy          =      -0.0280013699258337 [Eh]
	 Opposite-Spin Energy      =      -0.0653721770647271 [Eh]
	 Correlation Energy        =      -0.0933735469905608 [Eh]
	 Total Energy              =    -599.1108816205530729 [Eh]

	 ================> DF-SCS-MP2 Energies <==================
	-----------------------------------------------------------
	 SCS Same-Spin Scale       =       0.3333333333333333 [-]
	 SCS Opposite-Spin Scale   =       1.2000000000000000 [-]
	 SCS Same-Spin Energy      =      -0.0093337899752779 [Eh]
	 SCS Opposite-Spin Energy  =      -0.0784466124776725 [Eh]
	 SCS Correlation Energy    =      -0.0877804024529504 [Eh]
	 SCS Total Energy          =    -599.1052884760155166 [Eh]
	-----------------------------------------------------------

*** Psi4 exiting successfully. Buy a developer a beer!
