                               Psi4 1.9 release

  ==> Input File <==

--------------------------------------------------------------------------
MEMORY 60 GB

molecule dimer {
0 1
K      0.000000     0.000000     0.000000
Br     0.000000     2.788700     0.000000
--
-1 1
Br     3.346440     0.000000     0.000000

units ang
no_reorient
no_com
symmetry c1
}

set {
basis        aug-cc-pVTZ
scf_type     df
}

energy("mp2", bsse_type="cp")
--------------------------------------------------------------------------

                               Psi4 1.9 release
    Molecular point group: c1
  Charge       = -1
  Multiplicity = 1
  Basis Set: AUG-CC-PVTZ
    Blend: AUG-CC-PVTZ
  Basis Set: (AUG-CC-PVTZ AUX)
    Blend: AUG-CC-PVTZ-JKFIT + DEF2-UNIVERSAL-JKFIT
  @DF-RHF Final Energy: -2572.53367936357427
    Total Energy =                      -2572.5336793635747199
 Dipole X            :       -227.6591773          221.3349283           -6.3242489
 Dipole Y            :          0.0000595            0.0000000            0.0000595
 Dipole Z            :          0.0000000            0.0000000            0.0000000
 Magnitude           :                                                    6.3242489
  Basis Set: (AUG-CC-PVTZ AUX)
    Blend: AUG-CC-PVTZ-RI + DEF2-QZVPP-RI
	 Reference Energy          =   -2572.5336793635742652 [Eh]
	 Singles Energy            =      -0.0000000000000000 [Eh]
	 Same-Spin Energy          =      -0.0874956637063272 [Eh]
	 Opposite-Spin Energy      =      -0.2027519023270205 [Eh]
	 Correlation Energy        =      -0.2902475660333477 [Eh]
	 Total Energy              =   -2572.8239269296077509 [Eh]
	 SCS Total Energy          =   -2572.8061468676019103 [Eh]
                               Psi4 1.9 release
    Molecular point group: c1
  Multiplicity = 1
  Basis Set: AUG-CC-PVTZ
    Blend: AUG-CC-PVTZ
  Basis Set: (AUG-CC-PVTZ AUX)
    Blend: AUG-CC-PVTZ-JKFIT + DEF2-UNIVERSAL-JKFIT
  @DF-RHF Final Energy: -3171.72017304411611
    Total Energy =                      -3171.7201730441156542
  Basis Set: (AUG-CC-PVTZ AUX)
	 Singles Energy            =      -0.0000000000000000 [Eh]
	 Same-Spin Energy          =      -0.1196701475359964 [Eh]
	 Opposite-Spin Energy      =      -0.2740596969229587 [Eh]
	 Correlation Energy        =      -0.3937298444589552 [Eh]
	 Total Energy              =   -3172.1139028885750122 [Eh]
	 SCS Total Energy          =   -3172.0889347296024425 [Eh]
                               Psi4 1.9 release
    Molecular point group: c1

    Geometry (in Bohr), charge = -1, multiplicity = 1:

       Center              X                  Y                   Z               Mass
    ------------   -----------------  -----------------  -----------------  -----------------
         K            0.000000000000     0.000000000000     0.000000000000    38.963706486400
         BR           0.000000000000     5.269879246064     0.000000000000    78.918337600000
         BR           6.323855095277     0.000000000000     0.000000000000    78.918337600000

  Charge       = -1
  Multiplicity = 1
  Basis Set: AUG-CC-PVTZ
    Blend: AUG-CC-PVTZ
  Basis Set: (AUG-CC-PVTZ AUX)
    Blend: AUG-CC-PVTZ-JKFIT + DEF2-UNIVERSAL-JKFIT

    Orbital Energies [Eh]
    ---------------------

    Doubly Occupied:

       1A   -489.769498     2A   -489.753286     3A   -133.374703
       4A    -64.910201     5A    -64.893423     6A    -58.264673
       7A    -58.264661     8A    -58.264565     9A    -58.247944
      10A    -58.247903    11A    -58.247853    12A    -14.332648
      13A    -11.362364    14A    -11.362344    15A    -11.362212
      16A     -9.583104    17A     -9.565796    18A     -7.190749
      19A     -7.190591    20A     -7.190313    21A     -7.173459
      22A     -7.173138    23A     -7.172916    24A     -2.932432
      25A     -2.932416    26A     -2.932028    27A     -2.931943
      28A     -2.931806    29A     -2.915212    30A     -2.915136
      31A     -2.914856    32A     -2.914472    33A     -2.914433
      34A     -1.596234    35A     -0.814899    36A     -0.806678
      37A     -0.803447    38A     -0.735096    39A     -0.720508
      40A     -0.204620    41A     -0.195872    42A     -0.195108
      43A     -0.178942    44A     -0.172860    45A     -0.168642

  @DF-RHF Final Energy: -5744.28450581338893

   => Energetics <=

    Nuclear Repulsion Energy =            380.1591009418038993
    One-Electron Energy =               -8771.4352404856890644
    Two-Electron Energy =                2646.9916337304957779
    Total Energy =                      -5744.2845058133889324
 Dipole X            :       -226.8360886          221.3349283           -5.5011603
 Dipole Y            :       -188.7759304          184.4457736           -4.3301568
 Dipole Z            :          0.0000000            0.0000000            0.0000000
 Magnitude           :                                                    7.0009301
  Basis Set: (AUG-CC-PVTZ AUX)
    Blend: AUG-CC-PVTZ-RI + DEF2-QZVPP-RI
	 Reference Energy          =   -5744.2845058133889324 [Eh]
	 Singles Energy            =      -0.0000000000000000 [Eh]
	 Same-Spin Energy          =      -0.2091036980527367 [Eh]
	 Opposite-Spin Energy      =      -0.4787188514910737 [Eh]
	 Correlation Energy        =      -0.6878225495438104 [Eh]
	 Total Energy              =   -5744.9723283629327852 [Eh]

	 ================> DF-SCS-MP2 Energies <==================
	-----------------------------------------------------------
	 SCS Same-Spin Scale       =       0.3333333333333333 [-]
	 SCS Opposite-Spin Scale   =       1.2000000000000000 [-]
	 SCS Same-Spin Energy      =      -0.0697012326842456 [Eh]
	 SCS Opposite-Spin Energy  =      -0.5744626217892884 [Eh]
	 SCS Correlation Energy    =      -0.6441638544735340 [Eh]
	 SCS Total Energy          =   -5744.9286696678627777 [Eh]
	-----------------------------------------------------------

*** Psi4 exiting successfully. Buy a developer a beer!
