                               Psi4 1.9 release

  ==> Input File <==

--------------------------------------------------------------------------
MEMORY 60 GB

molecule dimer {
-1 1
Gh(K)      0.000000     0.000000     0.000000
Br         0.000000     2.788700     0.000000
Gh(Br)     3.067570     0.000000     0.000000

units ang
no_reorient
no_com
symmetry c1
}

set {
basis        aug-cc-pVTZ
scf_type     df
}

energy("mp2")
--------------------------------------------------------------------------

    Molecular point group: c1

    Geometry (in Angstrom), charge = -1, multiplicity = 1:

       Center              X                  Y                   Z               Mass
    ------------   -----------------  -----------------  -----------------  -----------------
      Gh(K)           0.000000000000     0.000000000000     0.000000000000    38.963706486400
         BR           0.000000000000     2.788700000000     0.000000000000    78.918337600000
      Gh(BR)          3.067570000000     0.000000000000     0.000000000000    78.918337600000

  Charge       = -1
  Multiplicity = 1
  Basis Set: AUG-CC-PVTZ
    Blend: AUG-CC-PVTZ
  Basis Set: (AUG-CC-PVTZ AUX)
    Blend: AUG-CC-PVTZ-JKFIT + DEF2-UNIVERSAL-JKFIT

    Orbital Energies [Eh]
    ---------------------

    Doubly Occupied:

       1A   -489.720812     2A    -64.860766     3A    -58.215256
       4A    -58.215254     5A    -58.215253     6A     -9.532948
       7A     -7.140294     8A     -7.140292     9A     -7.140285
      10A     -2.881971    11A     -2.881970    12A     -2.881967
      13A     -2.881965    14A     -2.881962    15A     -0.685999
      16A     -0.139341    17A     -0.139339    18A     -0.139338

  @DF-RHF Final Energy: -2572.53368253736835

   => Energetics <=

    Nuclear Repulsion Energy =              0.0000000000000000
    One-Electron Energy =               -3593.6773395693976454
    Two-Electron Energy =                1021.1436570320291821
    Total Energy =                      -2572.5336825373683496
 Dipole X            :          0.0000487            0.0000000            0.0000487
 Dipole Y            :       -189.7163968          184.4457736           -5.2706232
 Dipole Z            :          0.0000000            0.0000000            0.0000000
 Magnitude           :                                                    5.2706232
  Basis Set: (AUG-CC-PVTZ AUX)
    Blend: AUG-CC-PVTZ-RI + DEF2-QZVPP-RI
	 Reference Energy          =   -2572.5336825373683496 [Eh]
	 Singles Energy            =      -0.0000000000000000 [Eh]
	 Same-Spin Energy          =      -0.0876694283043787 [Eh]
	 Opposite-Spin Energy      =      -0.2031601084346637 [Eh]
	 Correlation Energy        =      -0.2908295367390424 [Eh]
	 Total Energy              =   -2572.8245120741075880 [Eh]

	 ================> DF-SCS-MP2 Energies <==================
	-----------------------------------------------------------
	 SCS Same-Spin Scale       =       0.3333333333333333 [-]
	 SCS Opposite-Spin Scale   =       1.2000000000000000 [-]
	 SCS Same-Spin Energy      =      -0.0292231427681262 [Eh]
	 SCS Opposite-Spin Energy  =      -0.2437921301215965 [Eh]
	 SCS Correlation Energy    =      -0.2730152728897227 [Eh]
	 SCS Total Energy          =   -2572.8066978102579014 [Eh]
	-----------------------------------------------------------

*** Psi4 exiting successfully. Buy a developer a beer!
