                               Psi4 1.9 release

  ==> Input File <==

--------------------------------------------------------------------------
MEMORY 60 GB

molecule dimer {
-1 1
Gh(K)      0.000000     0.000000     0.000000
Br         0.000000     2.788700     0.000000
Gh(Br)     3.904180     0.000000     0.000000

units ang
no_reorient
no_com
symmetry c1
}

set {
basis        aug-cc-pVTZ
scf_type     df
}

energy("mp2")
--------------------------------------------------------------------------

    Molecular point group: c1

    Geometry (in Angstrom), charge = -1, multiplicity = 1:

       Center              X                  Y                   Z               Mass
    ------------   -----------------  -----------------  -----------------  -----------------
      Gh(K)           0.000000000000     0.000000000000     0.000000000000    38.963706486400
         BR           0.000000000000     2.788700000000     0.000000000000    78.918337600000
      Gh(BR)          3.904180000000     0.000000000000     0.000000000000    78.918337600000

  Charge       = -1
  Multiplicity = 1
  Basis Set: AUG-CC-PVTZ
    Blend: AUG-CC-PVTZ
  Basis Set: (AUG-CC-PVTZ AUX)
    Blend: AUG-CC-PVTZ-JKFIT + DEF2-UNIVERSAL-JKFIT

    Orbital Energies [Eh]
    ---------------------

    Doubly Occupied:

       1A   -489.720797     2A    -64.860755     3A    -58.215244
       4A    -58.215243     5A    -58.215241     6A     -9.532945
       7A     -7.140290     8A     -7.140289     9A     -7.140282
      10A     -2.881967    11A     -2.881966    12A     -2.881963
      13A     -2.881961    14A     -2.881959    15A     -0.686000
      16A     -0.139341    17A     -0.139339    18A     -0.139339

  @DF-RHF Final Energy: -2572.53368149145535

   => Energetics <=

    Nuclear Repulsion Energy =              0.0000000000000000
    One-Electron Energy =               -3593.6775219416331311
    Two-Electron Energy =                1021.1438404501776631
    Total Energy =                      -2572.5336814914553543
 Dipole X            :          0.0000400            0.0000000            0.0000400
 Dipole Y            :       -189.7164577          184.4457736           -5.2706841
 Dipole Z            :          0.0000000            0.0000000            0.0000000
 Magnitude           :                                                    5.2706841
  Basis Set: (AUG-CC-PVTZ AUX)
    Blend: AUG-CC-PVTZ-RI + DEF2-QZVPP-RI
	 Reference Energy          =   -2572.5336814914553543 [Eh]
	 Singles Energy            =      -0.0000000000000000 [Eh]
	 Same-Spin Energy          =      -0.0876367350640851 [Eh]
	 Opposite-Spin Energy      =      -0.2030805362596677 [Eh]
	 Correlation Energy        =      -0.2907172713237528 [Eh]
	 Total Energy              =   -2572.8243987627793103 [Eh]

	 ================> DF-SCS-MP2 Energies <==================
	-----------------------------------------------------------
	 SCS Same-Spin Scale       =       0.3333333333333333 [-]
	 SCS Opposite-Spin Scale   =       1.2000000000000000 [-]
	 SCS Same-Spin Energy      =      -0.0292122450213617 [Eh]
	 SCS Opposite-Spin Energy  =      -0.2436966435116013 [Eh]
	 SCS Correlation Energy    =      -0.2729088885329629 [Eh]
	 SCS Total Energy          =   -2572.8065903799883927 [Eh]
	-----------------------------------------------------------

*** Psi4 exiting successfully. Buy a developer a beer!
