                               Psi4 1.9 release

  ==> Input File <==

--------------------------------------------------------------------------
MEMORY 60 GB

molecule dimer {
1 1
Li     0.000000     0.000000     0.000000
--
1 1
Li     2.128000     0.000000     0.000000

units ang
no_reorient
no_com
symmetry c1
}

set {
basis        aug-cc-pVTZ
scf_type     df
}

energy("mp2", bsse_type="cp")
--------------------------------------------------------------------------

                               Psi4 1.9 release
    Molecular point group: c1
  Charge       = 1
  Multiplicity = 1
  Basis Set: AUG-CC-PVTZ
    Blend: AUG-CC-PVTZ
  Basis Set: (AUG-CC-PVTZ AUX)
    Blend: DEF2-UNIVERSAL-JKFIT
  @DF-RHF Final Energy:    -7.23638314850124
    Total Energy =                         -7.2363831485012380
 Dipole X            :         -8.0427512           12.0640116            4.0212604
 Dipole Y            :         -0.0000000            0.0000000           -0.0000000
 Dipole Z            :         -0.0000000            0.0000000           -0.0000000
 Magnitude           :                                                    4.0212604
  Basis Set: (AUG-CC-PVTZ AUX)
    Blend: DEF2-QZVPP-RI
	 Reference Energy          =      -7.2363831485012389 [Eh]
	 Singles Energy            =      -0.0000000000000000 [Eh]
	 Same-Spin Energy          =      -0.0000000000000000 [Eh]
	 Opposite-Spin Energy      =      -0.0122152885367424 [Eh]
	 Correlation Energy        =      -0.0122152885367424 [Eh]
	 Total Energy              =      -7.2485984370379812 [Eh]
	 SCS Total Energy          =      -7.2510414947453299 [Eh]
                               Psi4 1.9 release
    Molecular point group: c1
  Multiplicity = 1
  Basis Set: AUG-CC-PVTZ
    Blend: AUG-CC-PVTZ
  Basis Set: (AUG-CC-PVTZ AUX)
    Blend: DEF2-UNIVERSAL-JKFIT
  @DF-RHF Final Energy:    -7.23638314850138
    Total Energy =                         -7.2363831485013765
  Basis Set: (AUG-CC-PVTZ AUX)
	 Singles Energy            =      -0.0000000000000000 [Eh]
	 Same-Spin Energy          =       0.0000000000000000 [Eh]
	 Opposite-Spin Energy      =      -0.0122152885367193 [Eh]
	 Correlation Energy        =      -0.0122152885367193 [Eh]
	 Total Energy              =      -7.2485984370380958 [Eh]
	 SCS Total Energy          =      -7.2510414947454400 [Eh]
                               Psi4 1.9 release
    Molecular point group: c1

    Geometry (in Bohr), charge = 2, multiplicity = 1:

       Center              X                  Y                   Z               Mass
    ------------   -----------------  -----------------  -----------------  -----------------
         LI           0.000000000000     0.000000000000     0.000000000000     7.016003436600
         LI           4.021337194974     0.000000000000     0.000000000000     7.016003436600

  Charge       = 2
  Multiplicity = 1
  Basis Set: AUG-CC-PVTZ
    Blend: AUG-CC-PVTZ
  Basis Set: (AUG-CC-PVTZ AUX)
    Blend: DEF2-UNIVERSAL-JKFIT

    Orbital Energies [Eh]
    ---------------------

    Doubly Occupied:

       1A     -3.042319     2A     -3.039081

  @DF-RHF Final Energy:   -14.22469190242796

   => Energetics <=

    Nuclear Repulsion Energy =              2.2380615112922930
    One-Electron Energy =                 -20.7627067928642575
    Two-Electron Energy =                   4.2999533791440037
    Total Energy =                        -14.2246919024279599
 Dipole X            :         -8.0426744           12.0640116            4.0213372
 Dipole Y            :         -0.0000000            0.0000000           -0.0000000
 Dipole Z            :         -0.0000000            0.0000000           -0.0000000
 Magnitude           :                                                    4.0213372
  Basis Set: (AUG-CC-PVTZ AUX)
    Blend: DEF2-QZVPP-RI
	 Reference Energy          =     -14.2246919024279581 [Eh]
	 Singles Energy            =      -0.0000000000000000 [Eh]
	 Same-Spin Energy          =      -0.0000055559798966 [Eh]
	 Opposite-Spin Energy      =      -0.0244834712400184 [Eh]
	 Correlation Energy        =      -0.0244890272199150 [Eh]
	 Total Energy              =     -14.2491809296478724 [Eh]

	 ================> DF-SCS-MP2 Energies <==================
	-----------------------------------------------------------
	 SCS Same-Spin Scale       =       0.3333333333333333 [-]
	 SCS Opposite-Spin Scale   =       1.2000000000000000 [-]
	 SCS Same-Spin Energy      =      -0.0000018519932989 [Eh]
	 SCS Opposite-Spin Energy  =      -0.0293801654880221 [Eh]
	 SCS Correlation Energy    =      -0.0293820174813210 [Eh]
	 SCS Total Energy          =     -14.2540739199092794 [Eh]
	-----------------------------------------------------------

*** Psi4 exiting successfully. Buy a developer a beer!
