                               Psi4 1.9 release

  ==> Input File <==

--------------------------------------------------------------------------
MEMORY 60 GB

molecule dimer {
1 1
Li     0.000000     0.000000     0.000000
--
1 1
Li     1.976000     0.000000     0.000000

units ang
no_reorient
no_com
symmetry c1
}

set {
basis        aug-cc-pVTZ
scf_type     df
}

energy("mp2", bsse_type="cp")
--------------------------------------------------------------------------

                               Psi4 1.9 release
    Molecular point group: c1
  Charge       = 1
  Multiplicity = 1
  Basis Set: AUG-CC-PVTZ
    Blend: AUG-CC-PVTZ
  Basis Set: (AUG-CC-PVTZ AUX)
    Blend: DEF2-UNIVERSAL-JKFIT
  @DF-RHF Final Energy:    -7.23638323269973
    Total Energy =                         -7.2363832326997288
 Dipole X            :         -7.4682600           11.2022965            3.7340365
 Dipole Y            :          0.0000000            0.0000000            0.0000000
 Dipole Z            :         -0.0000000            0.0000000           -0.0000000
 Magnitude           :                                                    3.7340365
  Basis Set: (AUG-CC-PVTZ AUX)
    Blend: DEF2-QZVPP-RI
	 Reference Energy          =      -7.2363832326997288 [Eh]
	 Singles Energy            =      -0.0000000000000000 [Eh]
	 Same-Spin Energy          =       0.0000000000000000 [Eh]
	 Opposite-Spin Energy      =      -0.0124674915554085 [Eh]
	 Correlation Energy        =      -0.0124674915554085 [Eh]
	 Total Energy              =      -7.2488507242551377 [Eh]
	 SCS Total Energy          =      -7.2513442225662192 [Eh]
                               Psi4 1.9 release
    Molecular point group: c1
  Multiplicity = 1
  Basis Set: AUG-CC-PVTZ
    Blend: AUG-CC-PVTZ
  Basis Set: (AUG-CC-PVTZ AUX)
    Blend: DEF2-UNIVERSAL-JKFIT
  @DF-RHF Final Energy:    -7.23638323269976
    Total Energy =                         -7.2363832326997590
  Basis Set: (AUG-CC-PVTZ AUX)
	 Singles Energy            =      -0.0000000000000000 [Eh]
	 Same-Spin Energy          =       0.0000000000000000 [Eh]
	 Opposite-Spin Energy      =      -0.0124674915553499 [Eh]
	 Correlation Energy        =      -0.0124674915553499 [Eh]
	 Total Energy              =      -7.2488507242551092 [Eh]
	 SCS Total Energy          =      -7.2513442225661793 [Eh]
                               Psi4 1.9 release
    Molecular point group: c1

    Geometry (in Bohr), charge = 2, multiplicity = 1:

       Center              X                  Y                   Z               Mass
    ------------   -----------------  -----------------  -----------------  -----------------
         LI           0.000000000000     0.000000000000     0.000000000000     7.016003436600
         LI           3.734098823905     0.000000000000     0.000000000000     7.016003436600

  Charge       = 2
  Multiplicity = 1
  Basis Set: AUG-CC-PVTZ
    Blend: AUG-CC-PVTZ
  Basis Set: (AUG-CC-PVTZ AUX)
    Blend: DEF2-UNIVERSAL-JKFIT

    Orbital Energies [Eh]
    ---------------------

    Doubly Occupied:

       1A     -3.062742     2A     -3.056645

  @DF-RHF Final Energy:   -14.20575736426153

   => Energetics <=

    Nuclear Repulsion Energy =              2.4102200890840080
    One-Electron Energy =                 -20.9931817376682126
    Two-Electron Energy =                   4.3772042843226737
    Total Energy =                        -14.2057573642615331
 Dipole X            :         -7.4681976           11.2022965            3.7340988
 Dipole Y            :          0.0000000            0.0000000            0.0000000
 Dipole Z            :         -0.0000000            0.0000000           -0.0000000
 Magnitude           :                                                    3.7340988
  Basis Set: (AUG-CC-PVTZ AUX)
    Blend: DEF2-QZVPP-RI
	 Reference Energy          =     -14.2057573642615331 [Eh]
	 Singles Energy            =      -0.0000000000000000 [Eh]
	 Same-Spin Energy          =      -0.0000090765426116 [Eh]
	 Opposite-Spin Energy      =      -0.0250071511374964 [Eh]
	 Correlation Energy        =      -0.0250162276801081 [Eh]
	 Total Energy              =     -14.2307735919416416 [Eh]

	 ================> DF-SCS-MP2 Energies <==================
	-----------------------------------------------------------
	 SCS Same-Spin Scale       =       0.3333333333333333 [-]
	 SCS Opposite-Spin Scale   =       1.2000000000000000 [-]
	 SCS Same-Spin Energy      =      -0.0000030255142039 [Eh]
	 SCS Opposite-Spin Energy  =      -0.0300085813649957 [Eh]
	 SCS Correlation Energy    =      -0.0300116068791996 [Eh]
	 SCS Total Energy          =     -14.2357689711407325 [Eh]
	-----------------------------------------------------------

*** Psi4 exiting successfully. Buy a developer a beer!
