                               Psi4 1.9 release

  ==> Input File <==

--------------------------------------------------------------------------
MEMORY 60 GB

molecule dimer {
1 1
Li     0.000000     0.000000     0.000000
--
1 1
Li     3.040000     0.000000     0.000000

units ang
no_reorient
no_com
symmetry c1
}

set {
basis        aug-cc-pVTZ
scf_type     df
}

energy("mp2", bsse_type="cp")
--------------------------------------------------------------------------

                               Psi4 1.9 release
    Molecular point group: c1
  Charge       = 1
  Multiplicity = 1
  Basis Set: AUG-CC-PVTZ
    Blend: AUG-CC-PVTZ
  Basis Set: (AUG-CC-PVTZ AUX)
    Blend: DEF2-UNIVERSAL-JKFIT
  @DF-RHF Final Energy:    -7.23638301563584
    Total Energy =                         -7.2363830156358375
 Dipole X            :        -11.4895961           17.2343023            5.7447062
 Dipole Y            :          0.0000000            0.0000000            0.0000000
 Dipole Z            :         -0.0000000            0.0000000           -0.0000000
 Magnitude           :                                                    5.7447062
  Basis Set: (AUG-CC-PVTZ AUX)
    Blend: DEF2-QZVPP-RI
	 Reference Energy          =      -7.2363830156358375 [Eh]
	 Singles Energy            =      -0.0000000000000000 [Eh]
	 Same-Spin Energy          =      -0.0000000000000000 [Eh]
	 Opposite-Spin Energy      =      -0.0114362299408396 [Eh]
	 Correlation Energy        =      -0.0114362299408396 [Eh]
	 Total Energy              =      -7.2478192455766770 [Eh]
	 SCS Total Energy          =      -7.2501064915648454 [Eh]
                               Psi4 1.9 release
    Molecular point group: c1
  Multiplicity = 1
  Basis Set: AUG-CC-PVTZ
    Blend: AUG-CC-PVTZ
  Basis Set: (AUG-CC-PVTZ AUX)
    Blend: DEF2-UNIVERSAL-JKFIT
  @DF-RHF Final Energy:    -7.23638301563587
    Total Energy =                         -7.2363830156358677
  Basis Set: (AUG-CC-PVTZ AUX)
	 Singles Energy            =      -0.0000000000000000 [Eh]
	 Same-Spin Energy          =      -0.0000000000000000 [Eh]
	 Opposite-Spin Energy      =      -0.0114362299408488 [Eh]
	 Correlation Energy        =      -0.0114362299408488 [Eh]
	 Total Energy              =      -7.2478192455767152 [Eh]
	 SCS Total Energy          =      -7.2501064915648854 [Eh]
                               Psi4 1.9 release
    Molecular point group: c1

    Geometry (in Bohr), charge = 2, multiplicity = 1:

       Center              X                  Y                   Z               Mass
    ------------   -----------------  -----------------  -----------------  -----------------
         LI           0.000000000000     0.000000000000     0.000000000000     7.016003436600
         LI           5.744767421392     0.000000000000     0.000000000000     7.016003436600

  Charge       = 2
  Multiplicity = 1
  Basis Set: AUG-CC-PVTZ
    Blend: AUG-CC-PVTZ
  Basis Set: (AUG-CC-PVTZ AUX)
    Blend: DEF2-UNIVERSAL-JKFIT

    Orbital Energies [Eh]
    ---------------------

    Doubly Occupied:

       1A     -2.966411     2A     -2.966337

  @DF-RHF Final Energy:   -14.29882459348550

   => Energetics <=

    Nuclear Repulsion Energy =              1.5666430579046053
    One-Electron Energy =                 -19.8654394158255272
    Two-Electron Energy =                   3.9999717644354202
    Total Energy =                        -14.2988245934855005
 Dipole X            :        -11.4895348           17.2343023            5.7447674
 Dipole Y            :          0.0000000            0.0000000            0.0000000
 Dipole Z            :         -0.0000000            0.0000000           -0.0000000
 Magnitude           :                                                    5.7447674
  Basis Set: (AUG-CC-PVTZ AUX)
    Blend: DEF2-QZVPP-RI
	 Reference Energy          =     -14.2988245934855023 [Eh]
	 Singles Energy            =      -0.0000000000000000 [Eh]
	 Same-Spin Energy          =      -0.0000004682850919 [Eh]
	 Opposite-Spin Energy      =      -0.0228819749471714 [Eh]
	 Correlation Energy        =      -0.0228824432322633 [Eh]
	 Total Energy              =     -14.3217070367177648 [Eh]

	 ================> DF-SCS-MP2 Energies <==================
	-----------------------------------------------------------
	 SCS Same-Spin Scale       =       0.3333333333333333 [-]
	 SCS Opposite-Spin Scale   =       1.2000000000000000 [-]
	 SCS Same-Spin Energy      =      -0.0000001560950306 [Eh]
	 SCS Opposite-Spin Energy  =      -0.0274583699366057 [Eh]
	 SCS Correlation Energy    =      -0.0274585260316363 [Eh]
	 SCS Total Energy          =     -14.3262831195171394 [Eh]
	-----------------------------------------------------------

*** Psi4 exiting successfully. Buy a developer a beer!
