                               Psi4 1.9 release

  ==> Input File <==

--------------------------------------------------------------------------
MEMORY 60 GB

molecule dimer {
1 1
Li     0.000000     0.000000     0.000000
--
1 1
Li     2.280000     0.000000     0.000000

units ang
no_reorient
no_com
symmetry c1
}

set {
basis        aug-cc-pVTZ
scf_type     df
}

energy("mp2", bsse_type="cp")
--------------------------------------------------------------------------

                               Psi4 1.9 release
    Molecular point group: c1
  Charge       = 1
  Multiplicity = 1
  Basis Set: AUG-CC-PVTZ
    Blend: AUG-CC-PVTZ
  Basis Set: (AUG-CC-PVTZ AUX)
    Blend: DEF2-UNIVERSAL-JKFIT
  @DF-RHF Final Energy:    -7.23638311734561
    Total Energy =                         -7.2363831173456106
 Dipole X            :         -8.6172384           12.9257267            4.3084883
 Dipole Y            :         -0.0000000            0.0000000           -0.0000000
 Dipole Z            :         -0.0000000            0.0000000           -0.0000000
 Magnitude           :                                                    4.3084883
  Basis Set: (AUG-CC-PVTZ AUX)
    Blend: DEF2-QZVPP-RI
	 Reference Energy          =      -7.2363831173456106 [Eh]
	 Singles Energy            =      -0.0000000000000000 [Eh]
	 Same-Spin Energy          =       0.0000000000000000 [Eh]
	 Opposite-Spin Energy      =      -0.0120071341404990 [Eh]
	 Correlation Energy        =      -0.0120071341404990 [Eh]
	 Total Energy              =      -7.2483902514861098 [Eh]
	 SCS Total Energy          =      -7.2507916783142097 [Eh]
                               Psi4 1.9 release
    Molecular point group: c1
  Multiplicity = 1
  Basis Set: AUG-CC-PVTZ
    Blend: AUG-CC-PVTZ
  Basis Set: (AUG-CC-PVTZ AUX)
    Blend: DEF2-UNIVERSAL-JKFIT
  @DF-RHF Final Energy:    -7.23638311734562
    Total Energy =                         -7.2363831173456177
  Basis Set: (AUG-CC-PVTZ AUX)
	 Singles Energy            =      -0.0000000000000000 [Eh]
	 Same-Spin Energy          =       0.0000000000000000 [Eh]
	 Opposite-Spin Energy      =      -0.0120071341404945 [Eh]
	 Correlation Energy        =      -0.0120071341404945 [Eh]
	 Total Energy              =      -7.2483902514861125 [Eh]
	 SCS Total Energy          =      -7.2507916783142115 [Eh]
                               Psi4 1.9 release
    Molecular point group: c1

    Geometry (in Bohr), charge = 2, multiplicity = 1:

       Center              X                  Y                   Z               Mass
    ------------   -----------------  -----------------  -----------------  -----------------
         LI           0.000000000000     0.000000000000     0.000000000000     7.016003436600
         LI           4.308575566044     0.000000000000     0.000000000000     7.016003436600

  Charge       = 2
  Multiplicity = 1
  Basis Set: AUG-CC-PVTZ
    Blend: AUG-CC-PVTZ
  Basis Set: (AUG-CC-PVTZ AUX)
    Blend: DEF2-UNIVERSAL-JKFIT

    Orbital Energies [Eh]
    ---------------------

    Doubly Occupied:

       1A     -3.025069     2A     -3.023358

  @DF-RHF Final Energy:   -14.24112345794174

   => Energetics <=

    Nuclear Repulsion Energy =              2.0888574105394739
    One-Electron Energy =                 -20.5631078406762455
    Two-Electron Energy =                   4.2331269721950306
    Total Energy =                        -14.2411234579417396
 Dipole X            :         -8.6171511           12.9257267            4.3085756
 Dipole Y            :         -0.0000000            0.0000000           -0.0000000
 Dipole Z            :         -0.0000000            0.0000000           -0.0000000
 Magnitude           :                                                    4.3085756
  Basis Set: (AUG-CC-PVTZ AUX)
    Blend: DEF2-QZVPP-RI
	 Reference Energy          =     -14.2411234579417396 [Eh]
	 Singles Energy            =      -0.0000000000000000 [Eh]
	 Same-Spin Energy          =      -0.0000034675080309 [Eh]
	 Opposite-Spin Energy      =      -0.0240521560447814 [Eh]
	 Correlation Energy        =      -0.0240556235528123 [Eh]
	 Total Energy              =     -14.2651790814945514 [Eh]

	 ================> DF-SCS-MP2 Energies <==================
	-----------------------------------------------------------
	 SCS Same-Spin Scale       =       0.3333333333333333 [-]
	 SCS Opposite-Spin Scale   =       1.2000000000000000 [-]
	 SCS Same-Spin Energy      =      -0.0000011558360103 [Eh]
	 SCS Opposite-Spin Energy  =      -0.0288625872537377 [Eh]
	 SCS Correlation Energy    =      -0.0288637430897480 [Eh]
	 SCS Total Energy          =     -14.2699872010314870 [Eh]
	-----------------------------------------------------------

*** Psi4 exiting successfully. Buy a developer a beer!
