                               Psi4 1.9 release

  ==> Input File <==

--------------------------------------------------------------------------
MEMORY 60 GB

molecule dimer {
1 1
Li     0.000000     0.000000     0.000000
--
1 1
Li     1.520000     0.000000     0.000000

units ang
no_reorient
no_com
symmetry c1
}

set {
basis        aug-cc-pVTZ
scf_type     df
}

energy("mp2", bsse_type="cp")
--------------------------------------------------------------------------

                               Psi4 1.9 release
    Molecular point group: c1
  Charge       = 1
  Multiplicity = 1
  Basis Set: AUG-CC-PVTZ
    Blend: AUG-CC-PVTZ
  Basis Set: (AUG-CC-PVTZ AUX)
    Blend: DEF2-UNIVERSAL-JKFIT
  @DF-RHF Final Energy:    -7.23638392555580
    Total Energy =                         -7.2363839255558036
 Dipole X            :         -5.7447819            8.6171511            2.8723692
 Dipole Y            :         -0.0000000            0.0000000           -0.0000000
 Dipole Z            :         -0.0000000            0.0000000           -0.0000000
 Magnitude           :                                                    2.8723692
  Basis Set: (AUG-CC-PVTZ AUX)
    Blend: DEF2-QZVPP-RI
	 Reference Energy          =      -7.2363839255558027 [Eh]
	 Singles Energy            =      -0.0000000000000000 [Eh]
	 Same-Spin Energy          =      -0.0000000000000000 [Eh]
	 Opposite-Spin Energy      =      -0.0136779630816406 [Eh]
	 Correlation Energy        =      -0.0136779630816406 [Eh]
	 Total Energy              =      -7.2500618886374433 [Eh]
	 SCS Total Energy          =      -7.2527974812537712 [Eh]
                               Psi4 1.9 release
    Molecular point group: c1
  Multiplicity = 1
  Basis Set: AUG-CC-PVTZ
    Blend: AUG-CC-PVTZ
  Basis Set: (AUG-CC-PVTZ AUX)
    Blend: DEF2-UNIVERSAL-JKFIT
  @DF-RHF Final Energy:    -7.23638392555617
    Total Energy =                         -7.2363839255561748
  Basis Set: (AUG-CC-PVTZ AUX)
	 Singles Energy            =      -0.0000000000000000 [Eh]
	 Same-Spin Energy          =       0.0000000000000000 [Eh]
	 Opposite-Spin Energy      =      -0.0136779630817669 [Eh]
	 Correlation Energy        =      -0.0136779630817669 [Eh]
	 Total Energy              =      -7.2500618886379407 [Eh]
	 SCS Total Energy          =      -7.2527974812542944 [Eh]
                               Psi4 1.9 release
    Molecular point group: c1

    Geometry (in Bohr), charge = 2, multiplicity = 1:

       Center              X                  Y                   Z               Mass
    ------------   -----------------  -----------------  -----------------  -----------------
         LI           0.000000000000     0.000000000000     0.000000000000     7.016003436600
         LI           2.872383710696     0.000000000000     0.000000000000     7.016003436600

  Charge       = 2
  Multiplicity = 1
  Basis Set: AUG-CC-PVTZ
    Blend: AUG-CC-PVTZ
  Basis Set: (AUG-CC-PVTZ AUX)
    Blend: DEF2-UNIVERSAL-JKFIT

    Orbital Energies [Eh]
    ---------------------

    Doubly Occupied:

       1A     -3.158289     2A     -3.119279

  @DF-RHF Final Energy:   -14.12578828619134

   => Energetics <=

    Nuclear Repulsion Energy =              3.1332861158092107
    One-Electron Energy =                 -21.9630132451691011
    Two-Electron Energy =                   4.7039388431685474
    Total Energy =                        -14.1257882861913444
 Dipole X            :         -5.7447674            8.6171511            2.8723837
 Dipole Y            :          0.0000000            0.0000000            0.0000000
 Dipole Z            :         -0.0000000            0.0000000           -0.0000000
 Magnitude           :                                                    2.8723837
  Basis Set: (AUG-CC-PVTZ AUX)
    Blend: DEF2-QZVPP-RI
	 Reference Energy          =     -14.1257882861913444 [Eh]
	 Singles Energy            =      -0.0000000000000000 [Eh]
	 Same-Spin Energy          =      -0.0000412920759137 [Eh]
	 Opposite-Spin Energy      =      -0.0274743299176913 [Eh]
	 Correlation Energy        =      -0.0275156219936050 [Eh]
	 Total Energy              =     -14.1533039081849488 [Eh]

	 ================> DF-SCS-MP2 Energies <==================
	-----------------------------------------------------------
	 SCS Same-Spin Scale       =       0.3333333333333333 [-]
	 SCS Opposite-Spin Scale   =       1.2000000000000000 [-]
	 SCS Same-Spin Energy      =      -0.0000137640253046 [Eh]
	 SCS Opposite-Spin Energy  =      -0.0329691959012295 [Eh]
	 SCS Correlation Energy    =      -0.0329829599265341 [Eh]
	 SCS Total Energy          =     -14.1587712461178779 [Eh]
	-----------------------------------------------------------

*** Psi4 exiting successfully. Buy a developer a beer!
