                               Psi4 1.9 release

  ==> Input File <==

--------------------------------------------------------------------------
MEMORY 60 GB

molecule dimer {
1 1
Li     0.000000     0.000000     0.000000
--
1 1
Na     2.492000     0.000000     0.000000

units ang
no_reorient
no_com
symmetry c1
}

set {
basis        aug-cc-pVTZ
scf_type     df
}

energy("mp2", bsse_type="cp")
--------------------------------------------------------------------------

                               Psi4 1.9 release
    Molecular point group: c1
  Charge       = 1
  Multiplicity = 1
  Basis Set: AUG-CC-PVTZ
    Blend: AUG-CC-PVTZ
  Basis Set: (AUG-CC-PVTZ AUX)
    Blend: DEF2-UNIVERSAL-JKFIT
  @DF-RHF Final Energy:  -161.67605367747194
    Total Energy =                       -161.6760536774719412
 Dipole X            :        -47.0925940           51.8011726            4.7085786
 Dipole Y            :         -0.0000000            0.0000000           -0.0000000
 Dipole Z            :         -0.0000000            0.0000000           -0.0000000
 Magnitude           :                                                    4.7085786
  Basis Set: (AUG-CC-PVTZ AUX)
    Blend: DEF2-QZVPP-RI
	 Reference Energy          =    -161.6760536774719412 [Eh]
	 Singles Energy            =      -0.0000000000000000 [Eh]
	 Same-Spin Energy          =      -0.0026177317906960 [Eh]
	 Opposite-Spin Energy      =      -0.0096695849358723 [Eh]
	 Correlation Energy        =      -0.0122873167265682 [Eh]
	 Total Energy              =    -161.6883409941985121 [Eh]
	 SCS Total Energy          =    -161.6885297566585393 [Eh]
                               Psi4 1.9 release
    Molecular point group: c1
  Multiplicity = 1
  Basis Set: AUG-CC-PVTZ
    Blend: AUG-CC-PVTZ
  Basis Set: (AUG-CC-PVTZ AUX)
    Blend: DEF2-UNIVERSAL-JKFIT
  @DF-RHF Final Energy:    -7.23638311100860
    Total Energy =                         -7.2363831110086023
  Basis Set: (AUG-CC-PVTZ AUX)
	 Singles Energy            =      -0.0000000000000000 [Eh]
	 Same-Spin Energy          =      -0.0000000000000000 [Eh]
	 Opposite-Spin Energy      =      -0.0120276632917465 [Eh]
	 Correlation Energy        =      -0.0120276632917465 [Eh]
	 Total Energy              =      -7.2484107743003499 [Eh]
	 SCS Total Energy          =      -7.2508163069586988 [Eh]
                               Psi4 1.9 release
    Molecular point group: c1

    Geometry (in Bohr), charge = 2, multiplicity = 1:

       Center              X                  Y                   Z               Mass
    ------------   -----------------  -----------------  -----------------  -----------------
         LI           0.000000000000     0.000000000000     0.000000000000     7.016003436600
         NA           4.709197504641     0.000000000000     0.000000000000    22.989769282000

  Charge       = 2
  Multiplicity = 1
  Basis Set: AUG-CC-PVTZ
    Blend: AUG-CC-PVTZ
  Basis Set: (AUG-CC-PVTZ AUX)
    Blend: DEF2-UNIVERSAL-JKFIT

    Orbital Energies [Eh]
    ---------------------

    Doubly Occupied:

       1A    -40.976246     2A     -3.287905     3A     -3.003865
       4A     -2.013107     5A     -2.009522     6A     -2.009522

  @DF-RHF Final Energy:  -168.70072179861390

   => Energetics <=

    Nuclear Repulsion Energy =              7.0075633836717506
    One-Electron Energy =                -244.8162342486166949
    Two-Electron Energy =                  69.1079490663310594
    Total Energy =                       -168.7007217986138983
 Dipole X            :        -47.0787020           51.8011726            4.7224705
 Dipole Y            :         -0.0000000            0.0000000           -0.0000000
 Dipole Z            :         -0.0000000            0.0000000           -0.0000000
 Magnitude           :                                                    4.7224705
  Basis Set: (AUG-CC-PVTZ AUX)
    Blend: DEF2-QZVPP-RI
	 Reference Energy          =    -168.7007217986138983 [Eh]
	 Singles Energy            =      -0.0000000000000000 [Eh]
	 Same-Spin Energy          =      -0.0026523766450682 [Eh]
	 Opposite-Spin Energy      =      -0.0217932640033221 [Eh]
	 Correlation Energy        =      -0.0244456406483902 [Eh]
	 Total Energy              =    -168.7251674392622931 [Eh]

	 ================> DF-SCS-MP2 Energies <==================
	-----------------------------------------------------------
	 SCS Same-Spin Scale       =       0.3333333333333333 [-]
	 SCS Opposite-Spin Scale   =       1.2000000000000000 [-]
	 SCS Same-Spin Energy      =      -0.0008841255483561 [Eh]
	 SCS Opposite-Spin Energy  =      -0.0261519168039865 [Eh]
	 SCS Correlation Energy    =      -0.0270360423523425 [Eh]
	 SCS Total Energy          =    -168.7277578409662340 [Eh]
	-----------------------------------------------------------

*** Psi4 exiting successfully. Buy a developer a beer!
