                               Psi4 1.9 release

  ==> Input File <==

--------------------------------------------------------------------------
MEMORY 60 GB

molecule dimer {
1 1
Li     0.000000     0.000000     0.000000
--
1 1
Na     2.670000     0.000000     0.000000

units ang
no_reorient
no_com
symmetry c1
}

set {
basis        aug-cc-pVTZ
scf_type     df
}

energy("mp2", bsse_type="cp")
--------------------------------------------------------------------------

                               Psi4 1.9 release
    Molecular point group: c1
  Charge       = 1
  Multiplicity = 1
  Basis Set: AUG-CC-PVTZ
    Blend: AUG-CC-PVTZ
  Basis Set: (AUG-CC-PVTZ AUX)
    Blend: DEF2-UNIVERSAL-JKFIT
  @DF-RHF Final Energy:  -161.67604848434513
    Total Energy =                       -161.6760484843451309
 Dipole X            :        -50.4562585           55.5012563            5.0449979
 Dipole Y            :         -0.0000000            0.0000000           -0.0000000
 Dipole Z            :         -0.0000000            0.0000000           -0.0000000
 Magnitude           :                                                    5.0449979
  Basis Set: (AUG-CC-PVTZ AUX)
    Blend: DEF2-QZVPP-RI
	 Reference Energy          =    -161.6760484843451309 [Eh]
	 Singles Energy            =      -0.0000000000000000 [Eh]
	 Same-Spin Energy          =      -0.0024809948563117 [Eh]
	 Opposite-Spin Energy      =      -0.0093092048312741 [Eh]
	 Correlation Energy        =      -0.0117901996875858 [Eh]
	 Total Energy              =    -161.6878386840327266 [Eh]
	 SCS Total Energy          =    -161.6880465284280888 [Eh]
                               Psi4 1.9 release
    Molecular point group: c1
  Multiplicity = 1
  Basis Set: AUG-CC-PVTZ
    Blend: AUG-CC-PVTZ
  Basis Set: (AUG-CC-PVTZ AUX)
    Blend: DEF2-UNIVERSAL-JKFIT
  @DF-RHF Final Energy:    -7.23638312821522
    Total Energy =                         -7.2363831282152189
  Basis Set: (AUG-CC-PVTZ AUX)
	 Singles Energy            =      -0.0000000000000000 [Eh]
	 Same-Spin Energy          =       0.0000000000000000 [Eh]
	 Opposite-Spin Energy      =      -0.0117828160766922 [Eh]
	 Correlation Energy        =      -0.0117828160766922 [Eh]
	 Total Energy              =      -7.2481659442919115 [Eh]
	 SCS Total Energy          =      -7.2505225075072506 [Eh]
                               Psi4 1.9 release
    Molecular point group: c1

    Geometry (in Bohr), charge = 2, multiplicity = 1:

       Center              X                  Y                   Z               Mass
    ------------   -----------------  -----------------  -----------------  -----------------
         LI           0.000000000000     0.000000000000     0.000000000000     7.016003436600
         NA           5.045568754972     0.000000000000     0.000000000000    22.989769282000

  Charge       = 2
  Multiplicity = 1
  Basis Set: AUG-CC-PVTZ
    Blend: AUG-CC-PVTZ
  Basis Set: (AUG-CC-PVTZ AUX)
    Blend: DEF2-UNIVERSAL-JKFIT

    Orbital Energies [Eh]
    ---------------------

    Doubly Occupied:

       1A    -40.961985     2A     -3.273681     3A     -2.989934
       4A     -1.998554     5A     -1.995591     6A     -1.995591

  @DF-RHF Final Energy:  -168.71471241946503

   => Energetics <=

    Nuclear Repulsion Energy =              6.5403924914269664
    One-Electron Energy =                -244.0795414938810666
    Two-Electron Energy =                  68.8244365829890796
    Total Energy =                       -168.7147124194650303
 Dipole X            :        -50.4439674           55.5012563            5.0572889
 Dipole Y            :         -0.0000000            0.0000000           -0.0000000
 Dipole Z            :         -0.0000000            0.0000000           -0.0000000
 Magnitude           :                                                    5.0572889
  Basis Set: (AUG-CC-PVTZ AUX)
    Blend: DEF2-QZVPP-RI
	 Reference Energy          =    -168.7147124194650303 [Eh]
	 Singles Energy            =      -0.0000000000000000 [Eh]
	 Same-Spin Energy          =      -0.0025077012717485 [Eh]
	 Opposite-Spin Energy      =      -0.0211650074760960 [Eh]
	 Correlation Energy        =      -0.0236727087478445 [Eh]
	 Total Energy              =    -168.7383851282128830 [Eh]

	 ================> DF-SCS-MP2 Energies <==================
	-----------------------------------------------------------
	 SCS Same-Spin Scale       =       0.3333333333333333 [-]
	 SCS Opposite-Spin Scale   =       1.2000000000000000 [-]
	 SCS Same-Spin Energy      =      -0.0008359004239162 [Eh]
	 SCS Opposite-Spin Energy  =      -0.0253980089713152 [Eh]
	 SCS Correlation Energy    =      -0.0262339093952314 [Eh]
	 SCS Total Energy          =    -168.7409463288602751 [Eh]
	-----------------------------------------------------------

*** Psi4 exiting successfully. Buy a developer a beer!
