                               Psi4 1.9 release

  ==> Input File <==

--------------------------------------------------------------------------
MEMORY 60 GB

molecule dimer {
1 1
Li     0.000000     0.000000     0.000000
--
1 1
Na     1.958000     0.000000     0.000000

units ang
no_reorient
no_com
symmetry c1
}

set {
basis        aug-cc-pVTZ
scf_type     df
}

energy("mp2", bsse_type="cp")
--------------------------------------------------------------------------

                               Psi4 1.9 release
    Molecular point group: c1
  Charge       = 1
  Multiplicity = 1
  Basis Set: AUG-CC-PVTZ
    Blend: AUG-CC-PVTZ
  Basis Set: (AUG-CC-PVTZ AUX)
    Blend: DEF2-UNIVERSAL-JKFIT
  @DF-RHF Final Energy:  -161.67606277748823
    Total Energy =                       -161.6760627774882551
 Dipole X            :        -37.0015628           40.7009213            3.6993585
 Dipole Y            :          0.0000000            0.0000000            0.0000000
 Dipole Z            :         -0.0000000            0.0000000           -0.0000000
 Magnitude           :                                                    3.6993585
  Basis Set: (AUG-CC-PVTZ AUX)
    Blend: DEF2-QZVPP-RI
	 Reference Energy          =    -161.6760627774882266 [Eh]
	 Singles Energy            =      -0.0000000000000000 [Eh]
	 Same-Spin Energy          =      -0.0034670898415993 [Eh]
	 Opposite-Spin Energy      =      -0.0118843353302583 [Eh]
	 Correlation Energy        =      -0.0153514251718576 [Eh]
	 Total Energy              =    -161.6914142026600700 [Eh]
	 SCS Total Energy          =    -161.6914796764984033 [Eh]
                               Psi4 1.9 release
    Molecular point group: c1
  Multiplicity = 1
  Basis Set: AUG-CC-PVTZ
    Blend: AUG-CC-PVTZ
  Basis Set: (AUG-CC-PVTZ AUX)
    Blend: DEF2-UNIVERSAL-JKFIT
  @DF-RHF Final Energy:    -7.23638324209102
    Total Energy =                         -7.2363832420910201
  Basis Set: (AUG-CC-PVTZ AUX)
	 Singles Energy            =      -0.0000000000000000 [Eh]
	 Same-Spin Energy          =       0.0000000000000000 [Eh]
	 Opposite-Spin Energy      =      -0.0131479151903551 [Eh]
	 Correlation Energy        =      -0.0131479151903551 [Eh]
	 Total Energy              =      -7.2495311572813756 [Eh]
	 SCS Total Energy          =      -7.2521607403194466 [Eh]
                               Psi4 1.9 release
    Molecular point group: c1

    Geometry (in Bohr), charge = 2, multiplicity = 1:

       Center              X                  Y                   Z               Mass
    ------------   -----------------  -----------------  -----------------  -----------------
         LI           0.000000000000     0.000000000000     0.000000000000     7.016003436600
         NA           3.700083753646     0.000000000000     0.000000000000    22.989769282000

  Charge       = 2
  Multiplicity = 1
  Basis Set: AUG-CC-PVTZ
    Blend: AUG-CC-PVTZ
  Basis Set: (AUG-CC-PVTZ AUX)
    Blend: DEF2-UNIVERSAL-JKFIT

    Orbital Energies [Eh]
    ---------------------

    Doubly Occupied:

       1A    -41.035821     2A     -3.346743     3A     -3.060076
       4A     -2.073304     5A     -2.066477     6A     -2.066477

  @DF-RHF Final Energy:  -168.64337505785656

   => Energetics <=

    Nuclear Repulsion Energy =              8.9187170337640449
    One-Electron Energy =                -247.8263873208282746
    Two-Electron Energy =                  70.2642952292076615
    Total Energy =                       -168.6433750578565878
 Dipole X            :        -36.9796105           40.7009213            3.7213108
 Dipole Y            :         -0.0000000            0.0000000           -0.0000000
 Dipole Z            :          0.0000000            0.0000000            0.0000000
 Magnitude           :                                                    3.7213108
  Basis Set: (AUG-CC-PVTZ AUX)
    Blend: DEF2-QZVPP-RI
	 Reference Energy          =    -168.6433750578565594 [Eh]
	 Singles Energy            =      -0.0000000000000000 [Eh]
	 Same-Spin Energy          =      -0.0035698193221471 [Eh]
	 Opposite-Spin Energy      =      -0.0252971182621252 [Eh]
	 Correlation Energy        =      -0.0288669375842723 [Eh]
	 Total Energy              =    -168.6722419954408281 [Eh]

	 ================> DF-SCS-MP2 Energies <==================
	-----------------------------------------------------------
	 SCS Same-Spin Scale       =       0.3333333333333333 [-]
	 SCS Opposite-Spin Scale   =       1.2000000000000000 [-]
	 SCS Same-Spin Energy      =      -0.0011899397740490 [Eh]
	 SCS Opposite-Spin Energy  =      -0.0303565419145502 [Eh]
	 SCS Correlation Energy    =      -0.0315464816885992 [Eh]
	 SCS Total Energy          =    -168.6749215395451529 [Eh]
	-----------------------------------------------------------

*** Psi4 exiting successfully. Buy a developer a beer!
