                               Psi4 1.9 release

  ==> Input File <==

--------------------------------------------------------------------------
MEMORY 60 GB

molecule dimer {
1 1
Li     0.000000     0.000000     0.000000
--
1 1
Na     3.560000     0.000000     0.000000

units ang
no_reorient
no_com
symmetry c1
}

set {
basis        aug-cc-pVTZ
scf_type     df
}

energy("mp2", bsse_type="cp")
--------------------------------------------------------------------------

                               Psi4 1.9 release
    Molecular point group: c1
  Charge       = 1
  Multiplicity = 1
  Basis Set: AUG-CC-PVTZ
    Blend: AUG-CC-PVTZ
  Basis Set: (AUG-CC-PVTZ AUX)
    Blend: DEF2-UNIVERSAL-JKFIT
  @DF-RHF Final Energy:  -161.67603202983690
    Total Energy =                       -161.6760320298369038
 Dipole X            :        -67.2746538           74.0016751            6.7270212
 Dipole Y            :          0.0000000            0.0000000            0.0000000
 Dipole Z            :          0.0000000            0.0000000            0.0000000
 Magnitude           :                                                    6.7270212
  Basis Set: (AUG-CC-PVTZ AUX)
    Blend: DEF2-QZVPP-RI
	 Reference Energy          =    -161.6760320298369038 [Eh]
	 Singles Energy            =      -0.0000000000000000 [Eh]
	 Same-Spin Energy          =      -0.0021173565638958 [Eh]
	 Opposite-Spin Energy      =      -0.0083681911308240 [Eh]
	 Correlation Energy        =      -0.0104855476947198 [Eh]
	 Total Energy              =    -161.6865175775316175 [Eh]
	 SCS Total Energy          =    -161.6867796447151875 [Eh]
                               Psi4 1.9 release
    Molecular point group: c1
  Multiplicity = 1
  Basis Set: AUG-CC-PVTZ
    Blend: AUG-CC-PVTZ
  Basis Set: (AUG-CC-PVTZ AUX)
    Blend: DEF2-UNIVERSAL-JKFIT
  @DF-RHF Final Energy:    -7.23638294072404
    Total Energy =                         -7.2363829407240452
  Basis Set: (AUG-CC-PVTZ AUX)
	 Singles Energy            =      -0.0000000000000000 [Eh]
	 Same-Spin Energy          =       0.0000000000000000 [Eh]
	 Opposite-Spin Energy      =      -0.0112806629496995 [Eh]
	 Correlation Energy        =      -0.0112806629496995 [Eh]
	 Total Energy              =      -7.2476636036737441 [Eh]
	 SCS Total Energy          =      -7.2499197362636840 [Eh]
                               Psi4 1.9 release
    Molecular point group: c1

    Geometry (in Bohr), charge = 2, multiplicity = 1:

       Center              X                  Y                   Z               Mass
    ------------   -----------------  -----------------  -----------------  -----------------
         LI           0.000000000000     0.000000000000     0.000000000000     7.016003436600
         NA           6.727425006630     0.000000000000     0.000000000000    22.989769282000

  Charge       = 2
  Multiplicity = 1
  Basis Set: AUG-CC-PVTZ
    Blend: AUG-CC-PVTZ
  Basis Set: (AUG-CC-PVTZ AUX)
    Blend: DEF2-UNIVERSAL-JKFIT

    Orbital Energies [Eh]
    ---------------------

    Doubly Occupied:

       1A    -40.912467     2A     -3.224079     3A     -2.940830
       4A     -1.948048     5A     -1.946689     6A     -1.946689

  @DF-RHF Final Energy:  -168.76390493249227

   => Energetics <=

    Nuclear Repulsion Energy =              4.9052943685702246
    One-Electron Energy =                -241.5007926615994052
    Two-Electron Energy =                  67.8315933605369139
    Total Energy =                       -168.7639049324922667
 Dipole X            :        -67.2678307           74.0016751            6.7338444
 Dipole Y            :         -0.0000000            0.0000000           -0.0000000
 Dipole Z            :          0.0000000            0.0000000            0.0000000
 Magnitude           :                                                    6.7338444
  Basis Set: (AUG-CC-PVTZ AUX)
    Blend: DEF2-QZVPP-RI
	 Reference Energy          =    -168.7639049324922667 [Eh]
	 Singles Energy            =      -0.0000000000000000 [Eh]
	 Same-Spin Energy          =      -0.0021251060480493 [Eh]
	 Opposite-Spin Energy      =      -0.0196695139074014 [Eh]
	 Correlation Energy        =      -0.0217946199554507 [Eh]
	 Total Energy              =    -168.7856995524477099 [Eh]

	 ================> DF-SCS-MP2 Energies <==================
	-----------------------------------------------------------
	 SCS Same-Spin Scale       =       0.3333333333333333 [-]
	 SCS Opposite-Spin Scale   =       1.2000000000000000 [-]
	 SCS Same-Spin Energy      =      -0.0007083686826831 [Eh]
	 SCS Opposite-Spin Energy  =      -0.0236034166888817 [Eh]
	 SCS Correlation Energy    =      -0.0243117853715648 [Eh]
	 SCS Total Energy          =    -168.7882167178638326 [Eh]
	-----------------------------------------------------------

*** Psi4 exiting successfully. Buy a developer a beer!
