                               Psi4 1.9 release

  ==> Input File <==

--------------------------------------------------------------------------
MEMORY 60 GB

molecule dimer {
1 1
Li     0.000000     0.000000     0.000000
--
1 1
Na     2.314000     0.000000     0.000000

units ang
no_reorient
no_com
symmetry c1
}

set {
basis        aug-cc-pVTZ
scf_type     df
}

energy("mp2", bsse_type="cp")
--------------------------------------------------------------------------

                               Psi4 1.9 release
    Molecular point group: c1
  Charge       = 1
  Multiplicity = 1
  Basis Set: AUG-CC-PVTZ
    Blend: AUG-CC-PVTZ
  Basis Set: (AUG-CC-PVTZ AUX)
    Blend: DEF2-UNIVERSAL-JKFIT
  @DF-RHF Final Energy:  -161.67605764017742
    Total Energy =                       -161.6760576401774188
 Dipole X            :        -43.7289196           48.1010888            4.3721692
 Dipole Y            :          0.0000000            0.0000000            0.0000000
 Dipole Z            :         -0.0000000            0.0000000           -0.0000000
 Magnitude           :                                                    4.3721692
  Basis Set: (AUG-CC-PVTZ AUX)
    Blend: DEF2-QZVPP-RI
	 Reference Energy          =    -161.6760576401774188 [Eh]
	 Singles Energy            =      -0.0000000000000000 [Eh]
	 Same-Spin Energy          =      -0.0027881259111453 [Eh]
	 Opposite-Spin Energy      =      -0.0101239470313537 [Eh]
	 Correlation Energy        =      -0.0129120729424990 [Eh]
	 Total Energy              =    -161.6889697131199171 [Eh]
	 SCS Total Energy          =    -161.6891357519187693 [Eh]
                               Psi4 1.9 release
    Molecular point group: c1
  Multiplicity = 1
  Basis Set: AUG-CC-PVTZ
    Blend: AUG-CC-PVTZ
  Basis Set: (AUG-CC-PVTZ AUX)
    Blend: DEF2-UNIVERSAL-JKFIT
  @DF-RHF Final Energy:    -7.23638307849184
    Total Energy =                         -7.2363830784918370
  Basis Set: (AUG-CC-PVTZ AUX)
	 Singles Energy            =      -0.0000000000000000 [Eh]
	 Same-Spin Energy          =       0.0000000000000000 [Eh]
	 Opposite-Spin Energy      =      -0.0123664293388449 [Eh]
	 Correlation Energy        =      -0.0123664293388449 [Eh]
	 Total Energy              =      -7.2487495078306816 [Eh]
	 SCS Total Energy          =      -7.2512227936984512 [Eh]
                               Psi4 1.9 release
    Molecular point group: c1

    Geometry (in Bohr), charge = 2, multiplicity = 1:

       Center              X                  Y                   Z               Mass
    ------------   -----------------  -----------------  -----------------  -----------------
         LI           0.000000000000     0.000000000000     0.000000000000     7.016003436600
         NA           4.372826254309     0.000000000000     0.000000000000    22.989769282000

  Charge       = 2
  Multiplicity = 1
  Basis Set: AUG-CC-PVTZ
    Blend: AUG-CC-PVTZ
  Basis Set: (AUG-CC-PVTZ AUX)
    Blend: DEF2-UNIVERSAL-JKFIT

    Orbital Energies [Eh]
    ---------------------

    Doubly Occupied:

       1A    -40.992901     2A     -3.304416     3A     -3.019846
       4A     -2.030011     5A     -2.025628     6A     -2.025628

  @DF-RHF Final Energy:  -168.68460401896272

   => Energetics <=

    Nuclear Repulsion Energy =              7.5466067208772687
    One-Electron Energy =                -245.6655637267887755
    Two-Electron Energy =                  69.4343529869487810
    Total Energy =                       -168.6846040189627161
 Dipole X            :        -43.7129925           48.1010888            4.3880963
 Dipole Y            :          0.0000000            0.0000000            0.0000000
 Dipole Z            :         -0.0000000            0.0000000           -0.0000000
 Magnitude           :                                                    4.3880963
  Basis Set: (AUG-CC-PVTZ AUX)
    Blend: DEF2-QZVPP-RI
	 Reference Energy          =    -168.6846040189627161 [Eh]
	 Singles Energy            =      -0.0000000000000000 [Eh]
	 Same-Spin Energy          =      -0.0028355648731200 [Eh]
	 Opposite-Spin Energy      =      -0.0226216287809850 [Eh]
	 Correlation Energy        =      -0.0254571936541050 [Eh]
	 Total Energy              =    -168.7100612126168073 [Eh]

	 ================> DF-SCS-MP2 Energies <==================
	-----------------------------------------------------------
	 SCS Same-Spin Scale       =       0.3333333333333333 [-]
	 SCS Opposite-Spin Scale   =       1.2000000000000000 [-]
	 SCS Same-Spin Energy      =      -0.0009451882910400 [Eh]
	 SCS Opposite-Spin Energy  =      -0.0271459545371819 [Eh]
	 SCS Correlation Energy    =      -0.0280911428282219 [Eh]
	 SCS Total Energy          =    -168.7126951617909469 [Eh]
	-----------------------------------------------------------

*** Psi4 exiting successfully. Buy a developer a beer!
