                               Psi4 1.9 release

  ==> Input File <==

--------------------------------------------------------------------------
MEMORY 60 GB

molecule dimer {
1 1
Li     0.000000     0.000000     0.000000
--
1 1
Na     1.780000     0.000000     0.000000

units ang
no_reorient
no_com
symmetry c1
}

set {
basis        aug-cc-pVTZ
scf_type     df
}

energy("mp2", bsse_type="cp")
--------------------------------------------------------------------------

                               Psi4 1.9 release
    Molecular point group: c1
  Charge       = 1
  Multiplicity = 1
  Basis Set: AUG-CC-PVTZ
    Blend: AUG-CC-PVTZ
  Basis Set: (AUG-CC-PVTZ AUX)
    Blend: DEF2-UNIVERSAL-JKFIT
  @DF-RHF Final Energy:  -161.67606457322697
    Total Energy =                       -161.6760645732269950
 Dipole X            :        -33.6379280           37.0008375            3.3629095
 Dipole Y            :          0.0000000            0.0000000            0.0000000
 Dipole Z            :         -0.0000000            0.0000000           -0.0000000
 Magnitude           :                                                    3.3629095
  Basis Set: (AUG-CC-PVTZ AUX)
    Blend: DEF2-QZVPP-RI
	 Reference Energy          =    -161.6760645732269666 [Eh]
	 Singles Energy            =      -0.0000000000000000 [Eh]
	 Same-Spin Energy          =      -0.0040699230672548 [Eh]
	 Opposite-Spin Energy      =      -0.0134001516294975 [Eh]
	 Correlation Energy        =      -0.0174700746967523 [Eh]
	 Total Energy              =    -161.6935346479237126 [Eh]
	 SCS Total Energy          =    -161.6935013962047947 [Eh]
                               Psi4 1.9 release
    Molecular point group: c1
  Multiplicity = 1
  Basis Set: AUG-CC-PVTZ
    Blend: AUG-CC-PVTZ
  Basis Set: (AUG-CC-PVTZ AUX)
    Blend: DEF2-UNIVERSAL-JKFIT
  @DF-RHF Final Energy:    -7.23638340935083
    Total Energy =                         -7.2363834093508324
  Basis Set: (AUG-CC-PVTZ AUX)
	 Singles Energy            =      -0.0000000000000000 [Eh]
	 Same-Spin Energy          =       0.0000000000000000 [Eh]
	 Opposite-Spin Energy      =      -0.0135234574655667 [Eh]
	 Correlation Energy        =      -0.0135234574655667 [Eh]
	 Total Energy              =      -7.2499068668163993 [Eh]
	 SCS Total Energy          =      -7.2526115583095123 [Eh]
                               Psi4 1.9 release
    Molecular point group: c1

    Geometry (in Bohr), charge = 2, multiplicity = 1:

       Center              X                  Y                   Z               Mass
    ------------   -----------------  -----------------  -----------------  -----------------
         LI           0.000000000000     0.000000000000     0.000000000000     7.016003436600
         NA           3.363712503315     0.000000000000     0.000000000000    22.989769282000

  Charge       = 2
  Multiplicity = 1
  Basis Set: AUG-CC-PVTZ
    Blend: AUG-CC-PVTZ
  Basis Set: (AUG-CC-PVTZ AUX)
    Blend: DEF2-UNIVERSAL-JKFIT

    Orbital Energies [Eh]
    ---------------------

    Doubly Occupied:

       1A    -41.063303     2A     -3.374270     3A     -3.085922
       4A     -2.101140     5A     -2.092425     6A     -2.092425

  @DF-RHF Final Energy:  -168.61574766400980

   => Energetics <=

    Nuclear Repulsion Energy =              9.8105887371404492
    One-Electron Energy =                -249.2337009660447222
    Two-Electron Energy =                  70.8073645648944847
    Total Energy =                       -168.6157476640098025
 Dipole X            :        -33.6126518           37.0008375            3.3881858
 Dipole Y            :          0.0000000            0.0000000            0.0000000
 Dipole Z            :         -0.0000000            0.0000000           -0.0000000
 Magnitude           :                                                    3.3881858
  Basis Set: (AUG-CC-PVTZ AUX)
    Blend: DEF2-QZVPP-RI
	 Reference Energy          =    -168.6157476640098025 [Eh]
	 Singles Energy            =      -0.0000000000000000 [Eh]
	 Same-Spin Energy          =      -0.0042198440230041 [Eh]
	 Opposite-Spin Energy      =      -0.0272698145528450 [Eh]
	 Correlation Energy        =      -0.0314896585758491 [Eh]
	 Total Energy              =    -168.6472373225856529 [Eh]

	 ================> DF-SCS-MP2 Energies <==================
	-----------------------------------------------------------
	 SCS Same-Spin Scale       =       0.3333333333333333 [-]
	 SCS Opposite-Spin Scale   =       1.2000000000000000 [-]
	 SCS Same-Spin Energy      =      -0.0014066146743347 [Eh]
	 SCS Opposite-Spin Energy  =      -0.0327237774634140 [Eh]
	 SCS Correlation Energy    =      -0.0341303921377487 [Eh]
	 SCS Total Energy          =    -168.6498780561475428 [Eh]
	-----------------------------------------------------------

*** Psi4 exiting successfully. Buy a developer a beer!
