                               Psi4 1.9 release

  ==> Input File <==

--------------------------------------------------------------------------
MEMORY 60 GB

molecule dimer {
1 1
Li     0.000000     0.000000     0.000000
--
1 1
Na     2.136000     0.000000     0.000000

units ang
no_reorient
no_com
symmetry c1
}

set {
basis        aug-cc-pVTZ
scf_type     df
}

energy("mp2", bsse_type="cp")
--------------------------------------------------------------------------

                               Psi4 1.9 release
    Molecular point group: c1
  Charge       = 1
  Multiplicity = 1
  Basis Set: AUG-CC-PVTZ
    Blend: AUG-CC-PVTZ
  Basis Set: (AUG-CC-PVTZ AUX)
    Blend: DEF2-UNIVERSAL-JKFIT
  @DF-RHF Final Energy:  -161.67606045524425
    Total Energy =                       -161.6760604552442260
 Dipole X            :        -40.3652339           44.4010050            4.0357711
 Dipole Y            :          0.0000000            0.0000000            0.0000000
 Dipole Z            :          0.0000000            0.0000000            0.0000000
 Magnitude           :                                                    4.0357711
  Basis Set: (AUG-CC-PVTZ AUX)
    Blend: DEF2-QZVPP-RI
	 Reference Energy          =    -161.6760604552442544 [Eh]
	 Singles Energy            =      -0.0000000000000000 [Eh]
	 Same-Spin Energy          =      -0.0030503879648646 [Eh]
	 Opposite-Spin Energy      =      -0.0108147214810833 [Eh]
	 Correlation Energy        =      -0.0138651094459479 [Eh]
	 Total Energy              =    -161.6899255646902134 [Eh]
	 SCS Total Energy          =    -161.6900549170098316 [Eh]
                               Psi4 1.9 release
    Molecular point group: c1
  Multiplicity = 1
  Basis Set: AUG-CC-PVTZ
    Blend: AUG-CC-PVTZ
  Basis Set: (AUG-CC-PVTZ AUX)
    Blend: DEF2-UNIVERSAL-JKFIT
  @DF-RHF Final Energy:    -7.23638311167199
    Total Energy =                         -7.2363831116719943
  Basis Set: (AUG-CC-PVTZ AUX)
	 Singles Energy            =      -0.0000000000000000 [Eh]
	 Same-Spin Energy          =      -0.0000000000000000 [Eh]
	 Opposite-Spin Energy      =      -0.0127573975645488 [Eh]
	 Correlation Energy        =      -0.0127573975645488 [Eh]
	 Total Energy              =      -7.2491405092365433 [Eh]
	 SCS Total Energy          =      -7.2516919887494531 [Eh]
                               Psi4 1.9 release
    Molecular point group: c1

    Geometry (in Bohr), charge = 2, multiplicity = 1:

       Center              X                  Y                   Z               Mass
    ------------   -----------------  -----------------  -----------------  -----------------
         LI           0.000000000000     0.000000000000     0.000000000000     7.016003436600
         NA           4.036455003978     0.000000000000     0.000000000000    22.989769282000

  Charge       = 2
  Multiplicity = 1
  Basis Set: AUG-CC-PVTZ
    Blend: AUG-CC-PVTZ
  Basis Set: (AUG-CC-PVTZ AUX)
    Blend: DEF2-UNIVERSAL-JKFIT

    Orbital Energies [Eh]
    ---------------------

    Doubly Occupied:

       1A    -41.012544     2A     -3.323786     3A     -3.038358
       4A     -2.049842     5A     -2.044419     6A     -2.044419

  @DF-RHF Final Energy:  -168.66578741460660

   => Energetics <=

    Nuclear Repulsion Energy =              8.1754906142837083
    One-Electron Energy =                -246.6558189194802821
    Two-Electron Energy =                  69.8145408905899671
    Total Energy =                       -168.6657874146065978
 Dipole X            :        -40.3465958           44.4010050            4.0544092
 Dipole Y            :         -0.0000000            0.0000000           -0.0000000
 Dipole Z            :         -0.0000000            0.0000000           -0.0000000
 Magnitude           :                                                    4.0544092
  Basis Set: (AUG-CC-PVTZ AUX)
    Blend: DEF2-QZVPP-RI
	 Reference Energy          =    -168.6657874146065978 [Eh]
	 Singles Energy            =      -0.0000000000000000 [Eh]
	 Same-Spin Energy          =      -0.0031191883367315 [Eh]
	 Opposite-Spin Energy      =      -0.0237591844879587 [Eh]
	 Correlation Energy        =      -0.0268783728246902 [Eh]
	 Total Energy              =    -168.6926657874312809 [Eh]

	 ================> DF-SCS-MP2 Energies <==================
	-----------------------------------------------------------
	 SCS Same-Spin Scale       =       0.3333333333333333 [-]
	 SCS Opposite-Spin Scale   =       1.2000000000000000 [-]
	 SCS Same-Spin Energy      =      -0.0010397294455772 [Eh]
	 SCS Opposite-Spin Energy  =      -0.0285110213855504 [Eh]
	 SCS Correlation Energy    =      -0.0295507508311276 [Eh]
	 SCS Total Energy          =    -168.6953381654377324 [Eh]
	-----------------------------------------------------------

*** Psi4 exiting successfully. Buy a developer a beer!
