                               Psi4 1.9 release

  ==> Input File <==

--------------------------------------------------------------------------
MEMORY 60 GB

molecule dimer {
1 1
Li     0.000000     0.000000     0.000000
--
1 1
K      3.210000     0.000000     0.000000

units ang
no_reorient
no_com
symmetry c1
}

set {
basis        aug-cc-pVTZ
scf_type     df
}

energy("mp2", bsse_type="cp")
--------------------------------------------------------------------------

                               Psi4 1.9 release
    Molecular point group: c1
  Charge       = 1
  Multiplicity = 1
  Basis Set: AUG-CC-PVTZ
    Blend: AUG-CC-PVTZ
  Basis Set: (AUG-CC-PVTZ AUX)
    Blend: DEF2-UNIVERSAL-JKFIT
  @DF-RHF Final Energy:  -599.01750842109755
    Total Energy =                       -599.0175084210975456
 Dipole X            :       -109.1886821          115.2543964            6.0657143
 Dipole Y            :         -0.0000000            0.0000000           -0.0000000
 Dipole Z            :          0.0000000            0.0000000            0.0000000
 Magnitude           :                                                    6.0657143
  Basis Set: (AUG-CC-PVTZ AUX)
    Blend: DEF2-QZVPP-RI
	 Reference Energy          =    -599.0175084210975456 [Eh]
	 Singles Energy            =      -0.0000000000000000 [Eh]
	 Same-Spin Energy          =      -0.0278642053953533 [Eh]
	 Opposite-Spin Energy      =      -0.0651642730582734 [Eh]
	 Correlation Energy        =      -0.0930284784536266 [Eh]
	 Total Energy              =    -599.1105368995512208 [Eh]
	 SCS Total Energy          =    -599.1049936172325943 [Eh]
                               Psi4 1.9 release
    Molecular point group: c1
  Multiplicity = 1
  Basis Set: AUG-CC-PVTZ
    Blend: AUG-CC-PVTZ
  Basis Set: (AUG-CC-PVTZ AUX)
    Blend: DEF2-UNIVERSAL-JKFIT
  @DF-RHF Final Energy:    -7.23638301109859
    Total Energy =                         -7.2363830110985852
  Basis Set: (AUG-CC-PVTZ AUX)
	 Singles Energy            =      -0.0000000000000000 [Eh]
	 Same-Spin Energy          =       0.0000000000000000 [Eh]
	 Opposite-Spin Energy      =      -0.0113829603786866 [Eh]
	 Correlation Energy        =      -0.0113829603786866 [Eh]
	 Total Energy              =      -7.2477659714772722 [Eh]
	 SCS Total Energy          =      -7.2500425635530092 [Eh]
                               Psi4 1.9 release
    Molecular point group: c1

    Geometry (in Bohr), charge = 2, multiplicity = 1:

       Center              X                  Y                   Z               Mass
    ------------   -----------------  -----------------  -----------------  -----------------
         LI           0.000000000000     0.000000000000     0.000000000000     7.016003436600
         K            6.066020862720     0.000000000000     0.000000000000    38.963706486400

  Charge       = 2
  Multiplicity = 1
  Basis Set: AUG-CC-PVTZ
    Blend: AUG-CC-PVTZ
  Basis Set: (AUG-CC-PVTZ AUX)
    Blend: DEF2-UNIVERSAL-JKFIT

    Orbital Energies [Eh]
    ---------------------

    Doubly Occupied:

       1A   -133.921583     2A    -14.876496     3A    -11.906750
       4A    -11.906511     5A    -11.906511     6A     -2.953065
       7A     -2.130496     8A     -1.340766     9A     -1.335029
      10A     -1.335029

  @DF-RHF Final Energy:  -606.09113071611034

   => Energetics <=

    Nuclear Repulsion Energy =              9.3966046754485983
    One-Electron Energy =                -843.7509961445560975
    Two-Electron Energy =                 228.2632607529971551
    Total Energy =                       -606.0911307161104560
 Dipole X            :       -109.0495564          115.2543964            6.2048399
 Dipole Y            :          0.0000000            0.0000000            0.0000000
 Dipole Z            :         -0.0000000            0.0000000           -0.0000000
 Magnitude           :                                                    6.2048399
  Basis Set: (AUG-CC-PVTZ AUX)
    Blend: DEF2-QZVPP-RI
	 Reference Energy          =    -606.0911307161103423 [Eh]
	 Singles Energy            =      -0.0000000000000000 [Eh]
	 Same-Spin Energy          =      -0.0278146570716557 [Eh]
	 Opposite-Spin Energy      =      -0.0764700536153280 [Eh]
	 Correlation Energy        =      -0.1042847106869837 [Eh]
	 Total Energy              =    -606.1954154267973536 [Eh]

	 ================> DF-SCS-MP2 Energies <==================
	-----------------------------------------------------------
	 SCS Same-Spin Scale       =       0.3333333333333333 [-]
	 SCS Opposite-Spin Scale   =       1.2000000000000000 [-]
	 SCS Same-Spin Energy      =      -0.0092715523572186 [Eh]
	 SCS Opposite-Spin Energy  =      -0.0917640643383937 [Eh]
	 SCS Correlation Energy    =      -0.1010356166956122 [Eh]
	 SCS Total Energy          =    -606.1921663328059822 [Eh]
	-----------------------------------------------------------

*** Psi4 exiting successfully. Buy a developer a beer!
