                               Psi4 1.9 release

  ==> Input File <==

--------------------------------------------------------------------------
MEMORY 60 GB

molecule dimer {
1 1
Li     0.000000     0.000000     0.000000
--
1 1
K      2.568000     0.000000     0.000000

units ang
no_reorient
no_com
symmetry c1
}

set {
basis        aug-cc-pVTZ
scf_type     df
}

energy("mp2", bsse_type="cp")
--------------------------------------------------------------------------

                               Psi4 1.9 release
    Molecular point group: c1
  Charge       = 1
  Multiplicity = 1
  Basis Set: AUG-CC-PVTZ
    Blend: AUG-CC-PVTZ
  Basis Set: (AUG-CC-PVTZ AUX)
    Blend: DEF2-UNIVERSAL-JKFIT
  @DF-RHF Final Energy:  -599.01750958348350
    Total Energy =                       -599.0175095834835020
 Dipole X            :        -87.3511628           92.2035171            4.8523543
 Dipole Y            :         -0.0000000            0.0000000           -0.0000000
 Dipole Z            :          0.0000000            0.0000000            0.0000000
 Magnitude           :                                                    4.8523543
  Basis Set: (AUG-CC-PVTZ AUX)
    Blend: DEF2-QZVPP-RI
	 Reference Energy          =    -599.0175095834835020 [Eh]
	 Singles Energy            =      -0.0000000000000000 [Eh]
	 Same-Spin Energy          =      -0.0303691828002429 [Eh]
	 Opposite-Spin Energy      =      -0.0719964904295101 [Eh]
	 Correlation Energy        =      -0.1023656732297531 [Eh]
	 Total Energy              =    -599.1198752567132715 [Eh]
	 SCS Total Energy          =    -599.1140284329322867 [Eh]
                               Psi4 1.9 release
    Molecular point group: c1
  Multiplicity = 1
  Basis Set: AUG-CC-PVTZ
    Blend: AUG-CC-PVTZ
  Basis Set: (AUG-CC-PVTZ AUX)
    Blend: DEF2-UNIVERSAL-JKFIT
  @DF-RHF Final Energy:    -7.23638299268754
    Total Energy =                         -7.2363829926875383
  Basis Set: (AUG-CC-PVTZ AUX)
	 Singles Energy            =      -0.0000000000000000 [Eh]
	 Same-Spin Energy          =       0.0000000000000000 [Eh]
	 Opposite-Spin Energy      =      -0.0115001942653588 [Eh]
	 Correlation Energy        =      -0.0115001942653588 [Eh]
	 Total Energy              =      -7.2478831869528975 [Eh]
	 SCS Total Energy          =      -7.2501832258059684 [Eh]
                               Psi4 1.9 release
    Molecular point group: c1

    Geometry (in Bohr), charge = 2, multiplicity = 1:

       Center              X                  Y                   Z               Mass
    ------------   -----------------  -----------------  -----------------  -----------------
         LI           0.000000000000     0.000000000000     0.000000000000     7.016003436600
         K            4.852816690176     0.000000000000     0.000000000000    38.963706486400

  Charge       = 2
  Multiplicity = 1
  Basis Set: AUG-CC-PVTZ
    Blend: AUG-CC-PVTZ
  Basis Set: (AUG-CC-PVTZ AUX)
    Blend: DEF2-UNIVERSAL-JKFIT

    Orbital Energies [Eh]
    ---------------------

    Doubly Occupied:

       1A   -133.966643     2A    -14.920813     3A    -11.951251
       4A    -11.950776     5A    -11.950776     6A     -2.987460
       7A     -2.173301     8A     -1.386833     9A     -1.375812
      10A     -1.375812

  @DF-RHF Final Energy:  -606.05288671165317

   => Energetics <=

    Nuclear Repulsion Energy =             11.7457558443107466
    One-Electron Energy =                -847.5183279176228552
    Two-Electron Energy =                 229.7196853616587759
    Total Energy =                       -606.0528867116532865
 Dipole X            :        -87.1286079           92.2035171            5.0749092
 Dipole Y            :         -0.0000000            0.0000000           -0.0000000
 Dipole Z            :          0.0000000            0.0000000            0.0000000
 Magnitude           :                                                    5.0749092
  Basis Set: (AUG-CC-PVTZ AUX)
    Blend: DEF2-QZVPP-RI
	 Reference Energy          =    -606.0528867116531728 [Eh]
	 Singles Energy            =      -0.0000000000000000 [Eh]
	 Same-Spin Energy          =      -0.0302891717575244 [Eh]
	 Opposite-Spin Energy      =      -0.0834317974817509 [Eh]
	 Correlation Energy        =      -0.1137209692392754 [Eh]
	 Total Energy              =    -606.1666076808924117 [Eh]

	 ================> DF-SCS-MP2 Energies <==================
	-----------------------------------------------------------
	 SCS Same-Spin Scale       =       0.3333333333333333 [-]
	 SCS Opposite-Spin Scale   =       1.2000000000000000 [-]
	 SCS Same-Spin Energy      =      -0.0100963905858415 [Eh]
	 SCS Opposite-Spin Energy  =      -0.1001181569781011 [Eh]
	 SCS Correlation Energy    =      -0.1102145475639426 [Eh]
	 SCS Total Energy          =    -606.1631012592171146 [Eh]
	-----------------------------------------------------------

*** Psi4 exiting successfully. Buy a developer a beer!
