                               Psi4 1.9 release

  ==> Input File <==

--------------------------------------------------------------------------
MEMORY 60 GB

molecule dimer {
1 1
Li     0.000000     0.000000     0.000000
--
1 1
K      2.996000     0.000000     0.000000

units ang
no_reorient
no_com
symmetry c1
}

set {
basis        aug-cc-pVTZ
scf_type     df
}

energy("mp2", bsse_type="cp")
--------------------------------------------------------------------------

                               Psi4 1.9 release
    Molecular point group: c1
  Charge       = 1
  Multiplicity = 1
  Basis Set: AUG-CC-PVTZ
    Blend: AUG-CC-PVTZ
  Basis Set: (AUG-CC-PVTZ AUX)
    Blend: DEF2-UNIVERSAL-JKFIT
  @DF-RHF Final Energy:  -599.01750878842495
    Total Energy =                       -599.0175087884249479
 Dipole X            :       -101.9095052          107.5707700            5.6612648
 Dipole Y            :         -0.0000000            0.0000000           -0.0000000
 Dipole Z            :         -0.0000000            0.0000000           -0.0000000
 Magnitude           :                                                    5.6612648
  Basis Set: (AUG-CC-PVTZ AUX)
    Blend: DEF2-QZVPP-RI
	 Reference Energy          =    -599.0175087884249479 [Eh]
	 Singles Energy            =      -0.0000000000000000 [Eh]
	 Same-Spin Energy          =      -0.0284689546123278 [Eh]
	 Opposite-Spin Energy      =      -0.0668440627570173 [Eh]
	 Correlation Energy        =      -0.0953130173693451 [Eh]
	 Total Energy              =    -599.1128218057942831 [Eh]
	 SCS Total Energy          =    -599.1072113152707743 [Eh]
                               Psi4 1.9 release
    Molecular point group: c1
  Multiplicity = 1
  Basis Set: AUG-CC-PVTZ
    Blend: AUG-CC-PVTZ
  Basis Set: (AUG-CC-PVTZ AUX)
    Blend: DEF2-UNIVERSAL-JKFIT
  @DF-RHF Final Energy:    -7.23638299443931
    Total Energy =                         -7.2363829944393130
  Basis Set: (AUG-CC-PVTZ AUX)
	 Singles Energy            =      -0.0000000000000000 [Eh]
	 Same-Spin Energy          =       0.0000000000000000 [Eh]
	 Opposite-Spin Energy      =      -0.0114139225146839 [Eh]
	 Correlation Energy        =      -0.0114139225146839 [Eh]
	 Total Energy              =      -7.2477969169539982 [Eh]
	 SCS Total Energy          =      -7.2500797014569347 [Eh]
                               Psi4 1.9 release
    Molecular point group: c1

    Geometry (in Bohr), charge = 2, multiplicity = 1:

       Center              X                  Y                   Z               Mass
    ------------   -----------------  -----------------  -----------------  -----------------
         LI           0.000000000000     0.000000000000     0.000000000000     7.016003436600
         K            5.661619471872     0.000000000000     0.000000000000    38.963706486400

  Charge       = 2
  Multiplicity = 1
  Basis Set: AUG-CC-PVTZ
    Blend: AUG-CC-PVTZ
  Basis Set: (AUG-CC-PVTZ AUX)
    Blend: DEF2-UNIVERSAL-JKFIT

    Orbital Energies [Eh]
    ---------------------

    Doubly Occupied:

       1A   -133.934389     2A    -14.889114     3A    -11.919414
       4A    -11.919117     5A    -11.919117     6A     -2.963348
       7A     -2.142709     8A     -1.353783     9A     -1.346756
      10A     -1.346756

  @DF-RHF Final Energy:  -606.08006733904574

   => Energetics <=

    Nuclear Repulsion Energy =             10.0677907236949267
    One-Electron Energy =                -844.8267094790314786
    Two-Electron Energy =                 228.6788514162909109
    Total Energy =                       -606.0800673390456268
 Dipole X            :       -101.7476485          107.5707700            5.8231215
 Dipole Y            :          0.0000000            0.0000000            0.0000000
 Dipole Z            :          0.0000000            0.0000000            0.0000000
 Magnitude           :                                                    5.8231215
  Basis Set: (AUG-CC-PVTZ AUX)
    Blend: DEF2-QZVPP-RI
	 Reference Energy          =    -606.0800673390457405 [Eh]
	 Singles Energy            =      -0.0000000000000000 [Eh]
	 Same-Spin Energy          =      -0.0284134284710369 [Eh]
	 Opposite-Spin Energy      =      -0.0781841302709567 [Eh]
	 Correlation Energy        =      -0.1065975587419937 [Eh]
	 Total Energy              =    -606.1866648977877503 [Eh]

	 ================> DF-SCS-MP2 Energies <==================
	-----------------------------------------------------------
	 SCS Same-Spin Scale       =       0.3333333333333333 [-]
	 SCS Opposite-Spin Scale   =       1.2000000000000000 [-]
	 SCS Same-Spin Energy      =      -0.0094711428236790 [Eh]
	 SCS Opposite-Spin Energy  =      -0.0938209563251481 [Eh]
	 SCS Correlation Energy    =      -0.1032920991488271 [Eh]
	 SCS Total Energy          =    -606.1833594381945431 [Eh]
	-----------------------------------------------------------

*** Psi4 exiting successfully. Buy a developer a beer!
