                               Psi4 1.9 release

  ==> Input File <==

--------------------------------------------------------------------------
MEMORY 60 GB

molecule dimer {
1 1
Li     0.000000     0.000000     0.000000
--
1 1
K      2.782000     0.000000     0.000000

units ang
no_reorient
no_com
symmetry c1
}

set {
basis        aug-cc-pVTZ
scf_type     df
}

energy("mp2", bsse_type="cp")
--------------------------------------------------------------------------

                               Psi4 1.9 release
    Molecular point group: c1
  Charge       = 1
  Multiplicity = 1
  Basis Set: AUG-CC-PVTZ
    Blend: AUG-CC-PVTZ
  Basis Set: (AUG-CC-PVTZ AUX)
    Blend: DEF2-UNIVERSAL-JKFIT
  @DF-RHF Final Energy:  -599.01750912837429
    Total Energy =                       -599.0175091283742859
 Dipole X            :        -94.6303285           99.8871435            5.2568150
 Dipole Y            :          0.0000000            0.0000000            0.0000000
 Dipole Z            :          0.0000000            0.0000000            0.0000000
 Magnitude           :                                                    5.2568150
  Basis Set: (AUG-CC-PVTZ AUX)
    Blend: DEF2-QZVPP-RI
	 Reference Energy          =    -599.0175091283742859 [Eh]
	 Singles Energy            =      -0.0000000000000000 [Eh]
	 Same-Spin Energy          =      -0.0293221871816010 [Eh]
	 Opposite-Spin Energy      =      -0.0691469566698279 [Eh]
	 Correlation Energy        =      -0.0984691438514289 [Eh]
	 Total Energy              =    -599.1159782722256750 [Eh]
	 SCS Total Energy          =    -599.1102595387719703 [Eh]
                               Psi4 1.9 release
    Molecular point group: c1
  Multiplicity = 1
  Basis Set: AUG-CC-PVTZ
    Blend: AUG-CC-PVTZ
  Basis Set: (AUG-CC-PVTZ AUX)
    Blend: DEF2-UNIVERSAL-JKFIT
  @DF-RHF Final Energy:    -7.23638298759135
    Total Energy =                         -7.2363829875913526
  Basis Set: (AUG-CC-PVTZ AUX)
	 Singles Energy            =      -0.0000000000000000 [Eh]
	 Same-Spin Energy          =       0.0000000000000000 [Eh]
	 Opposite-Spin Energy      =      -0.0114551309383446 [Eh]
	 Correlation Energy        =      -0.0114551309383446 [Eh]
	 Total Energy              =      -7.2478381185296969 [Eh]
	 SCS Total Energy          =      -7.2501291447173664 [Eh]
                               Psi4 1.9 release
    Molecular point group: c1

    Geometry (in Bohr), charge = 2, multiplicity = 1:

       Center              X                  Y                   Z               Mass
    ------------   -----------------  -----------------  -----------------  -----------------
         LI           0.000000000000     0.000000000000     0.000000000000     7.016003436600
         K            5.257218081024     0.000000000000     0.000000000000    38.963706486400

  Charge       = 2
  Multiplicity = 1
  Basis Set: AUG-CC-PVTZ
    Blend: AUG-CC-PVTZ
  Basis Set: (AUG-CC-PVTZ AUX)
    Blend: DEF2-UNIVERSAL-JKFIT

    Orbital Energies [Eh]
    ---------------------

    Doubly Occupied:

       1A   -133.949295     2A    -14.903773     3A    -11.934133
       4A    -11.933760     5A    -11.933760     6A     -2.974759
       7A     -2.156852     8A     -1.368981     9A     -1.360244
      10A     -1.360244

  @DF-RHF Final Energy:  -606.06746210132110

   => Energetics <=

    Nuclear Repulsion Energy =             10.8422361639791518
    One-Electron Energy =                -846.0677930316843458
    Two-Electron Energy =                 229.1580947663840959
    Total Energy =                       -606.0674621013210981
 Dipole X            :        -94.4408688           99.8871435            5.4462747
 Dipole Y            :         -0.0000000            0.0000000           -0.0000000
 Dipole Z            :         -0.0000000            0.0000000           -0.0000000
 Magnitude           :                                                    5.4462747
  Basis Set: (AUG-CC-PVTZ AUX)
    Blend: DEF2-QZVPP-RI
	 Reference Energy          =    -606.0674621013210981 [Eh]
	 Singles Energy            =      -0.0000000000000000 [Eh]
	 Same-Spin Energy          =      -0.0292566994675036 [Eh]
	 Opposite-Spin Energy      =      -0.0805322290707499 [Eh]
	 Correlation Energy        =      -0.1097889285382534 [Eh]
	 Total Energy              =    -606.1772510298593488 [Eh]

	 ================> DF-SCS-MP2 Energies <==================
	-----------------------------------------------------------
	 SCS Same-Spin Scale       =       0.3333333333333333 [-]
	 SCS Opposite-Spin Scale   =       1.2000000000000000 [-]
	 SCS Same-Spin Energy      =      -0.0097522331558345 [Eh]
	 SCS Opposite-Spin Energy  =      -0.0966386748848998 [Eh]
	 SCS Correlation Energy    =      -0.1063909080407344 [Eh]
	 SCS Total Energy          =    -606.1738530093617783 [Eh]
	-----------------------------------------------------------

*** Psi4 exiting successfully. Buy a developer a beer!
