                               Psi4 1.9 release

  ==> Input File <==

--------------------------------------------------------------------------
MEMORY 60 GB

molecule dimer {
1 1
Li     0.000000     0.000000     0.000000
--
1 1
K      4.280000     0.000000     0.000000

units ang
no_reorient
no_com
symmetry c1
}

set {
basis        aug-cc-pVTZ
scf_type     df
}

energy("mp2", bsse_type="cp")
--------------------------------------------------------------------------

                               Psi4 1.9 release
    Molecular point group: c1
  Charge       = 1
  Multiplicity = 1
  Basis Set: AUG-CC-PVTZ
    Blend: AUG-CC-PVTZ
  Basis Set: (AUG-CC-PVTZ AUX)
    Blend: DEF2-UNIVERSAL-JKFIT
  @DF-RHF Final Energy:  -599.01750722081670
    Total Energy =                       -599.0175072208166966
 Dipole X            :       -145.5848337          153.6725285            8.0876949
 Dipole Y            :          0.0000000            0.0000000            0.0000000
 Dipole Z            :          0.0000000            0.0000000            0.0000000
 Magnitude           :                                                    8.0876949
  Basis Set: (AUG-CC-PVTZ AUX)
    Blend: DEF2-QZVPP-RI
	 Reference Energy          =    -599.0175072208166966 [Eh]
	 Singles Energy            =      -0.0000000000000000 [Eh]
	 Same-Spin Energy          =      -0.0265697836461149 [Eh]
	 Opposite-Spin Energy      =      -0.0613841150670349 [Eh]
	 Correlation Energy        =      -0.0879538987131498 [Eh]
	 Total Energy              =    -599.1054611195298776 [Eh]
	 SCS Total Energy          =    -599.1000247534458367 [Eh]
                               Psi4 1.9 release
    Molecular point group: c1
  Multiplicity = 1
  Basis Set: AUG-CC-PVTZ
    Blend: AUG-CC-PVTZ
  Basis Set: (AUG-CC-PVTZ AUX)
    Blend: DEF2-UNIVERSAL-JKFIT
  @DF-RHF Final Energy:    -7.23638284266652
    Total Energy =                         -7.2363828426665240
  Basis Set: (AUG-CC-PVTZ AUX)
	 Singles Energy            =      -0.0000000000000000 [Eh]
	 Same-Spin Energy          =       0.0000000000000000 [Eh]
	 Opposite-Spin Energy      =      -0.0111616110846731 [Eh]
	 Correlation Energy        =      -0.0111616110846731 [Eh]
	 Total Energy              =      -7.2475444537511970 [Eh]
	 SCS Total Energy          =      -7.2497767759681322 [Eh]
                               Psi4 1.9 release
    Molecular point group: c1

    Geometry (in Bohr), charge = 2, multiplicity = 1:

       Center              X                  Y                   Z               Mass
    ------------   -----------------  -----------------  -----------------  -----------------
         LI           0.000000000000     0.000000000000     0.000000000000     7.016003436600
         K            8.088027816960     0.000000000000     0.000000000000    38.963706486400

  Charge       = 2
  Multiplicity = 1
  Basis Set: AUG-CC-PVTZ
    Blend: AUG-CC-PVTZ
  Basis Set: (AUG-CC-PVTZ AUX)
    Blend: DEF2-UNIVERSAL-JKFIT

    Orbital Energies [Eh]
    ---------------------

    Doubly Occupied:

       1A   -133.878506     2A    -14.833757     3A    -11.863895
       4A    -11.863800     5A    -11.863800     6A     -2.914797
       7A     -2.088469     8A     -1.296621     9A     -1.294190
      10A     -1.294190

  @DF-RHF Final Energy:  -606.13087109517789

   => Energetics <=

    Nuclear Repulsion Energy =              7.0474535065864483
    One-Electron Energy =                -839.9726012035678195
    Two-Electron Energy =                 226.7942766018034320
    Total Energy =                       -606.1308710951780085
 Dipole X            :       -145.5095734          153.6725285            8.1629551
 Dipole Y            :          0.0000000            0.0000000            0.0000000
 Dipole Z            :          0.0000000            0.0000000            0.0000000
 Magnitude           :                                                    8.1629551
  Basis Set: (AUG-CC-PVTZ AUX)
    Blend: DEF2-QZVPP-RI
	 Reference Energy          =    -606.1308710951778949 [Eh]
	 Singles Energy            =      -0.0000000000000000 [Eh]
	 Same-Spin Energy          =      -0.0265444257206951 [Eh]
	 Opposite-Spin Energy      =      -0.0724956660772742 [Eh]
	 Correlation Energy        =      -0.0990400917979693 [Eh]
	 Total Energy              =    -606.2299111869758690 [Eh]

	 ================> DF-SCS-MP2 Energies <==================
	-----------------------------------------------------------
	 SCS Same-Spin Scale       =       0.3333333333333333 [-]
	 SCS Opposite-Spin Scale   =       1.2000000000000000 [-]
	 SCS Same-Spin Energy      =      -0.0088481419068984 [Eh]
	 SCS Opposite-Spin Energy  =      -0.0869947992927291 [Eh]
	 SCS Correlation Energy    =      -0.0958429411996274 [Eh]
	 SCS Total Energy          =    -606.2267140363775297 [Eh]
	-----------------------------------------------------------

*** Psi4 exiting successfully. Buy a developer a beer!
