                               Psi4 1.9 release

  ==> Input File <==

--------------------------------------------------------------------------
MEMORY 60 GB

molecule dimer {
1 1
Li     0.000000     0.000000     0.000000
--
1 1
K      2.354000     0.000000     0.000000

units ang
no_reorient
no_com
symmetry c1
}

set {
basis        aug-cc-pVTZ
scf_type     df
}

energy("mp2", bsse_type="cp")
--------------------------------------------------------------------------

                               Psi4 1.9 release
    Molecular point group: c1
  Charge       = 1
  Multiplicity = 1
  Basis Set: AUG-CC-PVTZ
    Blend: AUG-CC-PVTZ
  Basis Set: (AUG-CC-PVTZ AUX)
    Blend: DEF2-UNIVERSAL-JKFIT
  @DF-RHF Final Energy:  -599.01751029334787
    Total Energy =                       -599.0175102933478684
 Dipole X            :        -80.0720028           84.5198907            4.4478879
 Dipole Y            :          0.0000000            0.0000000            0.0000000
 Dipole Z            :          0.0000000            0.0000000            0.0000000
 Magnitude           :                                                    4.4478879
  Basis Set: (AUG-CC-PVTZ AUX)
    Blend: DEF2-QZVPP-RI
	 Reference Energy          =    -599.0175102933478684 [Eh]
	 Singles Energy            =      -0.0000000000000000 [Eh]
	 Same-Spin Energy          =      -0.0314336166258571 [Eh]
	 Opposite-Spin Energy      =      -0.0749705405356015 [Eh]
	 Correlation Energy        =      -0.1064041571614585 [Eh]
	 Total Energy              =    -599.1239144505093464 [Eh]
	 SCS Total Energy          =    -599.1179528141991568 [Eh]
                               Psi4 1.9 release
    Molecular point group: c1
  Multiplicity = 1
  Basis Set: AUG-CC-PVTZ
    Blend: AUG-CC-PVTZ
  Basis Set: (AUG-CC-PVTZ AUX)
    Blend: DEF2-UNIVERSAL-JKFIT
  @DF-RHF Final Energy:    -7.23638300155119
    Total Energy =                         -7.2363830015511885
  Basis Set: (AUG-CC-PVTZ AUX)
	 Singles Energy            =      -0.0000000000000000 [Eh]
	 Same-Spin Energy          =       0.0000000000000000 [Eh]
	 Opposite-Spin Energy      =      -0.0115469795189415 [Eh]
	 Correlation Energy        =      -0.0115469795189415 [Eh]
	 Total Energy              =      -7.2479299810701301 [Eh]
	 SCS Total Energy          =      -7.2502393769739184 [Eh]
                               Psi4 1.9 release
    Molecular point group: c1

    Geometry (in Bohr), charge = 2, multiplicity = 1:

       Center              X                  Y                   Z               Mass
    ------------   -----------------  -----------------  -----------------  -----------------
         LI           0.000000000000     0.000000000000     0.000000000000     7.016003436600
         K            4.448415299328     0.000000000000     0.000000000000    38.963706486400

  Charge       = 2
  Multiplicity = 1
  Basis Set: AUG-CC-PVTZ
    Blend: AUG-CC-PVTZ
  Basis Set: (AUG-CC-PVTZ AUX)
    Blend: DEF2-UNIVERSAL-JKFIT

    Orbital Energies [Eh]
    ---------------------

    Doubly Occupied:

       1A   -133.986530     2A    -14.940386     3A    -11.970926
       4A    -11.970315     5A    -11.970315     6A     -3.001786
       7A     -2.192409     8A     -1.407802     9A     -1.393734
      10A     -1.393734

  @DF-RHF Final Energy:  -606.03552490707546

   => Energetics <=

    Nuclear Repulsion Energy =             12.8135518301571789
    One-Electron Energy =                -849.2422806491367737
    Two-Electron Energy =                 230.3932039119041519
    Total Energy =                       -606.0355249070754553
 Dipole X            :        -79.8113015           84.5198907            4.7085892
 Dipole Y            :          0.0000000            0.0000000            0.0000000
 Dipole Z            :          0.0000000            0.0000000            0.0000000
 Magnitude           :                                                    4.7085892
  Basis Set: (AUG-CC-PVTZ AUX)
    Blend: DEF2-QZVPP-RI
	 Reference Energy          =    -606.0355249070754553 [Eh]
	 Singles Energy            =      -0.0000000000000000 [Eh]
	 Same-Spin Energy          =      -0.0313406502227095 [Eh]
	 Opposite-Spin Energy      =      -0.0864584074990021 [Eh]
	 Correlation Energy        =      -0.1177990577217115 [Eh]
	 Total Energy              =    -606.1533239647972096 [Eh]

	 ================> DF-SCS-MP2 Energies <==================
	-----------------------------------------------------------
	 SCS Same-Spin Scale       =       0.3333333333333333 [-]
	 SCS Opposite-Spin Scale   =       1.2000000000000000 [-]
	 SCS Same-Spin Energy      =      -0.0104468834075698 [Eh]
	 SCS Opposite-Spin Energy  =      -0.1037500889988025 [Eh]
	 SCS Correlation Energy    =      -0.1141969724063723 [Eh]
	 SCS Total Energy          =    -606.1497218794818309 [Eh]
	-----------------------------------------------------------

*** Psi4 exiting successfully. Buy a developer a beer!
