                               Psi4 1.9 release

  ==> Input File <==

--------------------------------------------------------------------------
MEMORY 60 GB

molecule dimer {
1 1
Li     0.000000     0.000000     0.000000
--
1 1
K      2.140000     0.000000     0.000000

units ang
no_reorient
no_com
symmetry c1
}

set {
basis        aug-cc-pVTZ
scf_type     df
}

energy("mp2", bsse_type="cp")
--------------------------------------------------------------------------

                               Psi4 1.9 release
    Molecular point group: c1
  Charge       = 1
  Multiplicity = 1
  Basis Set: AUG-CC-PVTZ
    Blend: AUG-CC-PVTZ
  Basis Set: (AUG-CC-PVTZ AUX)
    Blend: DEF2-UNIVERSAL-JKFIT
  @DF-RHF Final Energy:  -599.01751117329229
    Total Energy =                       -599.0175111732922915
 Dipole X            :        -72.7928196           76.8362643            4.0434446
 Dipole Y            :         -0.0000000            0.0000000           -0.0000000
 Dipole Z            :         -0.0000000            0.0000000           -0.0000000
 Magnitude           :                                                    4.0434446
  Basis Set: (AUG-CC-PVTZ AUX)
    Blend: DEF2-QZVPP-RI
	 Reference Energy          =    -599.0175111732922915 [Eh]
	 Singles Energy            =      -0.0000000000000000 [Eh]
	 Same-Spin Energy          =      -0.0324355642561145 [Eh]
	 Opposite-Spin Energy      =      -0.0778208978906214 [Eh]
	 Correlation Energy        =      -0.1102564621467359 [Eh]
	 Total Energy              =    -599.1277676354389996 [Eh]
	 SCS Total Energy          =    -599.1217081055131075 [Eh]
                               Psi4 1.9 release
    Molecular point group: c1
  Multiplicity = 1
  Basis Set: AUG-CC-PVTZ
    Blend: AUG-CC-PVTZ
  Basis Set: (AUG-CC-PVTZ AUX)
    Blend: DEF2-UNIVERSAL-JKFIT
  @DF-RHF Final Energy:    -7.23638298932708
    Total Energy =                         -7.2363829893270797
  Basis Set: (AUG-CC-PVTZ AUX)
	 Singles Energy            =      -0.0000000000000000 [Eh]
	 Same-Spin Energy          =       0.0000000000000000 [Eh]
	 Opposite-Spin Energy      =      -0.0116050918565480 [Eh]
	 Correlation Energy        =      -0.0116050918565480 [Eh]
	 Total Energy              =      -7.2479880811836273 [Eh]
	 SCS Total Energy          =      -7.2503090995549373 [Eh]
                               Psi4 1.9 release
    Molecular point group: c1

    Geometry (in Bohr), charge = 2, multiplicity = 1:

       Center              X                  Y                   Z               Mass
    ------------   -----------------  -----------------  -----------------  -----------------
         LI           0.000000000000     0.000000000000     0.000000000000     7.016003436600
         K            4.044013908480     0.000000000000     0.000000000000    38.963706486400

  Charge       = 2
  Multiplicity = 1
  Basis Set: AUG-CC-PVTZ
    Blend: AUG-CC-PVTZ
  Basis Set: (AUG-CC-PVTZ AUX)
    Blend: DEF2-UNIVERSAL-JKFIT

    Orbital Energies [Eh]
    ---------------------

    Doubly Occupied:

       1A   -134.008784     2A    -14.962448     3A    -11.993122
       4A    -11.992318     5A    -11.992318     6A     -3.018572
       7A     -2.214515     8A     -1.432255     9A     -1.414225
      10A     -1.414225

  @DF-RHF Final Energy:  -606.01354845602987

   => Energetics <=

    Nuclear Repulsion Energy =             14.0949070131728966
    One-Electron Energy =                -851.3313468268098632
    Two-Electron Energy =                 231.2228913576069829
    Total Energy =                       -606.0135484560299801
 Dipole X            :        -72.4913451           76.8362643            4.3449191
 Dipole Y            :         -0.0000000            0.0000000           -0.0000000
 Dipole Z            :          0.0000000            0.0000000            0.0000000
 Magnitude           :                                                    4.3449191
  Basis Set: (AUG-CC-PVTZ AUX)
    Blend: DEF2-QZVPP-RI
	 Reference Energy          =    -606.0135484560298664 [Eh]
	 Singles Energy            =      -0.0000000000000000 [Eh]
	 Same-Spin Energy          =      -0.0323360651860126 [Eh]
	 Opposite-Spin Energy      =      -0.0893423343534138 [Eh]
	 Correlation Energy        =      -0.1216783995394264 [Eh]
	 Total Energy              =    -606.1352268555692717 [Eh]

	 ================> DF-SCS-MP2 Energies <==================
	-----------------------------------------------------------
	 SCS Same-Spin Scale       =       0.3333333333333333 [-]
	 SCS Opposite-Spin Scale   =       1.2000000000000000 [-]
	 SCS Same-Spin Energy      =      -0.0107786883953375 [Eh]
	 SCS Opposite-Spin Energy  =      -0.1072108012240966 [Eh]
	 SCS Correlation Energy    =      -0.1179894896194341 [Eh]
	 SCS Total Energy          =    -606.1315379456492565 [Eh]
	-----------------------------------------------------------

*** Psi4 exiting successfully. Buy a developer a beer!
