                               Psi4 1.9 release

  ==> Input File <==

--------------------------------------------------------------------------
MEMORY 60 GB

molecule dimer {
1 1
Na     0.000000     0.000000     0.000000
--
1 1
Na     2.652000     0.000000     0.000000

units ang
no_reorient
no_com
symmetry c1
}

set {
basis        aug-cc-pVTZ
scf_type     df
}

energy("mp2", bsse_type="cp")
--------------------------------------------------------------------------

                               Psi4 1.9 release
    Molecular point group: c1
  Charge       = 1
  Multiplicity = 1
  Basis Set: AUG-CC-PVTZ
    Blend: AUG-CC-PVTZ
  Basis Set: (AUG-CC-PVTZ AUX)
    Blend: DEF2-UNIVERSAL-JKFIT
  @DF-RHF Final Energy:  -161.67604384826046
    Total Energy =                       -161.6760438482604627
 Dipole X            :        -50.1160414           55.1270905            5.0110492
 Dipole Y            :          0.0000000            0.0000000            0.0000000
 Dipole Z            :         -0.0000000            0.0000000           -0.0000000
 Magnitude           :                                                    5.0110492
  Basis Set: (AUG-CC-PVTZ AUX)
    Blend: DEF2-QZVPP-RI
	 Reference Energy          =    -161.6760438482604627 [Eh]
	 Singles Energy            =      -0.0000000000000000 [Eh]
	 Same-Spin Energy          =      -0.0023938255907678 [Eh]
	 Opposite-Spin Energy      =      -0.0091349791120902 [Eh]
	 Correlation Energy        =      -0.0115288047028580 [Eh]
	 Total Energy              =    -161.6875726529633255 [Eh]
	 SCS Total Energy          =    -161.6878037650585611 [Eh]
                               Psi4 1.9 release
    Molecular point group: c1
  Multiplicity = 1
  Basis Set: AUG-CC-PVTZ
    Blend: AUG-CC-PVTZ
  Basis Set: (AUG-CC-PVTZ AUX)
    Blend: DEF2-UNIVERSAL-JKFIT
  @DF-RHF Final Energy:  -161.67604384827172
    Total Energy =                       -161.6760438482717177
  Basis Set: (AUG-CC-PVTZ AUX)
	 Singles Energy            =      -0.0000000000000000 [Eh]
	 Same-Spin Energy          =      -0.0023938255907720 [Eh]
	 Opposite-Spin Energy      =      -0.0091349791121045 [Eh]
	 Correlation Energy        =      -0.0115288047028764 [Eh]
	 Total Energy              =    -161.6875726529745805 [Eh]
	 SCS Total Energy          =    -161.6878037650698445 [Eh]
                               Psi4 1.9 release
    Molecular point group: c1

    Geometry (in Bohr), charge = 2, multiplicity = 1:

       Center              X                  Y                   Z               Mass
    ------------   -----------------  -----------------  -----------------  -----------------
         NA           0.000000000000     0.000000000000     0.000000000000    22.989769282000
         NA           5.011553684714     0.000000000000     0.000000000000    22.989769282000

  Charge       = 2
  Multiplicity = 1
  Basis Set: AUG-CC-PVTZ
    Blend: AUG-CC-PVTZ
  Basis Set: (AUG-CC-PVTZ AUX)
    Blend: DEF2-UNIVERSAL-JKFIT

    Orbital Energies [Eh]
    ---------------------

    Doubly Occupied:

       1A    -40.962880     2A    -40.962879     3A     -3.274998
       4A     -3.274179     5A     -2.003002     6A     -1.996835
       7A     -1.996835     8A     -1.996067     9A     -1.996067
      10A     -1.996031

  @DF-RHF Final Energy:  -323.15323156696854

   => Energetics <=

    Nuclear Repulsion Energy =             24.1442090841138786
    One-Electron Energy =                -493.6753334816756933
    Two-Electron Energy =                 146.3778928305932538
    Total Energy =                       -323.1532315669685431
 Dipole X            :        -50.1155368           55.1270905            5.0115537
 Dipole Y            :          0.0000000            0.0000000            0.0000000
 Dipole Z            :         -0.0000000            0.0000000           -0.0000000
 Magnitude           :                                                    5.0115537
  Basis Set: (AUG-CC-PVTZ AUX)
    Blend: DEF2-QZVPP-RI
	 Reference Energy          =    -323.1532315669685431 [Eh]
	 Singles Energy            =      -0.0000000000000000 [Eh]
	 Same-Spin Energy          =      -0.0048416475695940 [Eh]
	 Opposite-Spin Energy      =      -0.0183907382763329 [Eh]
	 Correlation Energy        =      -0.0232323858459269 [Eh]
	 Total Energy              =    -323.1764639528144585 [Eh]

	 ================> DF-SCS-MP2 Energies <==================
	-----------------------------------------------------------
	 SCS Same-Spin Scale       =       0.3333333333333333 [-]
	 SCS Opposite-Spin Scale   =       1.2000000000000000 [-]
	 SCS Same-Spin Energy      =      -0.0016138825231980 [Eh]
	 SCS Opposite-Spin Energy  =      -0.0220688859315995 [Eh]
	 SCS Correlation Energy    =      -0.0236827684547975 [Eh]
	 SCS Total Energy          =    -323.1769143354233620 [Eh]
	-----------------------------------------------------------

*** Psi4 exiting successfully. Buy a developer a beer!
