                               Psi4 1.9 release

  ==> Input File <==

--------------------------------------------------------------------------
MEMORY 60 GB

molecule dimer {
1 1
Na     0.000000     0.000000     0.000000
--
1 1
Na     3.060000     0.000000     0.000000

units ang
no_reorient
no_com
symmetry c1
}

set {
basis        aug-cc-pVTZ
scf_type     df
}

energy("mp2", bsse_type="cp")
--------------------------------------------------------------------------

                               Psi4 1.9 release
    Molecular point group: c1
  Charge       = 1
  Multiplicity = 1
  Basis Set: AUG-CC-PVTZ
    Blend: AUG-CC-PVTZ
  Basis Set: (AUG-CC-PVTZ AUX)
    Blend: DEF2-UNIVERSAL-JKFIT
  @DF-RHF Final Energy:  -161.67603749022663
    Total Energy =                       -161.6760374902266335
 Dipole X            :        -57.8261396           63.6081814            5.7820418
 Dipole Y            :          0.0000000            0.0000000            0.0000000
 Dipole Z            :         -0.0000000            0.0000000           -0.0000000
 Magnitude           :                                                    5.7820418
  Basis Set: (AUG-CC-PVTZ AUX)
    Blend: DEF2-QZVPP-RI
	 Reference Energy          =    -161.6760374902266335 [Eh]
	 Singles Energy            =      -0.0000000000000000 [Eh]
	 Same-Spin Energy          =      -0.0022913769228251 [Eh]
	 Opposite-Spin Energy      =      -0.0088460021171578 [Eh]
	 Correlation Energy        =      -0.0111373790399829 [Eh]
	 Total Energy              =    -161.6871748692666131 [Eh]
	 SCS Total Energy          =    -161.6874164850748343 [Eh]
                               Psi4 1.9 release
    Molecular point group: c1
  Multiplicity = 1
  Basis Set: AUG-CC-PVTZ
    Blend: AUG-CC-PVTZ
  Basis Set: (AUG-CC-PVTZ AUX)
    Blend: DEF2-UNIVERSAL-JKFIT
  @DF-RHF Final Energy:  -161.67603749023394
    Total Energy =                       -161.6760374902339379
  Basis Set: (AUG-CC-PVTZ AUX)
	 Singles Energy            =      -0.0000000000000000 [Eh]
	 Same-Spin Energy          =      -0.0022913769228219 [Eh]
	 Opposite-Spin Energy      =      -0.0088460021171490 [Eh]
	 Correlation Energy        =      -0.0111373790399710 [Eh]
	 Total Energy              =    -161.6871748692739175 [Eh]
	 SCS Total Energy          =    -161.6874164850821103 [Eh]
                               Psi4 1.9 release
    Molecular point group: c1

    Geometry (in Bohr), charge = 2, multiplicity = 1:

       Center              X                  Y                   Z               Mass
    ------------   -----------------  -----------------  -----------------  -----------------
         NA           0.000000000000     0.000000000000     0.000000000000    22.989769282000
         NA           5.782561943901     0.000000000000     0.000000000000    22.989769282000

  Charge       = 2
  Multiplicity = 1
  Basis Set: AUG-CC-PVTZ
    Blend: AUG-CC-PVTZ
  Basis Set: (AUG-CC-PVTZ AUX)
    Blend: DEF2-UNIVERSAL-JKFIT

    Orbital Energies [Eh]
    ---------------------

    Doubly Occupied:

       1A    -40.936580     2A    -40.936580     3A     -3.248230
       4A     -3.248088     5A     -1.973436     6A     -1.971553
       7A     -1.970568     8A     -1.970568     9A     -1.970395
      10A     -1.970395

  @DF-RHF Final Energy:  -323.17953805554117

   => Energetics <=

    Nuclear Repulsion Energy =             20.9249812062320260
    One-Electron Energy =                -487.8162525668406602
    Two-Electron Energy =                 143.7117333050674688
    Total Energy =                       -323.1795380555411725
 Dipole X            :        -57.8256194           63.6081814            5.7825619
 Dipole Y            :          0.0000000            0.0000000            0.0000000
 Dipole Z            :         -0.0000000            0.0000000           -0.0000000
 Magnitude           :                                                    5.7825619
  Basis Set: (AUG-CC-PVTZ AUX)
    Blend: DEF2-QZVPP-RI
	 Reference Energy          =    -323.1795380555411725 [Eh]
	 Singles Energy            =      -0.0000000000000000 [Eh]
	 Same-Spin Energy          =      -0.0046168747604027 [Eh]
	 Opposite-Spin Energy      =      -0.0177721063867274 [Eh]
	 Correlation Energy        =      -0.0223889811471301 [Eh]
	 Total Energy              =    -323.2019270366882893 [Eh]

	 ================> DF-SCS-MP2 Energies <==================
	-----------------------------------------------------------
	 SCS Same-Spin Scale       =       0.3333333333333333 [-]
	 SCS Opposite-Spin Scale   =       1.2000000000000000 [-]
	 SCS Same-Spin Energy      =      -0.0015389582534676 [Eh]
	 SCS Opposite-Spin Energy  =      -0.0213265276640729 [Eh]
	 SCS Correlation Energy    =      -0.0228654859175405 [Eh]
	 SCS Total Energy          =    -323.2024035414586933 [Eh]
	-----------------------------------------------------------

*** Psi4 exiting successfully. Buy a developer a beer!
