                               Psi4 1.9 release

  ==> Input File <==

--------------------------------------------------------------------------
MEMORY 60 GB

molecule dimer {
1 1
Na     0.000000     0.000000     0.000000
--
1 1
Na     2.244000     0.000000     0.000000

units ang
no_reorient
no_com
symmetry c1
}

set {
basis        aug-cc-pVTZ
scf_type     df
}

energy("mp2", bsse_type="cp")
--------------------------------------------------------------------------

                               Psi4 1.9 release
    Molecular point group: c1
  Charge       = 1
  Multiplicity = 1
  Basis Set: AUG-CC-PVTZ
    Blend: AUG-CC-PVTZ
  Basis Set: (AUG-CC-PVTZ AUX)
    Blend: DEF2-UNIVERSAL-JKFIT
  @DF-RHF Final Energy:  -161.67605038415169
    Total Energy =                       -161.6760503841516936
 Dipole X            :        -42.4061543           46.6459997            4.2398454
 Dipole Y            :         -0.0000000            0.0000000           -0.0000000
 Dipole Z            :         -0.0000000            0.0000000           -0.0000000
 Magnitude           :                                                    4.2398454
  Basis Set: (AUG-CC-PVTZ AUX)
    Blend: DEF2-QZVPP-RI
	 Reference Energy          =    -161.6760503841516936 [Eh]
	 Singles Energy            =      -0.0000000000000000 [Eh]
	 Same-Spin Energy          =      -0.0033124065846980 [Eh]
	 Opposite-Spin Energy      =      -0.0115807503423204 [Eh]
	 Correlation Energy        =      -0.0148931569270185 [Eh]
	 Total Energy              =    -161.6909435410787239 [Eh]
	 SCS Total Energy          =    -161.6910514200907016 [Eh]
                               Psi4 1.9 release
    Molecular point group: c1
  Multiplicity = 1
  Basis Set: AUG-CC-PVTZ
    Blend: AUG-CC-PVTZ
  Basis Set: (AUG-CC-PVTZ AUX)
    Blend: DEF2-UNIVERSAL-JKFIT
  @DF-RHF Final Energy:  -161.67605038416252
    Total Energy =                       -161.6760503841624939
  Basis Set: (AUG-CC-PVTZ AUX)
	 Singles Energy            =      -0.0000000000000000 [Eh]
	 Same-Spin Energy          =      -0.0033124065845161 [Eh]
	 Opposite-Spin Energy      =      -0.0115807503417939 [Eh]
	 Correlation Energy        =      -0.0148931569263100 [Eh]
	 Total Energy              =    -161.6909435410888420 [Eh]
	 SCS Total Energy          =    -161.6910514201008482 [Eh]
                               Psi4 1.9 release
    Molecular point group: c1

    Geometry (in Bohr), charge = 2, multiplicity = 1:

       Center              X                  Y                   Z               Mass
    ------------   -----------------  -----------------  -----------------  -----------------
         NA           0.000000000000     0.000000000000     0.000000000000    22.989769282000
         NA           4.240545425527     0.000000000000     0.000000000000    22.989769282000

  Charge       = 2
  Multiplicity = 1
  Basis Set: AUG-CC-PVTZ
    Blend: AUG-CC-PVTZ
  Basis Set: (AUG-CC-PVTZ AUX)
    Blend: DEF2-UNIVERSAL-JKFIT

    Orbital Energies [Eh]
    ---------------------

    Doubly Occupied:

       1A    -40.998287     2A    -40.998284     3A     -3.312629
       4A     -3.308132     5A     -2.048589     6A     -2.032969
       7A     -2.032969     8A     -2.029607     9A     -2.029607
      10A     -2.023943

  @DF-RHF Final Energy:  -323.11690219861032

   => Energetics <=

    Nuclear Repulsion Energy =             28.5340652812254874
    One-Electron Energy =                -501.6719036368945694
    Two-Electron Energy =                 150.0209361570587703
    Total Energy =                       -323.1169021986103189
 Dipole X            :        -42.4054543           46.6459997            4.2405454
 Dipole Y            :         -0.0000000            0.0000000           -0.0000000
 Dipole Z            :         -0.0000000            0.0000000           -0.0000000
 Magnitude           :                                                    4.2405454
  Basis Set: (AUG-CC-PVTZ AUX)
    Blend: DEF2-QZVPP-RI
	 Reference Energy          =    -323.1169021986103189 [Eh]
	 Singles Energy            =      -0.0000000000000000 [Eh]
	 Same-Spin Energy          =      -0.0067995848347179 [Eh]
	 Opposite-Spin Energy      =      -0.0236557543952059 [Eh]
	 Correlation Energy        =      -0.0304553392299238 [Eh]
	 Total Energy              =    -323.1473575378402643 [Eh]

	 ================> DF-SCS-MP2 Energies <==================
	-----------------------------------------------------------
	 SCS Same-Spin Scale       =       0.3333333333333333 [-]
	 SCS Opposite-Spin Scale   =       1.2000000000000000 [-]
	 SCS Same-Spin Energy      =      -0.0022665282782393 [Eh]
	 SCS Opposite-Spin Energy  =      -0.0283869052742470 [Eh]
	 SCS Correlation Energy    =      -0.0306534335524863 [Eh]
	 SCS Total Energy          =    -323.1475556321627778 [Eh]
	-----------------------------------------------------------

*** Psi4 exiting successfully. Buy a developer a beer!
