                               Psi4 1.9 release

  ==> Input File <==

--------------------------------------------------------------------------
MEMORY 60 GB

molecule dimer {
1 1
Na     0.000000     0.000000     0.000000
--
1 1
Na     2.856000     0.000000     0.000000

units ang
no_reorient
no_com
symmetry c1
}

set {
basis        aug-cc-pVTZ
scf_type     df
}

energy("mp2", bsse_type="cp")
--------------------------------------------------------------------------

                               Psi4 1.9 release
    Molecular point group: c1
  Charge       = 1
  Multiplicity = 1
  Basis Set: AUG-CC-PVTZ
    Blend: AUG-CC-PVTZ
  Basis Set: (AUG-CC-PVTZ AUX)
    Blend: DEF2-UNIVERSAL-JKFIT
  @DF-RHF Final Energy:  -161.67604052512908
    Total Energy =                       -161.6760405251291104
 Dipole X            :        -53.9711307           59.3676360            5.3965053
 Dipole Y            :          0.0000000            0.0000000            0.0000000
 Dipole Z            :          0.0000000            0.0000000            0.0000000
 Magnitude           :                                                    5.3965053
  Basis Set: (AUG-CC-PVTZ AUX)
    Blend: DEF2-QZVPP-RI
	 Reference Energy          =    -161.6760405251290820 [Eh]
	 Singles Energy            =      -0.0000000000000000 [Eh]
	 Same-Spin Energy          =      -0.0023551843809327 [Eh]
	 Opposite-Spin Energy      =      -0.0090353097111226 [Eh]
	 Correlation Energy        =      -0.0113904940920553 [Eh]
	 Total Energy              =    -161.6874310192211510 [Eh]
	 SCS Total Energy          =    -161.6876679582427414 [Eh]
                               Psi4 1.9 release
    Molecular point group: c1
  Multiplicity = 1
  Basis Set: AUG-CC-PVTZ
    Blend: AUG-CC-PVTZ
  Basis Set: (AUG-CC-PVTZ AUX)
    Blend: DEF2-UNIVERSAL-JKFIT
  @DF-RHF Final Energy:  -161.67604052511854
    Total Energy =                       -161.6760405251185375
  Basis Set: (AUG-CC-PVTZ AUX)
	 Singles Energy            =      -0.0000000000000000 [Eh]
	 Same-Spin Energy          =      -0.0023551843809370 [Eh]
	 Opposite-Spin Energy      =      -0.0090353097111321 [Eh]
	 Correlation Energy        =      -0.0113904940920691 [Eh]
	 Total Energy              =    -161.6874310192106066 [Eh]
	 SCS Total Energy          =    -161.6876679582321970 [Eh]
                               Psi4 1.9 release
    Molecular point group: c1

    Geometry (in Bohr), charge = 2, multiplicity = 1:

       Center              X                  Y                   Z               Mass
    ------------   -----------------  -----------------  -----------------  -----------------
         NA           0.000000000000     0.000000000000     0.000000000000    22.989769282000
         NA           5.397057814308     0.000000000000     0.000000000000    22.989769282000

  Charge       = 2
  Multiplicity = 1
  Basis Set: AUG-CC-PVTZ
    Blend: AUG-CC-PVTZ
  Basis Set: (AUG-CC-PVTZ AUX)
    Blend: DEF2-UNIVERSAL-JKFIT

    Orbital Energies [Eh]
    ---------------------

    Doubly Occupied:

       1A    -40.948912     2A    -40.948912     3A     -3.260648
       4A     -3.260305     5A     -1.986861     6A     -1.983225
       7A     -1.982792     8A     -1.982792     9A     -1.982428
      10A     -1.982428

  @DF-RHF Final Energy:  -323.16732200779853

   => Energetics <=

    Nuclear Repulsion Energy =             22.4196227209628880
    One-Electron Energy =                -490.5352838295841025
    Two-Electron Energy =                 144.9483391008226931
    Total Energy =                       -323.1673220077985320
 Dipole X            :        -53.9705781           59.3676360            5.3970578
 Dipole Y            :          0.0000000            0.0000000            0.0000000
 Dipole Z            :          0.0000000            0.0000000            0.0000000
 Magnitude           :                                                    5.3970578
  Basis Set: (AUG-CC-PVTZ AUX)
    Blend: DEF2-QZVPP-RI
	 Reference Energy          =    -323.1673220077985320 [Eh]
	 Singles Energy            =      -0.0000000000000000 [Eh]
	 Same-Spin Energy          =      -0.0047526692295986 [Eh]
	 Opposite-Spin Energy      =      -0.0181662725478663 [Eh]
	 Correlation Energy        =      -0.0229189417774649 [Eh]
	 Total Energy              =    -323.1902409495759798 [Eh]

	 ================> DF-SCS-MP2 Energies <==================
	-----------------------------------------------------------
	 SCS Same-Spin Scale       =       0.3333333333333333 [-]
	 SCS Opposite-Spin Scale   =       1.2000000000000000 [-]
	 SCS Same-Spin Energy      =      -0.0015842230765329 [Eh]
	 SCS Opposite-Spin Energy  =      -0.0217995270574396 [Eh]
	 SCS Correlation Energy    =      -0.0233837501339724 [Eh]
	 SCS Total Energy          =    -323.1907057579325055 [Eh]
	-----------------------------------------------------------

*** Psi4 exiting successfully. Buy a developer a beer!
