                               Psi4 1.9 release

  ==> Input File <==

--------------------------------------------------------------------------
MEMORY 60 GB

molecule dimer {
1 1
Na     0.000000     0.000000     0.000000
--
1 1
Na     4.080000     0.000000     0.000000

units ang
no_reorient
no_com
symmetry c1
}

set {
basis        aug-cc-pVTZ
scf_type     df
}

energy("mp2", bsse_type="cp")
--------------------------------------------------------------------------

                               Psi4 1.9 release
    Molecular point group: c1
  Charge       = 1
  Multiplicity = 1
  Basis Set: AUG-CC-PVTZ
    Blend: AUG-CC-PVTZ
  Basis Set: (AUG-CC-PVTZ AUX)
    Blend: DEF2-UNIVERSAL-JKFIT
  @DF-RHF Final Energy:  -161.67602826274077
    Total Energy =                       -161.6760282627407719
 Dipole X            :        -77.1010478           84.8109085            7.7098607
 Dipole Y            :          0.0000000            0.0000000            0.0000000
 Dipole Z            :          0.0000000            0.0000000            0.0000000
 Magnitude           :                                                    7.7098607
  Basis Set: (AUG-CC-PVTZ AUX)
    Blend: DEF2-QZVPP-RI
	 Reference Energy          =    -161.6760282627407719 [Eh]
	 Singles Energy            =      -0.0000000000000000 [Eh]
	 Same-Spin Energy          =      -0.0020139778230088 [Eh]
	 Opposite-Spin Energy      =      -0.0080816554260412 [Eh]
	 Correlation Energy        =      -0.0100956332490500 [Eh]
	 Total Energy              =    -161.6861238959898230 [Eh]
	 SCS Total Energy          =    -161.6863975751930127 [Eh]
                               Psi4 1.9 release
    Molecular point group: c1
  Multiplicity = 1
  Basis Set: AUG-CC-PVTZ
    Blend: AUG-CC-PVTZ
  Basis Set: (AUG-CC-PVTZ AUX)
    Blend: DEF2-UNIVERSAL-JKFIT
  @DF-RHF Final Energy:  -161.67602826272073
    Total Energy =                       -161.6760282627207630
  Basis Set: (AUG-CC-PVTZ AUX)
	 Singles Energy            =      -0.0000000000000000 [Eh]
	 Same-Spin Energy          =      -0.0020139778230134 [Eh]
	 Opposite-Spin Energy      =      -0.0080816554260532 [Eh]
	 Correlation Energy        =      -0.0100956332490666 [Eh]
	 Total Energy              =    -161.6861238959698142 [Eh]
	 SCS Total Energy          =    -161.6863975751730038 [Eh]
                               Psi4 1.9 release
    Molecular point group: c1

    Geometry (in Bohr), charge = 2, multiplicity = 1:

       Center              X                  Y                   Z               Mass
    ------------   -----------------  -----------------  -----------------  -----------------
         NA           0.000000000000     0.000000000000     0.000000000000    22.989769282000
         NA           7.710082591868     0.000000000000     0.000000000000    22.989769282000

  Charge       = 2
  Multiplicity = 1
  Basis Set: AUG-CC-PVTZ
    Blend: AUG-CC-PVTZ
  Basis Set: (AUG-CC-PVTZ AUX)
    Blend: DEF2-UNIVERSAL-JKFIT

    Orbital Energies [Eh]
    ---------------------

    Doubly Occupied:

       1A    -40.893415     2A    -40.893415     3A     -3.205015
       4A     -3.205014     5A     -1.928768     6A     -1.928701
       7A     -1.927805     8A     -1.927805     9A     -1.927801
      10A     -1.927801

  @DF-RHF Final Energy:  -323.22247312675131

   => Energetics <=

    Nuclear Repulsion Energy =             15.6937359046740212
    One-Electron Energy =                -478.3013439089146459
    Two-Electron Energy =                 139.3851348774892926
    Total Energy =                       -323.2224731267513107
 Dipole X            :        -77.1008259           84.8109085            7.7100826
 Dipole Y            :          0.0000000            0.0000000            0.0000000
 Dipole Z            :         -0.0000000            0.0000000           -0.0000000
 Magnitude           :                                                    7.7100826
  Basis Set: (AUG-CC-PVTZ AUX)
    Blend: DEF2-QZVPP-RI
	 Reference Energy          =    -323.2224731267513107 [Eh]
	 Singles Energy            =      -0.0000000000000000 [Eh]
	 Same-Spin Energy          =      -0.0040342596216174 [Eh]
	 Opposite-Spin Energy      =      -0.0161772143509874 [Eh]
	 Correlation Energy        =      -0.0202114739726048 [Eh]
	 Total Energy              =    -323.2426846007239192 [Eh]

	 ================> DF-SCS-MP2 Energies <==================
	-----------------------------------------------------------
	 SCS Same-Spin Scale       =       0.3333333333333333 [-]
	 SCS Opposite-Spin Scale   =       1.2000000000000000 [-]
	 SCS Same-Spin Energy      =      -0.0013447532072058 [Eh]
	 SCS Opposite-Spin Energy  =      -0.0194126572211849 [Eh]
	 SCS Correlation Energy    =      -0.0207574104283907 [Eh]
	 SCS Total Energy          =    -323.2432305371797270 [Eh]
	-----------------------------------------------------------

*** Psi4 exiting successfully. Buy a developer a beer!
