                               Psi4 1.9 release

  ==> Input File <==

--------------------------------------------------------------------------
MEMORY 60 GB

molecule dimer {
1 1
Na     0.000000     0.000000     0.000000
--
1 1
Na     2.040000     0.000000     0.000000

units ang
no_reorient
no_com
symmetry c1
}

set {
basis        aug-cc-pVTZ
scf_type     df
}

energy("mp2", bsse_type="cp")
--------------------------------------------------------------------------

                               Psi4 1.9 release
    Molecular point group: c1
  Charge       = 1
  Multiplicity = 1
  Basis Set: AUG-CC-PVTZ
    Blend: AUG-CC-PVTZ
  Basis Set: (AUG-CC-PVTZ AUX)
    Blend: DEF2-UNIVERSAL-JKFIT
  @DF-RHF Final Energy:  -161.67605257762045
    Total Energy =                       -161.6760525776204815
 Dipole X            :        -38.5511795           42.4054543            3.8542748
 Dipole Y            :          0.0000000            0.0000000            0.0000000
 Dipole Z            :         -0.0000000            0.0000000           -0.0000000
 Magnitude           :                                                    3.8542748
  Basis Set: (AUG-CC-PVTZ AUX)
    Blend: DEF2-QZVPP-RI
	 Reference Energy          =    -161.6760525776204531 [Eh]
	 Singles Energy            =      -0.0000000000000000 [Eh]
	 Same-Spin Energy          =      -0.0039125508784073 [Eh]
	 Opposite-Spin Energy      =      -0.0131411685303255 [Eh]
	 Correlation Energy        =      -0.0170537194087328 [Eh]
	 Total Energy              =    -161.6931062970291748 [Eh]
	 SCS Total Energy          =    -161.6931261634829866 [Eh]
                               Psi4 1.9 release
    Molecular point group: c1
  Multiplicity = 1
  Basis Set: AUG-CC-PVTZ
    Blend: AUG-CC-PVTZ
  Basis Set: (AUG-CC-PVTZ AUX)
    Blend: DEF2-UNIVERSAL-JKFIT
  @DF-RHF Final Energy:  -161.67605257761173
    Total Energy =                       -161.6760525776117277
  Basis Set: (AUG-CC-PVTZ AUX)
	 Singles Energy            =      -0.0000000000000000 [Eh]
	 Same-Spin Energy          =      -0.0039125508785439 [Eh]
	 Opposite-Spin Energy      =      -0.0131411685307217 [Eh]
	 Correlation Energy        =      -0.0170537194092656 [Eh]
	 Total Energy              =    -161.6931062970209894 [Eh]
	 SCS Total Energy          =    -161.6931261634747727 [Eh]
                               Psi4 1.9 release
    Molecular point group: c1

    Geometry (in Bohr), charge = 2, multiplicity = 1:

       Center              X                  Y                   Z               Mass
    ------------   -----------------  -----------------  -----------------  -----------------
         NA           0.000000000000     0.000000000000     0.000000000000    22.989769282000
         NA           3.855041295934     0.000000000000     0.000000000000    22.989769282000

  Charge       = 2
  Multiplicity = 1
  Basis Set: AUG-CC-PVTZ
    Blend: AUG-CC-PVTZ
  Basis Set: (AUG-CC-PVTZ AUX)
    Blend: DEF2-UNIVERSAL-JKFIT

    Orbital Energies [Eh]
    ---------------------

    Doubly Occupied:

       1A    -41.019776     2A    -41.019769     3A     -3.338351
       4A     -3.327911     5A     -2.082186     6A     -2.056646
       7A     -2.056646     8A     -2.049663     9A     -2.049663
      10A     -2.036941

  @DF-RHF Final Energy:  -323.09186548676740

   => Energetics <=

    Nuclear Repulsion Energy =             31.3874718093480425
    One-Electron Energy =                -506.8835694005323376
    Two-Electron Energy =                 152.4042321044169626
    Total Energy =                       -323.0918654867673467
 Dipole X            :        -38.5504130           42.4054543            3.8550413
 Dipole Y            :         -0.0000000            0.0000000           -0.0000000
 Dipole Z            :         -0.0000000            0.0000000           -0.0000000
 Magnitude           :                                                    3.8550413
  Basis Set: (AUG-CC-PVTZ AUX)
    Blend: DEF2-QZVPP-RI
	 Reference Energy          =    -323.0918654867674036 [Eh]
	 Singles Energy            =      -0.0000000000000000 [Eh]
	 Same-Spin Energy          =      -0.0079981842182767 [Eh]
	 Opposite-Spin Energy      =      -0.0267345134722455 [Eh]
	 Correlation Energy        =      -0.0347326976905223 [Eh]
	 Total Energy              =    -323.1265981844579187 [Eh]

	 ================> DF-SCS-MP2 Energies <==================
	-----------------------------------------------------------
	 SCS Same-Spin Scale       =       0.3333333333333333 [-]
	 SCS Opposite-Spin Scale   =       1.2000000000000000 [-]
	 SCS Same-Spin Energy      =      -0.0026660614060922 [Eh]
	 SCS Opposite-Spin Energy  =      -0.0320814161666946 [Eh]
	 SCS Correlation Energy    =      -0.0347474775727869 [Eh]
	 SCS Total Energy          =    -323.1266129643402110 [Eh]
	-----------------------------------------------------------

*** Psi4 exiting successfully. Buy a developer a beer!
