                               Psi4 1.9 release

  ==> Input File <==

--------------------------------------------------------------------------
MEMORY 60 GB

molecule dimer {
1 1
Na     0.000000     0.000000     0.000000
--
1 1
K      4.800000     0.000000     0.000000

units ang
no_reorient
no_com
symmetry c1
}

set {
basis        aug-cc-pVTZ
scf_type     df
}

energy("mp2", bsse_type="cp")
--------------------------------------------------------------------------

                               Psi4 1.9 release
    Molecular point group: c1
  Charge       = 1
  Multiplicity = 1
  Basis Set: AUG-CC-PVTZ
    Blend: AUG-CC-PVTZ
  Basis Set: (AUG-CC-PVTZ AUX)
    Blend: DEF2-UNIVERSAL-JKFIT
  @DF-RHF Final Energy:  -599.01750689196626
    Total Energy =                       -599.0175068919662635
 Dipole X            :       -163.2726147          172.3430226            9.0704080
 Dipole Y            :          0.0000000            0.0000000            0.0000000
 Dipole Z            :         -0.0000000            0.0000000           -0.0000000
 Magnitude           :                                                    9.0704080
  Basis Set: (AUG-CC-PVTZ AUX)
    Blend: DEF2-QZVPP-RI
	 Reference Energy          =    -599.0175068919662635 [Eh]
	 Singles Energy            =      -0.0000000000000000 [Eh]
	 Same-Spin Energy          =      -0.0263605316161933 [Eh]
	 Opposite-Spin Energy      =      -0.0609267709660049 [Eh]
	 Correlation Energy        =      -0.0872873025821983 [Eh]
	 Total Energy              =    -599.1047941945485036 [Eh]
	 SCS Total Energy          =    -599.0994058609975355 [Eh]
                               Psi4 1.9 release
    Molecular point group: c1
  Multiplicity = 1
  Basis Set: AUG-CC-PVTZ
    Blend: AUG-CC-PVTZ
  Basis Set: (AUG-CC-PVTZ AUX)
    Blend: DEF2-UNIVERSAL-JKFIT
  @DF-RHF Final Energy:  -161.67602716914496
    Total Energy =                       -161.6760271691449589
  Basis Set: (AUG-CC-PVTZ AUX)
	 Singles Energy            =      -0.0000000000000000 [Eh]
	 Same-Spin Energy          =      -0.0019783654067201 [Eh]
	 Opposite-Spin Energy      =      -0.0079753285594641 [Eh]
	 Correlation Energy        =      -0.0099536939661843 [Eh]
	 Total Energy              =    -161.6859808631111548 [Eh]
	 SCS Total Energy          =    -161.6862570185518848 [Eh]
                               Psi4 1.9 release
    Molecular point group: c1

    Geometry (in Bohr), charge = 2, multiplicity = 1:

       Center              X                  Y                   Z               Mass
    ------------   -----------------  -----------------  -----------------  -----------------
         NA           0.000000000000     0.000000000000     0.000000000000    22.989769282000
         K            9.070685402198     0.000000000000     0.000000000000    38.963706486400

  Charge       = 2
  Multiplicity = 1
  Basis Set: AUG-CC-PVTZ
    Blend: AUG-CC-PVTZ
  Basis Set: (AUG-CC-PVTZ AUX)
    Blend: DEF2-UNIVERSAL-JKFIT

    Orbital Energies [Eh]
    ---------------------

    Doubly Occupied:

       1A   -133.864744     2A    -40.873263     3A    -14.820053
       4A    -11.850170     5A    -11.850102     6A    -11.850102
       7A     -3.184862     8A     -2.074893     9A     -1.908359
      10A     -1.907801    11A     -1.907801    12A     -1.282594
      13A     -1.280862    14A     -1.280862

  @DF-RHF Final Energy:  -760.58369734242206

   => Energetics <=

    Nuclear Repulsion Energy =             23.0412577145895874
    One-Electron Energy =               -1087.3769782830192980
    Two-Electron Energy =                 303.7520232260076796
    Total Energy =                       -760.5836973424220560
 Dipole X            :       -163.2162528          172.3430226            9.1267699
 Dipole Y            :         -0.0000000            0.0000000           -0.0000000
 Dipole Z            :          0.0000000            0.0000000            0.0000000
 Magnitude           :                                                    9.1267699
  Basis Set: (AUG-CC-PVTZ AUX)
    Blend: DEF2-QZVPP-RI
	 Reference Energy          =    -760.5836973424220560 [Eh]
	 Singles Energy            =      -0.0000000000000000 [Eh]
	 Same-Spin Energy          =      -0.0283198363874655 [Eh]
	 Opposite-Spin Energy      =      -0.0688587274338600 [Eh]
	 Correlation Energy        =      -0.0971785638213254 [Eh]
	 Total Energy              =    -760.6808759062433865 [Eh]

	 ================> DF-SCS-MP2 Energies <==================
	-----------------------------------------------------------
	 SCS Same-Spin Scale       =       0.3333333333333333 [-]
	 SCS Opposite-Spin Scale   =       1.2000000000000000 [-]
	 SCS Same-Spin Energy      =      -0.0094399454624885 [Eh]
	 SCS Opposite-Spin Energy  =      -0.0826304729206320 [Eh]
	 SCS Correlation Energy    =      -0.0920704183831204 [Eh]
	 SCS Total Energy          =    -760.6757677608052290 [Eh]
	-----------------------------------------------------------

*** Psi4 exiting successfully. Buy a developer a beer!
