                               Psi4 1.9 release

  ==> Input File <==

--------------------------------------------------------------------------
MEMORY 60 GB

molecule dimer {
1 1
Na     0.000000     0.000000     0.000000
--
1 1
K      3.600000     0.000000     0.000000

units ang
no_reorient
no_com
symmetry c1
}

set {
basis        aug-cc-pVTZ
scf_type     df
}

energy("mp2", bsse_type="cp")
--------------------------------------------------------------------------

                               Psi4 1.9 release
    Molecular point group: c1
  Charge       = 1
  Multiplicity = 1
  Basis Set: AUG-CC-PVTZ
    Blend: AUG-CC-PVTZ
  Basis Set: (AUG-CC-PVTZ AUX)
    Blend: DEF2-UNIVERSAL-JKFIT
  @DF-RHF Final Energy:  -599.01750802637969
    Total Energy =                       -599.0175080263796872
 Dipole X            :       -122.4545210          129.2572670            6.8027460
 Dipole Y            :         -0.0000000            0.0000000           -0.0000000
 Dipole Z            :          0.0000000            0.0000000            0.0000000
 Magnitude           :                                                    6.8027460
  Basis Set: (AUG-CC-PVTZ AUX)
    Blend: DEF2-QZVPP-RI
	 Reference Energy          =    -599.0175080263796872 [Eh]
	 Singles Energy            =      -0.0000000000000000 [Eh]
	 Same-Spin Energy          =      -0.0273143261013000 [Eh]
	 Opposite-Spin Energy      =      -0.0636162021381608 [Eh]
	 Correlation Energy        =      -0.0909305282394608 [Eh]
	 Total Energy              =    -599.1084385546191697 [Eh]
	 SCS Total Energy          =    -599.1029522443126325 [Eh]
                               Psi4 1.9 release
    Molecular point group: c1
  Multiplicity = 1
  Basis Set: AUG-CC-PVTZ
    Blend: AUG-CC-PVTZ
  Basis Set: (AUG-CC-PVTZ AUX)
    Blend: DEF2-UNIVERSAL-JKFIT
  @DF-RHF Final Energy:  -161.67603207643302
    Total Energy =                       -161.6760320764329890
  Basis Set: (AUG-CC-PVTZ AUX)
	 Singles Energy            =      -0.0000000000000000 [Eh]
	 Same-Spin Energy          =      -0.0021081891427365 [Eh]
	 Opposite-Spin Energy      =      -0.0083551241119534 [Eh]
	 Correlation Energy        =      -0.0104633132546899 [Eh]
	 Total Energy              =    -161.6864953896877068 [Eh]
	 SCS Total Energy          =    -161.6867609550816098 [Eh]
                               Psi4 1.9 release
    Molecular point group: c1

    Geometry (in Bohr), charge = 2, multiplicity = 1:

       Center              X                  Y                   Z               Mass
    ------------   -----------------  -----------------  -----------------  -----------------
         NA           0.000000000000     0.000000000000     0.000000000000    22.989769282000
         K            6.803014051648     0.000000000000     0.000000000000    38.963706486400

  Charge       = 2
  Multiplicity = 1
  Basis Set: AUG-CC-PVTZ
    Blend: AUG-CC-PVTZ
  Basis Set: (AUG-CC-PVTZ AUX)
    Blend: DEF2-UNIVERSAL-JKFIT

    Orbital Energies [Eh]
    ---------------------

    Doubly Occupied:

       1A   -133.902399     2A    -40.908221     3A    -14.857523
       4A    -11.887714     5A    -11.887556     6A    -11.887556
       7A     -3.219893     8A     -2.111975     9A     -1.943814
      10A     -1.942551    11A     -1.942551    12A     -1.321200
      13A     -1.317127    14A     -1.317127

  @DF-RHF Final Energy:  -760.54788221855301

   => Energetics <=

    Nuclear Repulsion Energy =             30.7216769527861082
    One-Electron Energy =               -1101.6447035341700484
    Two-Electron Energy =                 310.3751443628308948
    Total Energy =                       -760.5478822185530134
 Dipole X            :       -122.3525453          129.2572670            6.9047217
 Dipole Y            :          0.0000000            0.0000000            0.0000000
 Dipole Z            :          0.0000000            0.0000000            0.0000000
 Magnitude           :                                                    6.9047217
  Basis Set: (AUG-CC-PVTZ AUX)
    Blend: DEF2-QZVPP-RI
	 Reference Energy          =    -760.5478822185530134 [Eh]
	 Singles Energy            =      -0.0000000000000000 [Eh]
	 Same-Spin Energy          =      -0.0293982348272961 [Eh]
	 Opposite-Spin Energy      =      -0.0719163625711445 [Eh]
	 Correlation Energy        =      -0.1013145973984406 [Eh]
	 Total Energy              =    -760.6491968159514272 [Eh]

	 ================> DF-SCS-MP2 Energies <==================
	-----------------------------------------------------------
	 SCS Same-Spin Scale       =       0.3333333333333333 [-]
	 SCS Opposite-Spin Scale   =       1.2000000000000000 [-]
	 SCS Same-Spin Energy      =      -0.0097994116090987 [Eh]
	 SCS Opposite-Spin Energy  =      -0.0862996350853734 [Eh]
	 SCS Correlation Energy    =      -0.0960990466944721 [Eh]
	 SCS Total Energy          =    -760.6439812652474757 [Eh]
	-----------------------------------------------------------

*** Psi4 exiting successfully. Buy a developer a beer!
