                               Psi4 1.9 release

  ==> Input File <==

--------------------------------------------------------------------------
MEMORY 60 GB

molecule dimer {
1 1
Na     0.000000     0.000000     0.000000
--
1 1
K      2.400000     0.000000     0.000000

units ang
no_reorient
no_com
symmetry c1
}

set {
basis        aug-cc-pVTZ
scf_type     df
}

energy("mp2", bsse_type="cp")
--------------------------------------------------------------------------

                               Psi4 1.9 release
    Molecular point group: c1
  Charge       = 1
  Multiplicity = 1
  Basis Set: AUG-CC-PVTZ
    Blend: AUG-CC-PVTZ
  Basis Set: (AUG-CC-PVTZ AUX)
    Blend: DEF2-UNIVERSAL-JKFIT
  @DF-RHF Final Energy:  -599.01751081199302
    Total Energy =                       -599.0175108119931338
 Dipole X            :        -81.6366807           86.1715113            4.5348307
 Dipole Y            :         -0.0000000            0.0000000           -0.0000000
 Dipole Z            :          0.0000000            0.0000000            0.0000000
 Magnitude           :                                                    4.5348307
  Basis Set: (AUG-CC-PVTZ AUX)
    Blend: DEF2-QZVPP-RI
	 Reference Energy          =    -599.0175108119930201 [Eh]
	 Singles Energy            =      -0.0000000000000000 [Eh]
	 Same-Spin Energy          =      -0.0317650440221361 [Eh]
	 Opposite-Spin Energy      =      -0.0759044926780207 [Eh]
	 Correlation Energy        =      -0.1076695367001568 [Eh]
	 Total Energy              =    -599.1251803486932204 [Eh]
	 SCS Total Energy          =    -599.1191845512140617 [Eh]
                               Psi4 1.9 release
    Molecular point group: c1
  Multiplicity = 1
  Basis Set: AUG-CC-PVTZ
    Blend: AUG-CC-PVTZ
  Basis Set: (AUG-CC-PVTZ AUX)
    Blend: DEF2-UNIVERSAL-JKFIT
  @DF-RHF Final Energy:  -161.67604592487857
    Total Energy =                       -161.6760459248785651
  Basis Set: (AUG-CC-PVTZ AUX)
	 Singles Energy            =      -0.0000000000000000 [Eh]
	 Same-Spin Energy          =      -0.0024025481382893 [Eh]
	 Opposite-Spin Energy      =      -0.0090991538326983 [Eh]
	 Correlation Energy        =      -0.0115017019709876 [Eh]
	 Total Energy              =    -161.6875476268495504 [Eh]
	 SCS Total Energy          =    -161.6877657588572390 [Eh]
                               Psi4 1.9 release
    Molecular point group: c1

    Geometry (in Bohr), charge = 2, multiplicity = 1:

       Center              X                  Y                   Z               Mass
    ------------   -----------------  -----------------  -----------------  -----------------
         NA           0.000000000000     0.000000000000     0.000000000000    22.989769282000
         K            4.535342701099     0.000000000000     0.000000000000    38.963706486400

  Charge       = 2
  Multiplicity = 1
  Basis Set: AUG-CC-PVTZ
    Blend: AUG-CC-PVTZ
  Basis Set: (AUG-CC-PVTZ AUX)
    Blend: DEF2-UNIVERSAL-JKFIT

    Orbital Energies [Eh]
    ---------------------

    Doubly Occupied:

       1A   -133.976550     2A    -40.968878     3A    -14.931191
       4A    -11.961676     5A    -11.961085     6A    -11.961085
       7A     -3.283006     8A     -2.186017     9A     -2.008696
      10A     -2.004379    11A     -2.004379    12A     -1.398998
      13A     -1.386880    14A     -1.386880

  @DF-RHF Final Energy:  -760.47519266551433

   => Energetics <=

    Nuclear Repulsion Energy =             46.0825154291791748
    One-Electron Energy =               -1130.2760177765578646
    Two-Electron Energy =                 323.7183096818642412
    Total Energy =                       -760.4751926655144416
 Dipole X            :        -81.4206288           86.1715113            4.7508825
 Dipole Y            :          0.0000000            0.0000000            0.0000000
 Dipole Z            :         -0.0000000            0.0000000           -0.0000000
 Magnitude           :                                                    4.7508825
  Basis Set: (AUG-CC-PVTZ AUX)
    Blend: DEF2-QZVPP-RI
	 Reference Energy          =    -760.4751926655143279 [Eh]
	 Singles Energy            =      -0.0000000000000000 [Eh]
	 Same-Spin Energy          =      -0.0341038225967851 [Eh]
	 Opposite-Spin Energy      =      -0.0847773924579026 [Eh]
	 Correlation Energy        =      -0.1188812150546877 [Eh]
	 Total Energy              =    -760.5940738805689989 [Eh]

	 ================> DF-SCS-MP2 Energies <==================
	-----------------------------------------------------------
	 SCS Same-Spin Scale       =       0.3333333333333333 [-]
	 SCS Opposite-Spin Scale   =       1.2000000000000000 [-]
	 SCS Same-Spin Energy      =      -0.0113679408655950 [Eh]
	 SCS Opposite-Spin Energy  =      -0.1017328709494831 [Eh]
	 SCS Correlation Energy    =      -0.1131008118150781 [Eh]
	 SCS Total Energy          =    -760.5882934773294437 [Eh]
	-----------------------------------------------------------

*** Psi4 exiting successfully. Buy a developer a beer!
