                               Psi4 1.9 release

  ==> Input File <==

--------------------------------------------------------------------------
MEMORY 60 GB

molecule dimer {
1 1
Na     0.000000     0.000000     0.000000
--
1 1
K      3.360000     0.000000     0.000000

units ang
no_reorient
no_com
symmetry c1
}

set {
basis        aug-cc-pVTZ
scf_type     df
}

energy("mp2", bsse_type="cp")
--------------------------------------------------------------------------

                               Psi4 1.9 release
    Molecular point group: c1
  Charge       = 1
  Multiplicity = 1
  Basis Set: AUG-CC-PVTZ
    Blend: AUG-CC-PVTZ
  Basis Set: (AUG-CC-PVTZ AUX)
    Blend: DEF2-UNIVERSAL-JKFIT
  @DF-RHF Final Energy:  -599.01750848864754
    Total Energy =                       -599.0175084886475361
 Dipole X            :       -114.2909284          120.6401158            6.3491874
 Dipole Y            :         -0.0000000            0.0000000           -0.0000000
 Dipole Z            :          0.0000000            0.0000000            0.0000000
 Magnitude           :                                                    6.3491874
  Basis Set: (AUG-CC-PVTZ AUX)
    Blend: DEF2-QZVPP-RI
	 Reference Energy          =    -599.0175084886475361 [Eh]
	 Singles Energy            =      -0.0000000000000000 [Eh]
	 Same-Spin Energy          =      -0.0278075670903282 [Eh]
	 Opposite-Spin Energy      =      -0.0650562079749858 [Eh]
	 Correlation Energy        =      -0.0928637750653140 [Eh]
	 Total Energy              =    -599.1103722637128612 [Eh]
	 SCS Total Energy          =    -599.1048451272475859 [Eh]
                               Psi4 1.9 release
    Molecular point group: c1
  Multiplicity = 1
  Basis Set: AUG-CC-PVTZ
    Blend: AUG-CC-PVTZ
  Basis Set: (AUG-CC-PVTZ AUX)
    Blend: DEF2-UNIVERSAL-JKFIT
  @DF-RHF Final Energy:  -161.67603349305438
    Total Energy =                       -161.6760334930543763
  Basis Set: (AUG-CC-PVTZ AUX)
	 Singles Energy            =      -0.0000000000000000 [Eh]
	 Same-Spin Energy          =      -0.0021369883270978 [Eh]
	 Opposite-Spin Energy      =      -0.0084335857737307 [Eh]
	 Correlation Energy        =      -0.0105705741008285 [Eh]
	 Total Energy              =    -161.6866040671552014 [Eh]
	 SCS Total Energy          =    -161.6868661254252117 [Eh]
                               Psi4 1.9 release
    Molecular point group: c1

    Geometry (in Bohr), charge = 2, multiplicity = 1:

       Center              X                  Y                   Z               Mass
    ------------   -----------------  -----------------  -----------------  -----------------
         NA           0.000000000000     0.000000000000     0.000000000000    22.989769282000
         K            6.349479781538     0.000000000000     0.000000000000    38.963706486400

  Charge       = 2
  Multiplicity = 1
  Basis Set: AUG-CC-PVTZ
    Blend: AUG-CC-PVTZ
  Basis Set: (AUG-CC-PVTZ AUX)
    Blend: DEF2-UNIVERSAL-JKFIT

    Orbital Energies [Eh]
    ---------------------

    Doubly Occupied:

       1A   -133.913480     2A    -40.917860     3A    -14.868478
       4A    -11.898704     5A    -11.898508     6A    -11.898508
       7A     -3.229546     8A     -2.122672     9A     -1.953606
      10A     -1.952103    11A     -1.952103    12A     -1.332474
      13A     -1.327497    14A     -1.327497

  @DF-RHF Final Energy:  -760.53782111227304

   => Energetics <=

    Nuclear Repulsion Energy =             32.9160824494136932
    One-Electron Energy =               -1105.7217349158138404
    Two-Electron Energy =                 312.2678313541272814
    Total Energy =                       -760.5378211122729226
 Dipole X            :       -114.1725044          120.6401158            6.4676114
 Dipole Y            :          0.0000000            0.0000000            0.0000000
 Dipole Z            :         -0.0000000            0.0000000           -0.0000000
 Magnitude           :                                                    6.4676114
  Basis Set: (AUG-CC-PVTZ AUX)
    Blend: DEF2-QZVPP-RI
	 Reference Energy          =    -760.5378211122730363 [Eh]
	 Singles Energy            =      -0.0000000000000000 [Eh]
	 Same-Spin Energy          =      -0.0299220535281034 [Eh]
	 Opposite-Spin Energy      =      -0.0734418057109884 [Eh]
	 Correlation Energy        =      -0.1033638592390917 [Eh]
	 Total Energy              =    -760.6411849715120752 [Eh]

	 ================> DF-SCS-MP2 Energies <==================
	-----------------------------------------------------------
	 SCS Same-Spin Scale       =       0.3333333333333333 [-]
	 SCS Opposite-Spin Scale   =       1.2000000000000000 [-]
	 SCS Same-Spin Energy      =      -0.0099740178427011 [Eh]
	 SCS Opposite-Spin Energy  =      -0.0881301668531860 [Eh]
	 SCS Correlation Energy    =      -0.0981041846958871 [Eh]
	 SCS Total Energy          =    -760.6359252969689351 [Eh]
	-----------------------------------------------------------

*** Psi4 exiting successfully. Buy a developer a beer!
