                               Psi4 1.9 release

  ==> Input File <==

--------------------------------------------------------------------------
MEMORY 60 GB

molecule dimer {
1 1
Na     0.000000     0.000000     0.000000
--
1 1
K      3.120000     0.000000     0.000000

units ang
no_reorient
no_com
symmetry c1
}

set {
basis        aug-cc-pVTZ
scf_type     df
}

energy("mp2", bsse_type="cp")
--------------------------------------------------------------------------

                               Psi4 1.9 release
    Molecular point group: c1
  Charge       = 1
  Multiplicity = 1
  Basis Set: AUG-CC-PVTZ
    Blend: AUG-CC-PVTZ
  Basis Set: (AUG-CC-PVTZ AUX)
    Blend: DEF2-UNIVERSAL-JKFIT
  @DF-RHF Final Energy:  -599.01750899560284
    Total Energy =                       -599.0175089956028387
 Dipole X            :       -106.1273382          112.0229647            5.8956265
 Dipole Y            :          0.0000000            0.0000000            0.0000000
 Dipole Z            :         -0.0000000            0.0000000           -0.0000000
 Magnitude           :                                                    5.8956265
  Basis Set: (AUG-CC-PVTZ AUX)
    Blend: DEF2-QZVPP-RI
	 Reference Energy          =    -599.0175089956028387 [Eh]
	 Singles Energy            =      -0.0000000000000000 [Eh]
	 Same-Spin Energy          =      -0.0285029097979578 [Eh]
	 Opposite-Spin Energy      =      -0.0669601900700574 [Eh]
	 Correlation Energy        =      -0.0954630998680152 [Eh]
	 Total Energy              =    -599.1129720954708091 [Eh]
	 SCS Total Energy          =    -599.1073621936195650 [Eh]
                               Psi4 1.9 release
    Molecular point group: c1
  Multiplicity = 1
  Basis Set: AUG-CC-PVTZ
    Blend: AUG-CC-PVTZ
  Basis Set: (AUG-CC-PVTZ AUX)
    Blend: DEF2-UNIVERSAL-JKFIT
  @DF-RHF Final Energy:  -161.67603548431444
    Total Energy =                       -161.6760354843144114
  Basis Set: (AUG-CC-PVTZ AUX)
	 Singles Energy            =      -0.0000000000000000 [Eh]
	 Same-Spin Energy          =      -0.0021665721897313 [Eh]
	 Opposite-Spin Energy      =      -0.0084998247361876 [Eh]
	 Correlation Energy        =      -0.0106663969259189 [Eh]
	 Total Energy              =    -161.6867018812403671 [Eh]
	 SCS Total Energy          =    -161.6869574647277830 [Eh]
                               Psi4 1.9 release
    Molecular point group: c1

    Geometry (in Bohr), charge = 2, multiplicity = 1:

       Center              X                  Y                   Z               Mass
    ------------   -----------------  -----------------  -----------------  -----------------
         NA           0.000000000000     0.000000000000     0.000000000000    22.989769282000
         K            5.895945511428     0.000000000000     0.000000000000    38.963706486400

  Charge       = 2
  Multiplicity = 1
  Basis Set: AUG-CC-PVTZ
    Blend: AUG-CC-PVTZ
  Basis Set: (AUG-CC-PVTZ AUX)
    Blend: DEF2-UNIVERSAL-JKFIT

    Orbital Energies [Eh]
    ---------------------

    Doubly Occupied:

       1A   -133.926215     2A    -40.928617     3A    -14.881080
       4A    -11.911349     5A    -11.911097     6A    -11.911097
       7A     -3.240389     8A     -2.135015     9A     -1.964642
      10A     -1.962815    11A     -1.962815    12A     -1.345555
      13A     -1.339386    14A     -1.339386

  @DF-RHF Final Energy:  -760.52629018785319

   => Energetics <=

    Nuclear Repulsion Energy =             35.4480887916762768
    One-Electron Energy =               -1110.4298402359909232
    Two-Electron Energy =                 314.4554612564614331
    Total Energy =                       -760.5262901878531920
 Dipole X            :       -105.9889677          112.0229647            6.0339970
 Dipole Y            :         -0.0000000            0.0000000           -0.0000000
 Dipole Z            :         -0.0000000            0.0000000           -0.0000000
 Magnitude           :                                                    6.0339970
  Basis Set: (AUG-CC-PVTZ AUX)
    Blend: DEF2-QZVPP-RI
	 Reference Energy          =    -760.5262901878531920 [Eh]
	 Singles Energy            =      -0.0000000000000000 [Eh]
	 Same-Spin Energy          =      -0.0306451017468585 [Eh]
	 Opposite-Spin Energy      =      -0.0754091100814465 [Eh]
	 Correlation Energy        =      -0.1060542118283050 [Eh]
	 Total Energy              =    -760.6323443996815286 [Eh]

	 ================> DF-SCS-MP2 Energies <==================
	-----------------------------------------------------------
	 SCS Same-Spin Scale       =       0.3333333333333333 [-]
	 SCS Opposite-Spin Scale   =       1.2000000000000000 [-]
	 SCS Same-Spin Energy      =      -0.0102150339156195 [Eh]
	 SCS Opposite-Spin Energy  =      -0.0904909320977358 [Eh]
	 SCS Correlation Energy    =      -0.1007059660133553 [Eh]
	 SCS Total Energy          =    -760.6269961538665711 [Eh]
	-----------------------------------------------------------

*** Psi4 exiting successfully. Buy a developer a beer!
