                               Psi4 1.9 release

  ==> Input File <==

--------------------------------------------------------------------------
MEMORY 60 GB

molecule dimer {
1 1
Na     0.000000     0.000000     0.000000
--
1 1
K      2.880000     0.000000     0.000000

units ang
no_reorient
no_com
symmetry c1
}

set {
basis        aug-cc-pVTZ
scf_type     df
}

energy("mp2", bsse_type="cp")
--------------------------------------------------------------------------

                               Psi4 1.9 release
    Molecular point group: c1
  Charge       = 1
  Multiplicity = 1
  Basis Set: AUG-CC-PVTZ
    Blend: AUG-CC-PVTZ
  Basis Set: (AUG-CC-PVTZ AUX)
    Blend: DEF2-UNIVERSAL-JKFIT
  @DF-RHF Final Energy:  -599.01750950400083
    Total Energy =                       -599.0175095040008273
 Dipole X            :        -97.9637641          103.4058136            5.4420495
 Dipole Y            :          0.0000000            0.0000000            0.0000000
 Dipole Z            :         -0.0000000            0.0000000           -0.0000000
 Magnitude           :                                                    5.4420495
  Basis Set: (AUG-CC-PVTZ AUX)
    Blend: DEF2-QZVPP-RI
	 Reference Energy          =    -599.0175095040008273 [Eh]
	 Singles Energy            =      -0.0000000000000000 [Eh]
	 Same-Spin Energy          =      -0.0294707761420894 [Eh]
	 Opposite-Spin Energy      =      -0.0695618341294148 [Eh]
	 Correlation Energy        =      -0.0990326102715043 [Eh]
	 Total Energy              =    -599.1165421142723062 [Eh]
	 SCS Total Energy          =    -599.1108072970034755 [Eh]
                               Psi4 1.9 release
    Molecular point group: c1
  Multiplicity = 1
  Basis Set: AUG-CC-PVTZ
    Blend: AUG-CC-PVTZ
  Basis Set: (AUG-CC-PVTZ AUX)
    Blend: DEF2-UNIVERSAL-JKFIT
  @DF-RHF Final Energy:  -161.67603868367644
    Total Energy =                       -161.6760386836764667
  Basis Set: (AUG-CC-PVTZ AUX)
	 Singles Energy            =      -0.0000000000000000 [Eh]
	 Same-Spin Energy          =      -0.0022265341586071 [Eh]
	 Opposite-Spin Energy      =      -0.0086366316087223 [Eh]
	 Correlation Energy        =      -0.0108631657673294 [Eh]
	 Total Energy              =    -161.6869018494437569 [Eh]
	 SCS Total Energy          =    -161.6871448196597782 [Eh]
                               Psi4 1.9 release
    Molecular point group: c1

    Geometry (in Bohr), charge = 2, multiplicity = 1:

       Center              X                  Y                   Z               Mass
    ------------   -----------------  -----------------  -----------------  -----------------
         NA           0.000000000000     0.000000000000     0.000000000000    22.989769282000
         K            5.442411241319     0.000000000000     0.000000000000    38.963706486400

  Charge       = 2
  Multiplicity = 1
  Basis Set: AUG-CC-PVTZ
    Blend: AUG-CC-PVTZ
  Basis Set: (AUG-CC-PVTZ AUX)
    Blend: DEF2-UNIVERSAL-JKFIT

    Orbital Energies [Eh]
    ---------------------

    Doubly Occupied:

       1A   -133.941048     2A    -40.940594     3A    -14.895745
       4A    -11.926071     5A    -11.925740     6A    -11.925740
       7A     -3.252613     8A     -2.149409     9A     -1.977156
      10A     -1.974856    11A     -1.974856    12A     -1.360857
      13A     -1.353125    14A     -1.353125

  @DF-RHF Final Energy:  -760.51283811408950

   => Energetics <=

    Nuclear Repulsion Energy =             38.4020961909826397
    One-Electron Energy =               -1115.9279974871240029
    Two-Electron Energy =                 317.0130631820519511
    Total Energy =                       -760.5128381140895044
 Dipole X            :        -97.8014734          103.4058136            5.6043402
 Dipole Y            :         -0.0000000            0.0000000           -0.0000000
 Dipole Z            :          0.0000000            0.0000000            0.0000000
 Magnitude           :                                                    5.6043402
  Basis Set: (AUG-CC-PVTZ AUX)
    Blend: DEF2-QZVPP-RI
	 Reference Energy          =    -760.5128381140895044 [Eh]
	 Singles Energy            =      -0.0000000000000000 [Eh]
	 Same-Spin Energy          =      -0.0316640044963662 [Eh]
	 Opposite-Spin Energy      =      -0.0781285312691998 [Eh]
	 Correlation Energy        =      -0.1097925357655660 [Eh]
	 Total Energy              =    -760.6226306498550684 [Eh]

	 ================> DF-SCS-MP2 Energies <==================
	-----------------------------------------------------------
	 SCS Same-Spin Scale       =       0.3333333333333333 [-]
	 SCS Opposite-Spin Scale   =       1.2000000000000000 [-]
	 SCS Same-Spin Energy      =      -0.0105546681654554 [Eh]
	 SCS Opposite-Spin Energy  =      -0.0937542375230398 [Eh]
	 SCS Correlation Energy    =      -0.1043089056884951 [Eh]
	 SCS Total Energy          =    -760.6171470197780309 [Eh]
	-----------------------------------------------------------

*** Psi4 exiting successfully. Buy a developer a beer!
