                               Psi4 1.9 release

  ==> Input File <==

--------------------------------------------------------------------------
MEMORY 60 GB

molecule dimer {
1 1
Na     0.000000     0.000000     0.000000
--
1 1
K      2.640000     0.000000     0.000000

units ang
no_reorient
no_com
symmetry c1
}

set {
basis        aug-cc-pVTZ
scf_type     df
}

energy("mp2", bsse_type="cp")
--------------------------------------------------------------------------

                               Psi4 1.9 release
    Molecular point group: c1
  Charge       = 1
  Multiplicity = 1
  Basis Set: AUG-CC-PVTZ
    Blend: AUG-CC-PVTZ
  Basis Set: (AUG-CC-PVTZ AUX)
    Blend: DEF2-UNIVERSAL-JKFIT
  @DF-RHF Final Energy:  -599.01751006625966
    Total Energy =                       -599.0175100662597742
 Dipole X            :        -89.8002169           94.7886625            4.9884455
 Dipole Y            :         -0.0000000            0.0000000           -0.0000000
 Dipole Z            :          0.0000000            0.0000000            0.0000000
 Magnitude           :                                                    4.9884455
  Basis Set: (AUG-CC-PVTZ AUX)
    Blend: DEF2-QZVPP-RI
	 Reference Energy          =    -599.0175100662596606 [Eh]
	 Singles Energy            =      -0.0000000000000000 [Eh]
	 Same-Spin Energy          =      -0.0306241077326209 [Eh]
	 Opposite-Spin Energy      =      -0.0726987309152804 [Eh]
	 Correlation Energy        =      -0.1033228386479014 [Eh]
	 Total Energy              =    -599.1208329049076156 [Eh]
	 SCS Total Energy          =    -599.1149565792688918 [Eh]
                               Psi4 1.9 release
    Molecular point group: c1
  Multiplicity = 1
  Basis Set: AUG-CC-PVTZ
    Blend: AUG-CC-PVTZ
  Basis Set: (AUG-CC-PVTZ AUX)
    Blend: DEF2-UNIVERSAL-JKFIT
  @DF-RHF Final Energy:  -161.67604248533448
    Total Energy =                       -161.6760424853344773
  Basis Set: (AUG-CC-PVTZ AUX)
	 Singles Energy            =      -0.0000000000000000 [Eh]
	 Same-Spin Energy          =      -0.0023205946728085 [Eh]
	 Opposite-Spin Energy      =      -0.0088720590008996 [Eh]
	 Correlation Energy        =      -0.0111926536737082 [Eh]
	 Total Energy              =    -161.6872351390081803 [Eh]
	 SCS Total Energy          =    -161.6874624876931534 [Eh]
                               Psi4 1.9 release
    Molecular point group: c1

    Geometry (in Bohr), charge = 2, multiplicity = 1:

       Center              X                  Y                   Z               Mass
    ------------   -----------------  -----------------  -----------------  -----------------
         NA           0.000000000000     0.000000000000     0.000000000000    22.989769282000
         K            4.988876971209     0.000000000000     0.000000000000    38.963706486400

  Charge       = 2
  Multiplicity = 1
  Basis Set: AUG-CC-PVTZ
    Blend: AUG-CC-PVTZ
  Basis Set: (AUG-CC-PVTZ AUX)
    Blend: DEF2-UNIVERSAL-JKFIT

    Orbital Energies [Eh]
    ---------------------

    Doubly Occupied:

       1A   -133.958113     2A    -40.954000     3A    -14.912647
       4A    -11.943049     5A    -11.942606     6A    -11.942606
       7A     -3.266600     8A     -2.166267     9A     -1.991594
      10A     -1.988545    11A     -1.988545    12A     -1.378717
      13A     -1.368962    14A     -1.368962

  @DF-RHF Final Energy:  -760.49654406881075

   => Energetics <=

    Nuclear Repulsion Energy =             41.8931958447083304
    One-Electron Energy =               -1122.4370543824027209
    Two-Electron Energy =                 320.0473144688836555
    Total Energy =                       -760.4965440688107492
 Dipole X            :        -89.6109226           94.7886625            5.1777398
 Dipole Y            :          0.0000000            0.0000000            0.0000000
 Dipole Z            :          0.0000000            0.0000000            0.0000000
 Magnitude           :                                                    5.1777398
  Basis Set: (AUG-CC-PVTZ AUX)
    Blend: DEF2-QZVPP-RI
	 Reference Energy          =    -760.4965440688107492 [Eh]
	 Singles Energy            =      -0.0000000000000000 [Eh]
	 Same-Spin Energy          =      -0.0328995429826288 [Eh]
	 Opposite-Spin Energy      =      -0.0814620141209187 [Eh]
	 Correlation Energy        =      -0.1143615571035475 [Eh]
	 Total Energy              =    -760.6109056259142562 [Eh]

	 ================> DF-SCS-MP2 Energies <==================
	-----------------------------------------------------------
	 SCS Same-Spin Scale       =       0.3333333333333333 [-]
	 SCS Opposite-Spin Scale   =       1.2000000000000000 [-]
	 SCS Same-Spin Energy      =      -0.0109665143275429 [Eh]
	 SCS Opposite-Spin Energy  =      -0.0977544169451025 [Eh]
	 SCS Correlation Energy    =      -0.1087209312726454 [Eh]
	 SCS Total Energy          =    -760.6052650000833637 [Eh]
	-----------------------------------------------------------

*** Psi4 exiting successfully. Buy a developer a beer!
