                               Psi4 1.9 release

  ==> Input File <==

--------------------------------------------------------------------------
MEMORY 60 GB

molecule dimer {
1 1
K      0.000000     0.000000     0.000000
--
1 1
K      2.760000     0.000000     0.000000

units ang
no_reorient
no_com
symmetry c1
}

set {
basis        aug-cc-pVTZ
scf_type     df
}

energy("mp2", bsse_type="cp")
--------------------------------------------------------------------------

                               Psi4 1.9 release
    Molecular point group: c1
  Charge       = 1
  Multiplicity = 1
  Basis Set: AUG-CC-PVTZ
    Blend: AUG-CC-PVTZ
  Basis Set: (AUG-CC-PVTZ AUX)
    Blend: DEF2-UNIVERSAL-JKFIT
  @DF-RHF Final Energy:  -599.01750902182619
    Total Energy =                       -599.0175090218261857
 Dipole X            :        -93.8818934           99.0972380            5.2153447
 Dipole Y            :         -0.0000000            0.0000000           -0.0000000
 Dipole Z            :          0.0000000            0.0000000            0.0000000
 Magnitude           :                                                    5.2153447
  Basis Set: (AUG-CC-PVTZ AUX)
    Blend: DEF2-QZVPP-RI
	 Reference Energy          =    -599.0175090218261857 [Eh]
	 Singles Energy            =      -0.0000000000000000 [Eh]
	 Same-Spin Energy          =      -0.0290349662089367 [Eh]
	 Opposite-Spin Energy      =      -0.0686581141072790 [Eh]
	 Correlation Energy        =      -0.0976930803162158 [Eh]
	 Total Energy              =    -599.1152021021423479 [Eh]
	 SCS Total Energy          =    -599.1095770808245788 [Eh]
                               Psi4 1.9 release
    Molecular point group: c1
  Multiplicity = 1
  Basis Set: AUG-CC-PVTZ
    Blend: AUG-CC-PVTZ
  Basis Set: (AUG-CC-PVTZ AUX)
    Blend: DEF2-UNIVERSAL-JKFIT
  @DF-RHF Final Energy:  -599.01750902179640
    Total Energy =                       -599.0175090217963998
  Basis Set: (AUG-CC-PVTZ AUX)
	 Singles Energy            =      -0.0000000000000000 [Eh]
	 Same-Spin Energy          =      -0.0290349662158065 [Eh]
	 Opposite-Spin Energy      =      -0.0686581141270373 [Eh]
	 Correlation Energy        =      -0.0976930803428438 [Eh]
	 Total Energy              =    -599.1152021021392784 [Eh]
	 SCS Total Energy          =    -599.1095770808208272 [Eh]
                               Psi4 1.9 release
    Molecular point group: c1

    Geometry (in Bohr), charge = 2, multiplicity = 1:

       Center              X                  Y                   Z               Mass
    ------------   -----------------  -----------------  -----------------  -----------------
         K            0.000000000000     0.000000000000     0.000000000000    38.963706486400
         K            5.215644106264     0.000000000000     0.000000000000    38.963706486400

  Charge       = 2
  Multiplicity = 1
  Basis Set: AUG-CC-PVTZ
    Blend: AUG-CC-PVTZ
  Basis Set: (AUG-CC-PVTZ AUX)
    Blend: DEF2-UNIVERSAL-JKFIT

    Orbital Energies [Eh]
    ---------------------

    Doubly Occupied:

       1A   -133.938382     2A   -133.938382     3A    -14.893921
       4A    -14.893915     5A    -11.924178     6A    -11.924178
       7A    -11.923860     8A    -11.923860     9A    -11.923858
      10A    -11.923858    11A     -2.155837    12A     -2.144194
      13A     -1.391148    14A     -1.358077    15A     -1.358077
      16A     -1.348751    17A     -1.348751    18A     -1.331985

  @DF-RHF Final Energy: -1197.84437951670407

   => Energetics <=

    Nuclear Repulsion Energy =             69.2148453086485631
    One-Electron Energy =               -1770.8280287823395156
    Two-Electron Energy =                 503.7688039569868010
    Total Energy =                      -1197.8443795167040662
 Dipole X            :        -93.8815939           99.0972380            5.2156441
 Dipole Y            :          0.0000000            0.0000000            0.0000000
 Dipole Z            :          0.0000000            0.0000000            0.0000000
 Magnitude           :                                                    5.2156441
  Basis Set: (AUG-CC-PVTZ AUX)
    Blend: DEF2-QZVPP-RI
	 Reference Energy          =   -1197.8443795167040662 [Eh]
	 Singles Energy            =      -0.0000000000000000 [Eh]
	 Same-Spin Energy          =      -0.0589183294532610 [Eh]
	 Opposite-Spin Energy      =      -0.1382549222858775 [Eh]
	 Correlation Energy        =      -0.1971732517391385 [Eh]
	 Total Energy              =   -1198.0415527684431254 [Eh]

	 ================> DF-SCS-MP2 Energies <==================
	-----------------------------------------------------------
	 SCS Same-Spin Scale       =       0.3333333333333333 [-]
	 SCS Opposite-Spin Scale   =       1.2000000000000000 [-]
	 SCS Same-Spin Energy      =      -0.0196394431510870 [Eh]
	 SCS Opposite-Spin Energy  =      -0.1659059067430531 [Eh]
	 SCS Correlation Energy    =      -0.1855453498941400 [Eh]
	 SCS Total Energy          =   -1198.0299248665980940 [Eh]
	-----------------------------------------------------------

*** Psi4 exiting successfully. Buy a developer a beer!
