                               Psi4 1.9 release

  ==> Input File <==

--------------------------------------------------------------------------
MEMORY 60 GB

molecule dimer {
1 1
K      0.000000     0.000000     0.000000
--
1 1
K      4.140000     0.000000     0.000000

units ang
no_reorient
no_com
symmetry c1
}

set {
basis        aug-cc-pVTZ
scf_type     df
}

energy("mp2", bsse_type="cp")
--------------------------------------------------------------------------

                               Psi4 1.9 release
    Molecular point group: c1
  Charge       = 1
  Multiplicity = 1
  Basis Set: AUG-CC-PVTZ
    Blend: AUG-CC-PVTZ
  Basis Set: (AUG-CC-PVTZ AUX)
    Blend: DEF2-UNIVERSAL-JKFIT
  @DF-RHF Final Energy:  -599.01750762189454
    Total Energy =                       -599.0175076218946515
 Dipole X            :       -140.8226476          148.6458570            7.8232094
 Dipole Y            :          0.0000000            0.0000000            0.0000000
 Dipole Z            :          0.0000000            0.0000000            0.0000000
 Magnitude           :                                                    7.8232094
  Basis Set: (AUG-CC-PVTZ AUX)
    Blend: DEF2-QZVPP-RI
	 Reference Energy          =    -599.0175076218945378 [Eh]
	 Singles Energy            =      -0.0000000000000000 [Eh]
	 Same-Spin Energy          =      -0.0270143179595427 [Eh]
	 Opposite-Spin Energy      =      -0.0626266431413550 [Eh]
	 Correlation Energy        =      -0.0896409611008977 [Eh]
	 Total Energy              =    -599.1071485829954781 [Eh]
	 SCS Total Energy          =    -599.1016643663173227 [Eh]
                               Psi4 1.9 release
    Molecular point group: c1
  Multiplicity = 1
  Basis Set: AUG-CC-PVTZ
    Blend: AUG-CC-PVTZ
  Basis Set: (AUG-CC-PVTZ AUX)
    Blend: DEF2-UNIVERSAL-JKFIT
  @DF-RHF Final Energy:  -599.01750762190704
    Total Energy =                       -599.0175076219070434
  Basis Set: (AUG-CC-PVTZ AUX)
	 Singles Energy            =      -0.0000000000000000 [Eh]
	 Same-Spin Energy          =      -0.0270143179606231 [Eh]
	 Opposite-Spin Energy      =      -0.0626266431434131 [Eh]
	 Correlation Energy        =      -0.0896409611040362 [Eh]
	 Total Energy              =    -599.1071485830110532 [Eh]
	 SCS Total Energy          =    -599.1016643663326704 [Eh]
                               Psi4 1.9 release
    Molecular point group: c1

    Geometry (in Bohr), charge = 2, multiplicity = 1:

       Center              X                  Y                   Z               Mass
    ------------   -----------------  -----------------  -----------------  -----------------
         K            0.000000000000     0.000000000000     0.000000000000    38.963706486400
         K            7.823466159395     0.000000000000     0.000000000000    38.963706486400

  Charge       = 2
  Multiplicity = 1
  Basis Set: AUG-CC-PVTZ
    Blend: AUG-CC-PVTZ
  Basis Set: (AUG-CC-PVTZ AUX)
    Blend: DEF2-UNIVERSAL-JKFIT

    Orbital Energies [Eh]
    ---------------------

    Doubly Occupied:

       1A   -133.881056     2A   -133.881056     3A    -14.836377
       4A    -14.836377     5A    -11.866513     6A    -11.866513
       7A    -11.866413     8A    -11.866413     9A    -11.866413
      10A    -11.866413    11A     -2.091312    12A     -2.091161
      13A     -1.300710    14A     -1.298338    15A     -1.297012
      16A     -1.297012    17A     -1.296790    18A     -1.296790

  @DF-RHF Final Energy: -1197.90854874131378

   => Energetics <=

    Nuclear Repulsion Energy =             46.1432302057657040
    One-Electron Energy =               -1726.8982176300060019
    Two-Electron Energy =                 482.8464386829265891
    Total Energy =                      -1197.9085487413135525
 Dipole X            :       -140.8223909          148.6458570            7.8234662
 Dipole Y            :          0.0000000            0.0000000            0.0000000
 Dipole Z            :          0.0000000            0.0000000            0.0000000
 Magnitude           :                                                    7.8234662
  Basis Set: (AUG-CC-PVTZ AUX)
    Blend: DEF2-QZVPP-RI
	 Reference Energy          =   -1197.9085487413137798 [Eh]
	 Singles Energy            =      -0.0000000000000000 [Eh]
	 Same-Spin Energy          =      -0.0540825862479493 [Eh]
	 Opposite-Spin Energy      =      -0.1253145430807441 [Eh]
	 Correlation Energy        =      -0.1793971293286934 [Eh]
	 Total Energy              =   -1198.0879458706424430 [Eh]

	 ================> DF-SCS-MP2 Energies <==================
	-----------------------------------------------------------
	 SCS Same-Spin Scale       =       0.3333333333333333 [-]
	 SCS Opposite-Spin Scale   =       1.2000000000000000 [-]
	 SCS Same-Spin Energy      =      -0.0180275287493164 [Eh]
	 SCS Opposite-Spin Energy  =      -0.1503774516968929 [Eh]
	 SCS Correlation Energy    =      -0.1684049804462093 [Eh]
	 SCS Total Energy          =   -1198.0769537217599918 [Eh]
	-----------------------------------------------------------

*** Psi4 exiting successfully. Buy a developer a beer!
