                               Psi4 1.9 release

  ==> Input File <==

--------------------------------------------------------------------------
MEMORY 60 GB

molecule dimer {
1 1
K      0.000000     0.000000     0.000000
--
1 1
K      3.864000     0.000000     0.000000

units ang
no_reorient
no_com
symmetry c1
}

set {
basis        aug-cc-pVTZ
scf_type     df
}

energy("mp2", bsse_type="cp")
--------------------------------------------------------------------------

                               Psi4 1.9 release
    Molecular point group: c1
  Charge       = 1
  Multiplicity = 1
  Basis Set: AUG-CC-PVTZ
    Blend: AUG-CC-PVTZ
  Basis Set: (AUG-CC-PVTZ AUX)
    Blend: DEF2-UNIVERSAL-JKFIT
  @DF-RHF Final Energy:  -599.01750804375001
    Total Energy =                       -599.0175080437500128
 Dipole X            :       -131.4344877          138.7361332            7.3016455
 Dipole Y            :          0.0000000            0.0000000            0.0000000
 Dipole Z            :          0.0000000            0.0000000            0.0000000
 Magnitude           :                                                    7.3016455
  Basis Set: (AUG-CC-PVTZ AUX)
    Blend: DEF2-QZVPP-RI
	 Reference Energy          =    -599.0175080437500128 [Eh]
	 Singles Energy            =      -0.0000000000000000 [Eh]
	 Same-Spin Energy          =      -0.0272104339507997 [Eh]
	 Opposite-Spin Energy      =      -0.0631828853578513 [Eh]
	 Correlation Energy        =      -0.0903933193086510 [Eh]
	 Total Energy              =    -599.1079013630586587 [Eh]
	 SCS Total Energy          =    -599.1023976508297437 [Eh]
                               Psi4 1.9 release
    Molecular point group: c1
  Multiplicity = 1
  Basis Set: AUG-CC-PVTZ
    Blend: AUG-CC-PVTZ
  Basis Set: (AUG-CC-PVTZ AUX)
    Blend: DEF2-UNIVERSAL-JKFIT
  @DF-RHF Final Energy:  -599.01750804372818
    Total Energy =                       -599.0175080437281849
  Basis Set: (AUG-CC-PVTZ AUX)
	 Singles Energy            =      -0.0000000000000000 [Eh]
	 Same-Spin Energy          =      -0.0272104339520892 [Eh]
	 Opposite-Spin Energy      =      -0.0631828853609516 [Eh]
	 Correlation Energy        =      -0.0903933193130408 [Eh]
	 Total Energy              =    -599.1079013630412646 [Eh]
	 SCS Total Energy          =    -599.1023976508120086 [Eh]
                               Psi4 1.9 release
    Molecular point group: c1

    Geometry (in Bohr), charge = 2, multiplicity = 1:

       Center              X                  Y                   Z               Mass
    ------------   -----------------  -----------------  -----------------  -----------------
         K            0.000000000000     0.000000000000     0.000000000000    38.963706486400
         K            7.301901748769     0.000000000000     0.000000000000    38.963706486400

  Charge       = 2
  Multiplicity = 1
  Basis Set: AUG-CC-PVTZ
    Blend: AUG-CC-PVTZ
  Basis Set: (AUG-CC-PVTZ AUX)
    Blend: DEF2-UNIVERSAL-JKFIT

    Orbital Energies [Eh]
    ---------------------

    Doubly Occupied:

       1A   -133.889963     2A   -133.889963     3A    -14.845246
       4A    -14.845246     5A    -11.875398     6A    -11.875398
       7A    -11.875277     8A    -11.875277     9A    -11.875277
      10A    -11.875277    11A     -2.100214    12A     -2.099841
      13A     -1.311028    14A     -1.306341    15A     -1.305727
      16A     -1.305727    17A     -1.305253    18A     -1.305253

  @DF-RHF Final Energy: -1197.89983304802854

   => Energetics <=

    Nuclear Repulsion Energy =             49.4391752204632553
    One-Electron Energy =               -1733.1546060604919148
    Two-Electron Energy =                 485.8155977920001760
    Total Energy =                      -1197.8998330480285404
 Dipole X            :       -131.4342315          138.7361332            7.3019017
 Dipole Y            :         -0.0000000            0.0000000           -0.0000000
 Dipole Z            :         -0.0000000            0.0000000           -0.0000000
 Magnitude           :                                                    7.3019017
  Basis Set: (AUG-CC-PVTZ AUX)
    Blend: DEF2-QZVPP-RI
	 Reference Energy          =   -1197.8998330480285404 [Eh]
	 Singles Energy            =      -0.0000000000000000 [Eh]
	 Same-Spin Energy          =      -0.0545186109628665 [Eh]
	 Opposite-Spin Energy      =      -0.1264920946682066 [Eh]
	 Correlation Energy        =      -0.1810107056310731 [Eh]
	 Total Energy              =   -1198.0808437536595648 [Eh]

	 ================> DF-SCS-MP2 Energies <==================
	-----------------------------------------------------------
	 SCS Same-Spin Scale       =       0.3333333333333333 [-]
	 SCS Opposite-Spin Scale   =       1.2000000000000000 [-]
	 SCS Same-Spin Energy      =      -0.0181728703209555 [Eh]
	 SCS Opposite-Spin Energy  =      -0.1517905136018479 [Eh]
	 SCS Correlation Energy    =      -0.1699633839228034 [Eh]
	 SCS Total Energy          =   -1198.0697964319513176 [Eh]
	-----------------------------------------------------------

*** Psi4 exiting successfully. Buy a developer a beer!
