                               Psi4 1.9 release

  ==> Input File <==

--------------------------------------------------------------------------
MEMORY 60 GB

molecule dimer {
1 1
K      0.000000     0.000000     0.000000
--
1 1
K      3.588000     0.000000     0.000000

units ang
no_reorient
no_com
symmetry c1
}

set {
basis        aug-cc-pVTZ
scf_type     df
}

energy("mp2", bsse_type="cp")
--------------------------------------------------------------------------

                               Psi4 1.9 release
    Molecular point group: c1
  Charge       = 1
  Multiplicity = 1
  Basis Set: AUG-CC-PVTZ
    Blend: AUG-CC-PVTZ
  Basis Set: (AUG-CC-PVTZ AUX)
    Blend: DEF2-UNIVERSAL-JKFIT
  @DF-RHF Final Energy:  -599.01750843313403
    Total Energy =                       -599.0175084331340258
 Dipole X            :       -122.0462375          128.8264094            6.7801719
 Dipole Y            :         -0.0000000            0.0000000           -0.0000000
 Dipole Z            :         -0.0000000            0.0000000           -0.0000000
 Magnitude           :                                                    6.7801719
  Basis Set: (AUG-CC-PVTZ AUX)
    Blend: DEF2-QZVPP-RI
	 Reference Energy          =    -599.0175084331340258 [Eh]
	 Singles Energy            =      -0.0000000000000000 [Eh]
	 Same-Spin Energy          =      -0.0275435224052993 [Eh]
	 Opposite-Spin Energy      =      -0.0643199074172897 [Eh]
	 Correlation Energy        =      -0.0918634298225890 [Eh]
	 Total Energy              =    -599.1093718629566638 [Eh]
	 SCS Total Energy          =    -599.1038734961698538 [Eh]
                               Psi4 1.9 release
    Molecular point group: c1
  Multiplicity = 1
  Basis Set: AUG-CC-PVTZ
    Blend: AUG-CC-PVTZ
  Basis Set: (AUG-CC-PVTZ AUX)
    Blend: DEF2-UNIVERSAL-JKFIT
  @DF-RHF Final Energy:  -599.01750843314767
    Total Energy =                       -599.0175084331476683
  Basis Set: (AUG-CC-PVTZ AUX)
	 Singles Energy            =      -0.0000000000000000 [Eh]
	 Same-Spin Energy          =      -0.0275435224043766 [Eh]
	 Opposite-Spin Energy      =      -0.0643199074145866 [Eh]
	 Correlation Energy        =      -0.0918634298189632 [Eh]
	 Total Energy              =    -599.1093718629666682 [Eh]
	 SCS Total Energy          =    -599.1038734961799719 [Eh]
                               Psi4 1.9 release
    Molecular point group: c1

    Geometry (in Bohr), charge = 2, multiplicity = 1:

       Center              X                  Y                   Z               Mass
    ------------   -----------------  -----------------  -----------------  -----------------
         K            0.000000000000     0.000000000000     0.000000000000    38.963706486400
         K            6.780337338143     0.000000000000     0.000000000000    38.963706486400

  Charge       = 2
  Multiplicity = 1
  Basis Set: AUG-CC-PVTZ
    Blend: AUG-CC-PVTZ
  Basis Set: (AUG-CC-PVTZ AUX)
    Blend: DEF2-UNIVERSAL-JKFIT

    Orbital Energies [Eh]
    ---------------------

    Doubly Occupied:

       1A   -133.900236     2A   -133.900236     3A    -14.855426
       4A    -14.855425     5A    -11.885605     6A    -11.885605
       7A    -11.885455     8A    -11.885455     9A    -11.885455
      10A    -11.885455    11A     -2.110498    12A     -2.109597
      13A     -1.323742    14A     -1.315749    15A     -1.315749
      16A     -1.314743    17A     -1.314743    18A     -1.314649

  @DF-RHF Final Energy: -1197.88984138867613

   => Energetics <=

    Nuclear Repulsion Energy =             53.2421886989604261
    One-Electron Energy =               -1740.3764142774195989
    Two-Electron Energy =                 489.2443841897830339
    Total Energy =                      -1197.8898413886761318
 Dipole X            :       -122.0460721          128.8264094            6.7803373
 Dipole Y            :          0.0000000            0.0000000            0.0000000
 Dipole Z            :         -0.0000000            0.0000000           -0.0000000
 Magnitude           :                                                    6.7803373
  Basis Set: (AUG-CC-PVTZ AUX)
    Blend: DEF2-QZVPP-RI
	 Reference Energy          =   -1197.8898413886761318 [Eh]
	 Singles Energy            =      -0.0000000000000000 [Eh]
	 Same-Spin Energy          =      -0.0552584292785038 [Eh]
	 Opposite-Spin Energy      =      -0.1288780288845608 [Eh]
	 Correlation Energy        =      -0.1841364581630646 [Eh]
	 Total Energy              =   -1198.0739778468391705 [Eh]

	 ================> DF-SCS-MP2 Energies <==================
	-----------------------------------------------------------
	 SCS Same-Spin Scale       =       0.3333333333333333 [-]
	 SCS Opposite-Spin Scale   =       1.2000000000000000 [-]
	 SCS Same-Spin Energy      =      -0.0184194764261679 [Eh]
	 SCS Opposite-Spin Energy  =      -0.1546536346614729 [Eh]
	 SCS Correlation Energy    =      -0.1730731110876408 [Eh]
	 SCS Total Energy          =   -1198.0629144997637923 [Eh]
	-----------------------------------------------------------

*** Psi4 exiting successfully. Buy a developer a beer!
