                               Psi4 1.9 release

  ==> Input File <==

--------------------------------------------------------------------------
MEMORY 60 GB

molecule dimer {
1 1
K      0.000000     0.000000     0.000000
--
1 1
K      3.312000     0.000000     0.000000

units ang
no_reorient
no_com
symmetry c1
}

set {
basis        aug-cc-pVTZ
scf_type     df
}

energy("mp2", bsse_type="cp")
--------------------------------------------------------------------------

                               Psi4 1.9 release
    Molecular point group: c1
  Charge       = 1
  Multiplicity = 1
  Basis Set: AUG-CC-PVTZ
    Blend: AUG-CC-PVTZ
  Basis Set: (AUG-CC-PVTZ AUX)
    Blend: DEF2-UNIVERSAL-JKFIT
  @DF-RHF Final Energy:  -599.01750871644595
    Total Energy =                       -599.0175087164459455
 Dipole X            :       -112.6581394          118.9166856            6.2585462
 Dipole Y            :         -0.0000000            0.0000000           -0.0000000
 Dipole Z            :         -0.0000000            0.0000000           -0.0000000
 Magnitude           :                                                    6.2585462
  Basis Set: (AUG-CC-PVTZ AUX)
    Blend: DEF2-QZVPP-RI
	 Reference Energy          =    -599.0175087164459455 [Eh]
	 Singles Energy            =      -0.0000000000000000 [Eh]
	 Same-Spin Energy          =      -0.0279013595247340 [Eh]
	 Opposite-Spin Energy      =      -0.0655917987351167 [Eh]
	 Correlation Energy        =      -0.0934931582598507 [Eh]
	 Total Energy              =    -599.1110018747058348 [Eh]
	 SCS Total Energy          =    -599.1055193281030142 [Eh]
                               Psi4 1.9 release
    Molecular point group: c1
  Multiplicity = 1
  Basis Set: AUG-CC-PVTZ
    Blend: AUG-CC-PVTZ
  Basis Set: (AUG-CC-PVTZ AUX)
    Blend: DEF2-UNIVERSAL-JKFIT
  @DF-RHF Final Energy:  -599.01750871647107
    Total Energy =                       -599.0175087164710703
  Basis Set: (AUG-CC-PVTZ AUX)
	 Singles Energy            =      -0.0000000000000000 [Eh]
	 Same-Spin Energy          =      -0.0279013595234857 [Eh]
	 Opposite-Spin Energy      =      -0.0655917987306436 [Eh]
	 Correlation Energy        =      -0.0934931582541293 [Eh]
	 Total Energy              =    -599.1110018747251615 [Eh]
	 SCS Total Energy          =    -599.1055193281223410 [Eh]
                               Psi4 1.9 release
    Molecular point group: c1

    Geometry (in Bohr), charge = 2, multiplicity = 1:

       Center              X                  Y                   Z               Mass
    ------------   -----------------  -----------------  -----------------  -----------------
         K            0.000000000000     0.000000000000     0.000000000000    38.963706486400
         K            6.258772927516     0.000000000000     0.000000000000    38.963706486400

  Charge       = 2
  Multiplicity = 1
  Basis Set: AUG-CC-PVTZ
    Blend: AUG-CC-PVTZ
  Basis Set: (AUG-CC-PVTZ AUX)
    Blend: DEF2-UNIVERSAL-JKFIT

    Orbital Energies [Eh]
    ---------------------

    Doubly Occupied:

       1A   -133.911960     2A   -133.911960     3A    -14.867055
       4A    -14.867054     5A    -11.897268     6A    -11.897268
       7A    -11.897081     8A    -11.897081     9A    -11.897081
      10A    -11.897081    11A     -2.122613    12A     -2.120471
      13A     -1.339971    14A     -1.327446    15A     -1.327446
      16A     -1.325323    17A     -1.325323    18A     -1.322695

  @DF-RHF Final Energy: -1197.87817143396023

   => Energetics <=

    Nuclear Repulsion Energy =             57.6790377572071336
    One-Electron Energy =               -1748.8100690431381281
    Two-Electron Energy =                 493.2528598519708112
    Total Energy =                      -1197.8781714339602331
 Dipole X            :       -112.6579127          118.9166856            6.2587729
 Dipole Y            :          0.0000000            0.0000000            0.0000000
 Dipole Z            :          0.0000000            0.0000000            0.0000000
 Magnitude           :                                                    6.2587729
  Basis Set: (AUG-CC-PVTZ AUX)
    Blend: DEF2-QZVPP-RI
	 Reference Energy          =   -1197.8781714339602331 [Eh]
	 Singles Energy            =      -0.0000000000000000 [Eh]
	 Same-Spin Energy          =      -0.0561065216455961 [Eh]
	 Opposite-Spin Energy      =      -0.1316036652098360 [Eh]
	 Correlation Energy        =      -0.1877101868554321 [Eh]
	 Total Energy              =   -1198.0658816208156168 [Eh]

	 ================> DF-SCS-MP2 Energies <==================
	-----------------------------------------------------------
	 SCS Same-Spin Scale       =       0.3333333333333333 [-]
	 SCS Opposite-Spin Scale   =       1.2000000000000000 [-]
	 SCS Same-Spin Energy      =      -0.0187021738818654 [Eh]
	 SCS Opposite-Spin Energy  =      -0.1579243982518032 [Eh]
	 SCS Correlation Energy    =      -0.1766265721336686 [Eh]
	 SCS Total Energy          =   -1198.0547980060939608 [Eh]
	-----------------------------------------------------------

*** Psi4 exiting successfully. Buy a developer a beer!
