                               Psi4 1.9 release

  ==> Input File <==

--------------------------------------------------------------------------
MEMORY 60 GB

molecule dimer {
1 1
K      0.000000     0.000000     0.000000
--
1 1
K      3.036000     0.000000     0.000000

units ang
no_reorient
no_com
symmetry c1
}

set {
basis        aug-cc-pVTZ
scf_type     df
}

energy("mp2", bsse_type="cp")
--------------------------------------------------------------------------

                               Psi4 1.9 release
    Molecular point group: c1
  Charge       = 1
  Multiplicity = 1
  Basis Set: AUG-CC-PVTZ
    Blend: AUG-CC-PVTZ
  Basis Set: (AUG-CC-PVTZ AUX)
    Blend: DEF2-UNIVERSAL-JKFIT
  @DF-RHF Final Energy:  -599.01750893445092
    Total Energy =                       -599.0175089344509161
 Dipole X            :       -103.2700468          109.0069618            5.7369150
 Dipole Y            :         -0.0000000            0.0000000           -0.0000000
 Dipole Z            :         -0.0000000            0.0000000           -0.0000000
 Magnitude           :                                                    5.7369150
  Basis Set: (AUG-CC-PVTZ AUX)
    Blend: DEF2-QZVPP-RI
	 Reference Energy          =    -599.0175089344509161 [Eh]
	 Singles Energy            =      -0.0000000000000000 [Eh]
	 Same-Spin Energy          =      -0.0283253815382657 [Eh]
	 Opposite-Spin Energy      =      -0.0667820538519150 [Eh]
	 Correlation Energy        =      -0.0951074353901808 [Eh]
	 Total Energy              =    -599.1126163698411347 [Eh]
	 SCS Total Energy          =    -599.1070891929192612 [Eh]
                               Psi4 1.9 release
    Molecular point group: c1
  Multiplicity = 1
  Basis Set: AUG-CC-PVTZ
    Blend: AUG-CC-PVTZ
  Basis Set: (AUG-CC-PVTZ AUX)
    Blend: DEF2-UNIVERSAL-JKFIT
  @DF-RHF Final Energy:  -599.01750893457483
    Total Energy =                       -599.0175089345749484
  Basis Set: (AUG-CC-PVTZ AUX)
	 Singles Energy            =      -0.0000000000000000 [Eh]
	 Same-Spin Energy          =      -0.0283253815398412 [Eh]
	 Opposite-Spin Energy      =      -0.0667820538587408 [Eh]
	 Correlation Energy        =      -0.0951074353985820 [Eh]
	 Total Energy              =    -599.1126163699734661 [Eh]
	 SCS Total Energy          =    -599.1070891930519338 [Eh]
                               Psi4 1.9 release
    Molecular point group: c1

    Geometry (in Bohr), charge = 2, multiplicity = 1:

       Center              X                  Y                   Z               Mass
    ------------   -----------------  -----------------  -----------------  -----------------
         K            0.000000000000     0.000000000000     0.000000000000    38.963706486400
         K            5.737208516890     0.000000000000     0.000000000000    38.963706486400

  Charge       = 2
  Multiplicity = 1
  Basis Set: AUG-CC-PVTZ
    Blend: AUG-CC-PVTZ
  Basis Set: (AUG-CC-PVTZ AUX)
    Blend: DEF2-UNIVERSAL-JKFIT

    Orbital Energies [Eh]
    ---------------------

    Doubly Occupied:

       1A   -133.924820     2A   -133.924820     3A    -14.879968
       4A    -14.879966     5A    -11.910209     6A    -11.910209
       7A    -11.909972     8A    -11.909972     9A    -11.909971
      10A    -11.909971    11A     -2.137251    12A     -2.132225
      13A     -1.361529    14A     -1.341270    15A     -1.341270
      16A     -1.336811    17A     -1.336811    18A     -1.329225

  @DF-RHF Final Energy: -1197.86382872028889

   => Energetics <=

    Nuclear Repulsion Energy =             62.9225866442259587
    One-Electron Energy =               -1758.8002907731431605
    Two-Electron Energy =                 498.0138754086283939
    Total Energy =                      -1197.8638287202888932
 Dipole X            :       -103.2697533          109.0069618            5.7372085
 Dipole Y            :         -0.0000000            0.0000000           -0.0000000
 Dipole Z            :          0.0000000            0.0000000            0.0000000
 Magnitude           :                                                    5.7372085
  Basis Set: (AUG-CC-PVTZ AUX)
    Blend: DEF2-QZVPP-RI
	 Reference Energy          =   -1197.8638287202888932 [Eh]
	 Singles Energy            =      -0.0000000000000000 [Eh]
	 Same-Spin Energy          =      -0.0571699665072456 [Eh]
	 Opposite-Spin Energy      =      -0.1342215562440423 [Eh]
	 Correlation Energy        =      -0.1913915227512879 [Eh]
	 Total Energy              =   -1198.0552202430401394 [Eh]

	 ================> DF-SCS-MP2 Energies <==================
	-----------------------------------------------------------
	 SCS Same-Spin Scale       =       0.3333333333333333 [-]
	 SCS Opposite-Spin Scale   =       1.2000000000000000 [-]
	 SCS Same-Spin Energy      =      -0.0190566555024152 [Eh]
	 SCS Opposite-Spin Energy  =      -0.1610658674928508 [Eh]
	 SCS Correlation Energy    =      -0.1801225229952660 [Eh]
	 SCS Total Energy          =   -1198.0439512432842548 [Eh]
	-----------------------------------------------------------

*** Psi4 exiting successfully. Buy a developer a beer!
