                               Psi4 1.9 release

  ==> Input File <==

--------------------------------------------------------------------------
MEMORY 60 GB

molecule dimer {
1 1
K      0.000000     0.000000     0.000000
--
1 1
K      5.520000     0.000000     0.000000

units ang
no_reorient
no_com
symmetry c1
}

set {
basis        aug-cc-pVTZ
scf_type     df
}

energy("mp2", bsse_type="cp")
--------------------------------------------------------------------------

                               Psi4 1.9 release
    Molecular point group: c1
  Charge       = 1
  Multiplicity = 1
  Basis Set: AUG-CC-PVTZ
    Blend: AUG-CC-PVTZ
  Basis Set: (AUG-CC-PVTZ AUX)
    Blend: DEF2-UNIVERSAL-JKFIT
  @DF-RHF Final Energy:  -599.01750648512530
    Total Energy =                       -599.0175064851254092
 Dipole X            :       -187.7632454          198.1944760           10.4312306
 Dipole Y            :          0.0000000            0.0000000            0.0000000
 Dipole Z            :         -0.0000000            0.0000000           -0.0000000
 Magnitude           :                                                   10.4312306
  Basis Set: (AUG-CC-PVTZ AUX)
    Blend: DEF2-QZVPP-RI
	 Reference Energy          =    -599.0175064851252955 [Eh]
	 Singles Energy            =      -0.0000000000000000 [Eh]
	 Same-Spin Energy          =      -0.0260534346475699 [Eh]
	 Opposite-Spin Energy      =      -0.0599554550691062 [Eh]
	 Correlation Energy        =      -0.0860088897166761 [Eh]
	 Total Energy              =    -599.1035153748420043 [Eh]
	 SCS Total Energy          =    -599.0981375094240775 [Eh]
                               Psi4 1.9 release
    Molecular point group: c1
  Multiplicity = 1
  Basis Set: AUG-CC-PVTZ
    Blend: AUG-CC-PVTZ
  Basis Set: (AUG-CC-PVTZ AUX)
    Blend: DEF2-UNIVERSAL-JKFIT
  @DF-RHF Final Energy:  -599.01750648511222
    Total Energy =                       -599.0175064851122215
  Basis Set: (AUG-CC-PVTZ AUX)
	 Singles Energy            =      -0.0000000000000000 [Eh]
	 Same-Spin Energy          =      -0.0260534346478585 [Eh]
	 Opposite-Spin Energy      =      -0.0599554550694390 [Eh]
	 Correlation Energy        =      -0.0860088897172975 [Eh]
	 Total Energy              =    -599.1035153748294988 [Eh]
	 SCS Total Energy          =    -599.0981375094114583 [Eh]
                               Psi4 1.9 release
    Molecular point group: c1

    Geometry (in Bohr), charge = 2, multiplicity = 1:

       Center              X                  Y                   Z               Mass
    ------------   -----------------  -----------------  -----------------  -----------------
         K            0.000000000000     0.000000000000     0.000000000000    38.963706486400
         K           10.431288212527     0.000000000000     0.000000000000    38.963706486400

  Charge       = 2
  Multiplicity = 1
  Basis Set: AUG-CC-PVTZ
    Blend: AUG-CC-PVTZ
  Basis Set: (AUG-CC-PVTZ AUX)
    Blend: DEF2-UNIVERSAL-JKFIT

    Orbital Energies [Eh]
    ---------------------

    Doubly Occupied:

       1A   -133.849596     2A   -133.849596     3A    -14.804980
       4A    -14.804980     5A    -11.835072     6A    -11.835072
       7A    -11.835030     8A    -11.835030     9A    -11.835030
      10A    -11.835030    11A     -2.059989    12A     -2.059987
      13A     -1.267343    14A     -1.267274    15A     -1.266165
      16A     -1.266165    17A     -1.266160    18A     -1.266160

  @DF-RHF Final Energy: -1197.93956867399675

   => Energetics <=

    Nuclear Repulsion Energy =             34.6074226543242816
    One-Electron Energy =               -1705.0166628792910615
    Two-Electron Energy =                 472.4696715509700198
    Total Energy =                      -1197.9395686739967459
 Dipole X            :       -187.7631878          198.1944760           10.4312882
 Dipole Y            :         -0.0000000            0.0000000           -0.0000000
 Dipole Z            :         -0.0000000            0.0000000           -0.0000000
 Magnitude           :                                                   10.4312882
  Basis Set: (AUG-CC-PVTZ AUX)
    Blend: DEF2-QZVPP-RI
	 Reference Energy          =   -1197.9395686739967459 [Eh]
	 Singles Energy            =      -0.0000000000000000 [Eh]
	 Same-Spin Energy          =      -0.0521250362151756 [Eh]
	 Opposite-Spin Energy      =      -0.1199467556326136 [Eh]
	 Correlation Energy        =      -0.1720717918477891 [Eh]
	 Total Energy              =   -1198.1116404658446299 [Eh]

	 ================> DF-SCS-MP2 Energies <==================
	-----------------------------------------------------------
	 SCS Same-Spin Scale       =       0.3333333333333333 [-]
	 SCS Opposite-Spin Scale   =       1.2000000000000000 [-]
	 SCS Same-Spin Energy      =      -0.0173750120717252 [Eh]
	 SCS Opposite-Spin Energy  =      -0.1439361067591363 [Eh]
	 SCS Correlation Energy    =      -0.1613111188308615 [Eh]
	 SCS Total Energy          =   -1198.1008797928275271 [Eh]
	-----------------------------------------------------------

*** Psi4 exiting successfully. Buy a developer a beer!
