                               Psi4 1.9 release

  ==> Input File <==

--------------------------------------------------------------------------
MEMORY 60 GB

molecule dimer {
-1 1
F      0.000000     0.000000     0.000000
--
-1 1
F      3.724000     0.000000     0.000000

units ang
no_reorient
no_com
symmetry c1
}

set {
basis        aug-cc-pVTZ
scf_type     df
}

energy("mp2", bsse_type="cp")
--------------------------------------------------------------------------

                               Psi4 1.9 release
    Molecular point group: c1
  Charge       = -1
  Multiplicity = 1
  Basis Set: AUG-CC-PVTZ
    Blend: AUG-CC-PVTZ
  Basis Set: (AUG-CC-PVTZ AUX)
    Blend: AUG-CC-PVTZ-JKFIT
  @DF-RHF Final Energy:   -99.45080974111235
    Total Energy =                        -99.4508097411123515
 Dipole X            :        -70.3733226           63.3360608           -7.0372618
 Dipole Y            :          0.0000000            0.0000000            0.0000000
 Dipole Z            :         -0.0000000            0.0000000           -0.0000000
 Magnitude           :                                                    7.0372618
  Basis Set: (AUG-CC-PVTZ AUX)
    Blend: AUG-CC-PVTZ-RI
	 Reference Energy          =     -99.4508097411123515 [Eh]
	 Singles Energy            =      -0.0000000000000000 [Eh]
	 Same-Spin Energy          =      -0.0815614836310998 [Eh]
	 Opposite-Spin Energy      =      -0.2261958976630858 [Eh]
	 Correlation Energy        =      -0.3077573812941856 [Eh]
	 Total Energy              =     -99.7585671224065322 [Eh]
	 SCS Total Energy          =     -99.7494319795184197 [Eh]
                               Psi4 1.9 release
    Molecular point group: c1
  Multiplicity = 1
  Basis Set: AUG-CC-PVTZ
    Blend: AUG-CC-PVTZ
  Basis Set: (AUG-CC-PVTZ AUX)
    Blend: AUG-CC-PVTZ-JKFIT
  @DF-RHF Final Energy:   -99.45080974111269
    Total Energy =                        -99.4508097411126926
  Basis Set: (AUG-CC-PVTZ AUX)
	 Singles Energy            =      -0.0000000000000000 [Eh]
	 Same-Spin Energy          =      -0.0815614836310977 [Eh]
	 Opposite-Spin Energy      =      -0.2261958976630799 [Eh]
	 Correlation Energy        =      -0.3077573812941776 [Eh]
	 Total Energy              =     -99.7585671224068733 [Eh]
	 SCS Total Energy          =     -99.7494319795187607 [Eh]
                               Psi4 1.9 release
    Molecular point group: c1

    Geometry (in Bohr), charge = -2, multiplicity = 1:

       Center              X                  Y                   Z               Mass
    ------------   -----------------  -----------------  -----------------  -----------------
         F            0.000000000000     0.000000000000     0.000000000000    18.998403162730
         F            7.037340091205     0.000000000000     0.000000000000    18.998403162730

  Charge       = -2
  Multiplicity = 1
  Basis Set: AUG-CC-PVTZ
    Blend: AUG-CC-PVTZ
  Basis Set: (AUG-CC-PVTZ AUX)
    Blend: AUG-CC-PVTZ-JKFIT

    Orbital Energies [Eh]
    ---------------------

    Doubly Occupied:

       1A    -25.697704     2A    -25.697703     3A     -0.939363
       4A     -0.938979     5A     -0.047234     6A     -0.044903
       7A     -0.044903     8A     -0.043351     9A     -0.043351
      10A     -0.039533

  @DF-RHF Final Energy:  -198.76294133698116

   => Energetics <=

    Nuclear Repulsion Energy =             11.5100306295032215
    One-Electron Energy =                -313.4718968910707417
    Two-Electron Energy =                 103.1989249245863789
    Total Energy =                       -198.7629413369811573
 Dipole X            :        -70.3734009           63.3360608           -7.0373401
 Dipole Y            :          0.0000000            0.0000000            0.0000000
 Dipole Z            :         -0.0000000            0.0000000           -0.0000000
 Magnitude           :                                                    7.0373401
  Basis Set: (AUG-CC-PVTZ AUX)
    Blend: AUG-CC-PVTZ-RI
	 Reference Energy          =    -198.7629413369811573 [Eh]
	 Singles Energy            =      -0.0000000000000000 [Eh]
	 Same-Spin Energy          =      -0.1636005172273151 [Eh]
	 Opposite-Spin Energy      =      -0.4532983278190230 [Eh]
	 Correlation Energy        =      -0.6168988450463381 [Eh]
	 Total Energy              =    -199.3798401820274933 [Eh]

	 ================> DF-SCS-MP2 Energies <==================
	-----------------------------------------------------------
	 SCS Same-Spin Scale       =       0.3333333333333333 [-]
	 SCS Opposite-Spin Scale   =       1.2000000000000000 [-]
	 SCS Same-Spin Energy      =      -0.0545335057424383 [Eh]
	 SCS Opposite-Spin Energy  =      -0.5439579933828276 [Eh]
	 SCS Correlation Energy    =      -0.5984914991252659 [Eh]
	 SCS Total Energy          =    -199.3614328361064167 [Eh]
	-----------------------------------------------------------

*** Psi4 exiting successfully. Buy a developer a beer!
