                               Psi4 1.9 release

  ==> Input File <==

--------------------------------------------------------------------------
MEMORY 60 GB

molecule dimer {
-1 1
F      0.000000     0.000000     0.000000
--
-1 1
F      3.458000     0.000000     0.000000

units ang
no_reorient
no_com
symmetry c1
}

set {
basis        aug-cc-pVTZ
scf_type     df
}

energy("mp2", bsse_type="cp")
--------------------------------------------------------------------------

                               Psi4 1.9 release
    Molecular point group: c1
  Charge       = -1
  Multiplicity = 1
  Basis Set: AUG-CC-PVTZ
    Blend: AUG-CC-PVTZ
  Basis Set: (AUG-CC-PVTZ AUX)
    Blend: AUG-CC-PVTZ-JKFIT
  @DF-RHF Final Energy:   -99.45081337162404
    Total Energy =                        -99.4508133716240366
 Dipole X            :        -65.3463600           58.8120565           -6.5343035
 Dipole Y            :         -0.0000000            0.0000000           -0.0000000
 Dipole Z            :          0.0000000            0.0000000            0.0000000
 Magnitude           :                                                    6.5343035
  Basis Set: (AUG-CC-PVTZ AUX)
    Blend: AUG-CC-PVTZ-RI
	 Reference Energy          =     -99.4508133716240366 [Eh]
	 Singles Energy            =      -0.0000000000000000 [Eh]
	 Same-Spin Energy          =      -0.0815625587599610 [Eh]
	 Opposite-Spin Energy      =      -0.2262114287468913 [Eh]
	 Correlation Energy        =      -0.3077739875068523 [Eh]
	 Total Energy              =     -99.7585873591308854 [Eh]
	 SCS Total Energy          =     -99.7494546057069584 [Eh]
                               Psi4 1.9 release
    Molecular point group: c1
  Multiplicity = 1
  Basis Set: AUG-CC-PVTZ
    Blend: AUG-CC-PVTZ
  Basis Set: (AUG-CC-PVTZ AUX)
    Blend: AUG-CC-PVTZ-JKFIT
  @DF-RHF Final Energy:   -99.45081337162480
    Total Energy =                        -99.4508133716248039
  Basis Set: (AUG-CC-PVTZ AUX)
	 Singles Energy            =      -0.0000000000000000 [Eh]
	 Same-Spin Energy          =      -0.0815625587599592 [Eh]
	 Opposite-Spin Energy      =      -0.2262114287468879 [Eh]
	 Correlation Energy        =      -0.3077739875068470 [Eh]
	 Total Energy              =     -99.7585873591316528 [Eh]
	 SCS Total Energy          =     -99.7494546057077258 [Eh]
                               Psi4 1.9 release
    Molecular point group: c1

    Geometry (in Bohr), charge = -2, multiplicity = 1:

       Center              X                  Y                   Z               Mass
    ------------   -----------------  -----------------  -----------------  -----------------
         F            0.000000000000     0.000000000000     0.000000000000    18.998403162730
         F            6.534672941833     0.000000000000     0.000000000000    18.998403162730

  Charge       = -2
  Multiplicity = 1
  Basis Set: AUG-CC-PVTZ
    Blend: AUG-CC-PVTZ
  Basis Set: (AUG-CC-PVTZ AUX)
    Blend: AUG-CC-PVTZ-JKFIT

    Orbital Energies [Eh]
    ---------------------

    Doubly Occupied:

       1A    -25.688948     2A    -25.688946     3A     -0.930531
       4A     -0.929757     5A     -0.039852     6A     -0.036336
       7A     -0.036336     8A     -0.033883     9A     -0.033883
      10A     -0.028302

  @DF-RHF Final Energy:  -198.75314872086167

   => Energetics <=

    Nuclear Repulsion Energy =             12.3954176010034693
    One-Electron Energy =                -315.4035805390358291
    Two-Electron Energy =                 104.2550142171706682
    Total Energy =                       -198.7531487208616738
 Dipole X            :        -65.3467294           58.8120565           -6.5346729
 Dipole Y            :          0.0000000            0.0000000            0.0000000
 Dipole Z            :          0.0000000            0.0000000            0.0000000
 Magnitude           :                                                    6.5346729
  Basis Set: (AUG-CC-PVTZ AUX)
    Blend: AUG-CC-PVTZ-RI
	 Reference Energy          =    -198.7531487208616738 [Eh]
	 Singles Energy            =      -0.0000000000000000 [Eh]
	 Same-Spin Energy          =      -0.1638148465767686 [Eh]
	 Opposite-Spin Energy      =      -0.4536955258902790 [Eh]
	 Correlation Energy        =      -0.6175103724670477 [Eh]
	 Total Energy              =    -199.3706590933287259 [Eh]

	 ================> DF-SCS-MP2 Energies <==================
	-----------------------------------------------------------
	 SCS Same-Spin Scale       =       0.3333333333333333 [-]
	 SCS Opposite-Spin Scale   =       1.2000000000000000 [-]
	 SCS Same-Spin Energy      =      -0.0546049488589229 [Eh]
	 SCS Opposite-Spin Energy  =      -0.5444346310683348 [Eh]
	 SCS Correlation Energy    =      -0.5990395799272576 [Eh]
	 SCS Total Energy          =    -199.3521883007889244 [Eh]
	-----------------------------------------------------------

*** Psi4 exiting successfully. Buy a developer a beer!
