                               Psi4 1.9 release

  ==> Input File <==

--------------------------------------------------------------------------
MEMORY 60 GB

molecule dimer {
-1 1
F      0.000000     0.000000     0.000000
--
-1 1
F      2.660000     0.000000     0.000000

units ang
no_reorient
no_com
symmetry c1
}

set {
basis        aug-cc-pVTZ
scf_type     df
}

energy("mp2", bsse_type="cp")
--------------------------------------------------------------------------

                               Psi4 1.9 release
    Molecular point group: c1
  Charge       = -1
  Multiplicity = 1
  Basis Set: AUG-CC-PVTZ
    Blend: AUG-CC-PVTZ
  Basis Set: (AUG-CC-PVTZ AUX)
    Blend: AUG-CC-PVTZ-JKFIT
  @DF-RHF Final Energy:   -99.45082343412186
    Total Energy =                        -99.4508234341218582
 Dipole X            :        -50.2671394           45.2400434           -5.0270959
 Dipole Y            :         -0.0000000            0.0000000           -0.0000000
 Dipole Z            :         -0.0000000            0.0000000           -0.0000000
 Magnitude           :                                                    5.0270959
  Basis Set: (AUG-CC-PVTZ AUX)
    Blend: AUG-CC-PVTZ-RI
	 Reference Energy          =     -99.4508234341218582 [Eh]
	 Singles Energy            =      -0.0000000000000000 [Eh]
	 Same-Spin Energy          =      -0.0815812055651022 [Eh]
	 Opposite-Spin Energy      =      -0.2263201799272733 [Eh]
	 Correlation Energy        =      -0.3079013854923755 [Eh]
	 Total Energy              =     -99.7587248196142298 [Eh]
	 SCS Total Energy          =     -99.7496013852229595 [Eh]
                               Psi4 1.9 release
    Molecular point group: c1
  Multiplicity = 1
  Basis Set: AUG-CC-PVTZ
    Blend: AUG-CC-PVTZ
  Basis Set: (AUG-CC-PVTZ AUX)
    Blend: AUG-CC-PVTZ-JKFIT
  @DF-RHF Final Energy:   -99.45082343412366
    Total Energy =                        -99.4508234341236630
  Basis Set: (AUG-CC-PVTZ AUX)
	 Singles Energy            =      -0.0000000000000000 [Eh]
	 Same-Spin Energy          =      -0.0815812055650934 [Eh]
	 Opposite-Spin Energy      =      -0.2263201799272554 [Eh]
	 Correlation Energy        =      -0.3079013854923489 [Eh]
	 Total Energy              =     -99.7587248196160061 [Eh]
	 SCS Total Energy          =     -99.7496013852247358 [Eh]
                               Psi4 1.9 release
    Molecular point group: c1

    Geometry (in Bohr), charge = -2, multiplicity = 1:

       Center              X                  Y                   Z               Mass
    ------------   -----------------  -----------------  -----------------  -----------------
         F            0.000000000000     0.000000000000     0.000000000000    18.998403162730
         F            5.026671493718     0.000000000000     0.000000000000    18.998403162730

  Charge       = -2
  Multiplicity = 1
  Basis Set: AUG-CC-PVTZ
    Blend: AUG-CC-PVTZ
  Basis Set: (AUG-CC-PVTZ AUX)
    Blend: AUG-CC-PVTZ-JKFIT

    Orbital Energies [Eh]
    ---------------------

    Doubly Occupied:

       1A    -25.656293     2A    -25.656286     3A     -0.900066
       4A     -0.893422     5A     -0.019803     6A     -0.006771
       7A     -0.006771     8A      0.003678     9A      0.003678
      10A      0.021738

  @DF-RHF Final Energy:  -198.71300655935656

   => Energetics <=

    Nuclear Repulsion Energy =             16.1140428813045098
    One-Electron Energy =                -323.4334657408709859
    Two-Electron Energy =                 108.6064163002099292
    Total Energy =                       -198.7130065593565575
 Dipole X            :        -50.2667149           45.2400434           -5.0266715
 Dipole Y            :          0.0000000            0.0000000            0.0000000
 Dipole Z            :         -0.0000000            0.0000000           -0.0000000
 Magnitude           :                                                    5.0266715
  Basis Set: (AUG-CC-PVTZ AUX)
    Blend: AUG-CC-PVTZ-RI
	 Reference Energy          =    -198.7130065593565575 [Eh]
	 Singles Energy            =      -0.0000000000000000 [Eh]
	 Same-Spin Energy          =      -0.1653369408161615 [Eh]
	 Opposite-Spin Energy      =      -0.4562515545717525 [Eh]
	 Correlation Energy        =      -0.6215884953879141 [Eh]
	 Total Energy              =    -199.3345950547444829 [Eh]

	 ================> DF-SCS-MP2 Energies <==================
	-----------------------------------------------------------
	 SCS Same-Spin Scale       =       0.3333333333333333 [-]
	 SCS Opposite-Spin Scale   =       1.2000000000000000 [-]
	 SCS Same-Spin Energy      =      -0.0551123136053872 [Eh]
	 SCS Opposite-Spin Energy  =      -0.5475018654861030 [Eh]
	 SCS Correlation Energy    =      -0.6026141790914902 [Eh]
	 SCS Total Energy          =    -199.3156207384480467 [Eh]
	-----------------------------------------------------------

*** Psi4 exiting successfully. Buy a developer a beer!
