                               Psi4 1.9 release

  ==> Input File <==

--------------------------------------------------------------------------
MEMORY 60 GB

molecule dimer {
-1 1
F      0.000000     0.000000     0.000000
--
-1 1
F      3.990000     0.000000     0.000000

units ang
no_reorient
no_com
symmetry c1
}

set {
basis        aug-cc-pVTZ
scf_type     df
}

energy("mp2", bsse_type="cp")
--------------------------------------------------------------------------

                               Psi4 1.9 release
    Molecular point group: c1
  Charge       = -1
  Multiplicity = 1
  Basis Set: AUG-CC-PVTZ
    Blend: AUG-CC-PVTZ
  Basis Set: (AUG-CC-PVTZ AUX)
    Blend: AUG-CC-PVTZ-JKFIT
  @DF-RHF Final Energy:   -99.45080899250864
    Total Energy =                        -99.4508089925086409
 Dipole X            :        -75.4002043           67.8600652           -7.5401391
 Dipole Y            :          0.0000000            0.0000000            0.0000000
 Dipole Z            :         -0.0000000            0.0000000           -0.0000000
 Magnitude           :                                                    7.5401391
  Basis Set: (AUG-CC-PVTZ AUX)
    Blend: AUG-CC-PVTZ-RI
	 Reference Energy          =     -99.4508089925086409 [Eh]
	 Singles Energy            =      -0.0000000000000000 [Eh]
	 Same-Spin Energy          =      -0.0815600261540141 [Eh]
	 Opposite-Spin Energy      =      -0.2261814419212213 [Eh]
	 Correlation Energy        =      -0.3077414680752354 [Eh]
	 Total Energy              =     -99.7585504605838764 [Eh]
	 SCS Total Energy          =     -99.7494133981987829 [Eh]
                               Psi4 1.9 release
    Molecular point group: c1
  Multiplicity = 1
  Basis Set: AUG-CC-PVTZ
    Blend: AUG-CC-PVTZ
  Basis Set: (AUG-CC-PVTZ AUX)
    Blend: AUG-CC-PVTZ-JKFIT
  @DF-RHF Final Energy:   -99.45080899250917
    Total Energy =                        -99.4508089925091525
  Basis Set: (AUG-CC-PVTZ AUX)
	 Singles Energy            =      -0.0000000000000000 [Eh]
	 Same-Spin Energy          =      -0.0815600261540170 [Eh]
	 Opposite-Spin Energy      =      -0.2261814419212269 [Eh]
	 Correlation Energy        =      -0.3077414680752438 [Eh]
	 Total Energy              =     -99.7585504605844164 [Eh]
	 SCS Total Energy          =     -99.7494133981993087 [Eh]
                               Psi4 1.9 release
    Molecular point group: c1

    Geometry (in Bohr), charge = -2, multiplicity = 1:

       Center              X                  Y                   Z               Mass
    ------------   -----------------  -----------------  -----------------  -----------------
         F            0.000000000000     0.000000000000     0.000000000000    18.998403162730
         F            7.540007240577     0.000000000000     0.000000000000    18.998403162730

  Charge       = -2
  Multiplicity = 1
  Basis Set: AUG-CC-PVTZ
    Blend: AUG-CC-PVTZ
  Basis Set: (AUG-CC-PVTZ AUX)
    Blend: AUG-CC-PVTZ-JKFIT

    Orbital Energies [Eh]
    ---------------------

    Doubly Occupied:

       1A    -25.705609     2A    -25.705608     3A     -0.947387
       4A     -0.947195     5A     -0.054298     6A     -0.052730
       7A     -0.052730     8A     -0.051738     9A     -0.051738
      10A     -0.049133

  @DF-RHF Final Energy:  -198.77157905964901

   => Energetics <=

    Nuclear Repulsion Energy =             10.7426952542030065
    One-Electron Energy =                -311.7922162389118625
    Two-Electron Energy =                 102.2779419250598636
    Total Energy =                       -198.7715790596490137
 Dipole X            :        -75.4000724           67.8600652           -7.5400072
 Dipole Y            :         -0.0000000            0.0000000           -0.0000000
 Dipole Z            :          0.0000000            0.0000000            0.0000000
 Magnitude           :                                                    7.5400072
  Basis Set: (AUG-CC-PVTZ AUX)
    Blend: AUG-CC-PVTZ-RI
	 Reference Energy          =    -198.7715790596490137 [Eh]
	 Singles Energy            =      -0.0000000000000000 [Eh]
	 Same-Spin Energy          =      -0.1634531568772836 [Eh]
	 Opposite-Spin Energy      =      -0.4530118786005103 [Eh]
	 Correlation Energy        =      -0.6164650354777940 [Eh]
	 Total Energy              =    -199.3880440951268156 [Eh]

	 ================> DF-SCS-MP2 Energies <==================
	-----------------------------------------------------------
	 SCS Same-Spin Scale       =       0.3333333333333333 [-]
	 SCS Opposite-Spin Scale   =       1.2000000000000000 [-]
	 SCS Same-Spin Energy      =      -0.0544843856257612 [Eh]
	 SCS Opposite-Spin Energy  =      -0.5436142543206124 [Eh]
	 SCS Correlation Energy    =      -0.5980986399463736 [Eh]
	 SCS Total Energy          =    -199.3696776995953996 [Eh]
	-----------------------------------------------------------

*** Psi4 exiting successfully. Buy a developer a beer!
