                               Psi4 1.9 release

  ==> Input File <==

--------------------------------------------------------------------------
MEMORY 60 GB

molecule dimer {
-1 1
F      0.000000     0.000000     0.000000
--
-1 1
F      2.926000     0.000000     0.000000

units ang
no_reorient
no_com
symmetry c1
}

set {
basis        aug-cc-pVTZ
scf_type     df
}

energy("mp2", bsse_type="cp")
--------------------------------------------------------------------------

                               Psi4 1.9 release
    Molecular point group: c1
  Charge       = -1
  Multiplicity = 1
  Basis Set: AUG-CC-PVTZ
    Blend: AUG-CC-PVTZ
  Basis Set: (AUG-CC-PVTZ AUX)
    Blend: AUG-CC-PVTZ-JKFIT
  @DF-RHF Final Energy:   -99.45081633892352
    Total Energy =                        -99.4508163389235165
 Dipole X            :        -55.2932492           49.7640478           -5.5292014
 Dipole Y            :          0.0000000            0.0000000            0.0000000
 Dipole Z            :         -0.0000000            0.0000000           -0.0000000
 Magnitude           :                                                    5.5292014
  Basis Set: (AUG-CC-PVTZ AUX)
    Blend: AUG-CC-PVTZ-RI
	 Reference Energy          =     -99.4508163389235165 [Eh]
	 Singles Energy            =      -0.0000000000000000 [Eh]
	 Same-Spin Energy          =      -0.0815707377469675 [Eh]
	 Opposite-Spin Energy      =      -0.2262629203775384 [Eh]
	 Correlation Energy        =      -0.3078336581245059 [Eh]
	 Total Energy              =     -99.7586499970480247 [Eh]
	 SCS Total Energy          =     -99.7495220892922134 [Eh]
                               Psi4 1.9 release
    Molecular point group: c1
  Multiplicity = 1
  Basis Set: AUG-CC-PVTZ
    Blend: AUG-CC-PVTZ
  Basis Set: (AUG-CC-PVTZ AUX)
    Blend: AUG-CC-PVTZ-JKFIT
  @DF-RHF Final Energy:   -99.45081633892198
    Total Energy =                        -99.4508163389219675
  Basis Set: (AUG-CC-PVTZ AUX)
	 Singles Energy            =      -0.0000000000000000 [Eh]
	 Same-Spin Energy          =      -0.0815707377469722 [Eh]
	 Opposite-Spin Energy      =      -0.2262629203775482 [Eh]
	 Correlation Energy        =      -0.3078336581245204 [Eh]
	 Total Energy              =     -99.7586499970465042 [Eh]
	 SCS Total Energy          =     -99.7495220892906929 [Eh]
                               Psi4 1.9 release
    Molecular point group: c1

    Geometry (in Bohr), charge = -2, multiplicity = 1:

       Center              X                  Y                   Z               Mass
    ------------   -----------------  -----------------  -----------------  -----------------
         F            0.000000000000     0.000000000000     0.000000000000    18.998403162730
         F            5.529338643090     0.000000000000     0.000000000000    18.998403162730

  Charge       = -2
  Multiplicity = 1
  Basis Set: AUG-CC-PVTZ
    Blend: AUG-CC-PVTZ
  Basis Set: (AUG-CC-PVTZ AUX)
    Blend: AUG-CC-PVTZ-JKFIT

    Orbital Energies [Eh]
    ---------------------

    Doubly Occupied:

       1A    -25.668437     2A    -25.668434     3A     -0.910610
       4A     -0.907397     5A     -0.025431     6A     -0.017101
       7A     -0.017101     8A     -0.010755     9A     -0.010755
      10A      0.001314

  @DF-RHF Final Energy:  -198.72884586569148

   => Energetics <=

    Nuclear Repulsion Energy =             14.6491298920950097
    One-Electron Energy =                -320.2865377308824577
    Two-Electron Energy =                 106.9085619730959706
    Total Energy =                       -198.7288458656914827
 Dipole X            :        -55.2933864           49.7640478           -5.5293386
 Dipole Y            :         -0.0000000            0.0000000           -0.0000000
 Dipole Z            :         -0.0000000            0.0000000           -0.0000000
 Magnitude           :                                                    5.5293386
  Basis Set: (AUG-CC-PVTZ AUX)
    Blend: AUG-CC-PVTZ-RI
	 Reference Energy          =    -198.7288458656914827 [Eh]
	 Singles Energy            =      -0.0000000000000000 [Eh]
	 Same-Spin Energy          =      -0.1646113879539357 [Eh]
	 Opposite-Spin Energy      =      -0.4550632486204290 [Eh]
	 Correlation Energy        =      -0.6196746365743646 [Eh]
	 Total Energy              =    -199.3485205022658420 [Eh]

	 ================> DF-SCS-MP2 Energies <==================
	-----------------------------------------------------------
	 SCS Same-Spin Scale       =       0.3333333333333333 [-]
	 SCS Opposite-Spin Scale   =       1.2000000000000000 [-]
	 SCS Same-Spin Energy      =      -0.0548704626513119 [Eh]
	 SCS Opposite-Spin Energy  =      -0.5460758983445148 [Eh]
	 SCS Correlation Energy    =      -0.6009463609958267 [Eh]
	 SCS Total Energy          =    -199.3297922266873172 [Eh]
	-----------------------------------------------------------

*** Psi4 exiting successfully. Buy a developer a beer!
