                               Psi4 1.9 release

  ==> Input File <==

--------------------------------------------------------------------------
MEMORY 60 GB

molecule dimer {
-1 1
F      0.000000     0.000000     0.000000
--
-1 1
F      3.192000     0.000000     0.000000

units ang
no_reorient
no_com
symmetry c1
}

set {
basis        aug-cc-pVTZ
scf_type     df
}

energy("mp2", bsse_type="cp")
--------------------------------------------------------------------------

                               Psi4 1.9 release
    Molecular point group: c1
  Charge       = -1
  Multiplicity = 1
  Basis Set: AUG-CC-PVTZ
    Blend: AUG-CC-PVTZ
  Basis Set: (AUG-CC-PVTZ AUX)
    Blend: AUG-CC-PVTZ-JKFIT
  @DF-RHF Final Energy:   -99.45081702252290
    Total Energy =                        -99.4508170225228980
 Dipole X            :        -60.3195812           54.2880521           -6.0315291
 Dipole Y            :         -0.0000000            0.0000000           -0.0000000
 Dipole Z            :         -0.0000000            0.0000000           -0.0000000
 Magnitude           :                                                    6.0315291
  Basis Set: (AUG-CC-PVTZ AUX)
    Blend: AUG-CC-PVTZ-RI
	 Reference Energy          =     -99.4508170225228980 [Eh]
	 Singles Energy            =      -0.0000000000000000 [Eh]
	 Same-Spin Energy          =      -0.0815648579533197 [Eh]
	 Opposite-Spin Energy      =      -0.2262312227205520 [Eh]
	 Correlation Energy        =      -0.3077960806738717 [Eh]
	 Total Energy              =     -99.7586131031967653 [Eh]
	 SCS Total Energy          =     -99.7494827757719946 [Eh]
                               Psi4 1.9 release
    Molecular point group: c1
  Multiplicity = 1
  Basis Set: AUG-CC-PVTZ
    Blend: AUG-CC-PVTZ
  Basis Set: (AUG-CC-PVTZ AUX)
    Blend: AUG-CC-PVTZ-JKFIT
  @DF-RHF Final Energy:   -99.45081702252222
    Total Energy =                        -99.4508170225222301
  Basis Set: (AUG-CC-PVTZ AUX)
	 Singles Energy            =      -0.0000000000000000 [Eh]
	 Same-Spin Energy          =      -0.0815648579533260 [Eh]
	 Opposite-Spin Energy      =      -0.2262312227205635 [Eh]
	 Correlation Energy        =      -0.3077960806738895 [Eh]
	 Total Energy              =     -99.7586131031961116 [Eh]
	 SCS Total Energy          =     -99.7494827757713409 [Eh]
                               Psi4 1.9 release
    Molecular point group: c1

    Geometry (in Bohr), charge = -2, multiplicity = 1:

       Center              X                  Y                   Z               Mass
    ------------   -----------------  -----------------  -----------------  -----------------
         F            0.000000000000     0.000000000000     0.000000000000    18.998403162730
         F            6.032005792461     0.000000000000     0.000000000000    18.998403162730

  Charge       = -2
  Multiplicity = 1
  Basis Set: AUG-CC-PVTZ
    Blend: AUG-CC-PVTZ
  Basis Set: (AUG-CC-PVTZ AUX)
    Blend: AUG-CC-PVTZ-JKFIT

    Orbital Energies [Eh]
    ---------------------

    Doubly Occupied:

       1A    -25.679242     2A    -25.679240     3A     -0.920903
       4A     -0.919333     5A     -0.032411     6A     -0.027040
       7A     -0.027040     8A     -0.023121     9A     -0.023121
      10A     -0.014944

  @DF-RHF Final Energy:  -198.74193102665919

   => Energetics <=

    Nuclear Repulsion Energy =             13.4283690677537582
    One-Electron Energy =                -317.6478112750392597
    Two-Electron Energy =                 105.4775111806263368
    Total Energy =                       -198.7419310266591879
 Dipole X            :        -60.3200579           54.2880521           -6.0320058
 Dipole Y            :          0.0000000            0.0000000            0.0000000
 Dipole Z            :          0.0000000            0.0000000            0.0000000
 Magnitude           :                                                    6.0320058
  Basis Set: (AUG-CC-PVTZ AUX)
    Blend: AUG-CC-PVTZ-RI
	 Reference Energy          =    -198.7419310266591879 [Eh]
	 Singles Energy            =      -0.0000000000000000 [Eh]
	 Same-Spin Energy          =      -0.1641332242224629 [Eh]
	 Opposite-Spin Energy      =      -0.4542565415206178 [Eh]
	 Correlation Energy        =      -0.6183897657430807 [Eh]
	 Total Energy              =    -199.3603207924022627 [Eh]

	 ================> DF-SCS-MP2 Energies <==================
	-----------------------------------------------------------
	 SCS Same-Spin Scale       =       0.3333333333333333 [-]
	 SCS Opposite-Spin Scale   =       1.2000000000000000 [-]
	 SCS Same-Spin Energy      =      -0.0547110747408210 [Eh]
	 SCS Opposite-Spin Energy  =      -0.5451078498247414 [Eh]
	 SCS Correlation Energy    =      -0.5998189245655623 [Eh]
	 SCS Total Energy          =    -199.3417499512247559 [Eh]
	-----------------------------------------------------------

*** Psi4 exiting successfully. Buy a developer a beer!
