                               Psi4 1.9 release

  ==> Input File <==

--------------------------------------------------------------------------
MEMORY 60 GB

molecule dimer {
-1 1
F      0.000000     0.000000     0.000000
--
-1 1
F      5.320000     0.000000     0.000000

units ang
no_reorient
no_com
symmetry c1
}

set {
basis        aug-cc-pVTZ
scf_type     df
}

energy("mp2", bsse_type="cp")
--------------------------------------------------------------------------

                               Psi4 1.9 release
    Molecular point group: c1
  Charge       = -1
  Multiplicity = 1
  Basis Set: AUG-CC-PVTZ
    Blend: AUG-CC-PVTZ
  Basis Set: (AUG-CC-PVTZ AUX)
    Blend: AUG-CC-PVTZ-JKFIT
  @DF-RHF Final Energy:   -99.45080651896436
    Total Energy =                        -99.4508065189643560
 Dipole X            :       -100.5332032           90.4800869          -10.0531163
 Dipole Y            :         -0.0000000            0.0000000           -0.0000000
 Dipole Z            :         -0.0000000            0.0000000           -0.0000000
 Magnitude           :                                                   10.0531163
  Basis Set: (AUG-CC-PVTZ AUX)
    Blend: AUG-CC-PVTZ-RI
	 Reference Energy          =     -99.4508065189643560 [Eh]
	 Singles Energy            =      -0.0000000000000000 [Eh]
	 Same-Spin Energy          =      -0.0815551326008453 [Eh]
	 Opposite-Spin Energy      =      -0.2261417059897169 [Eh]
	 Correlation Energy        =      -0.3076968385905622 [Eh]
	 Total Energy              =     -99.7585033575549147 [Eh]
	 SCS Total Energy          =     -99.7493616103522953 [Eh]
                               Psi4 1.9 release
    Molecular point group: c1
  Multiplicity = 1
  Basis Set: AUG-CC-PVTZ
    Blend: AUG-CC-PVTZ
  Basis Set: (AUG-CC-PVTZ AUX)
    Blend: AUG-CC-PVTZ-JKFIT
  @DF-RHF Final Energy:   -99.45080651896384
    Total Energy =                        -99.4508065189638444
  Basis Set: (AUG-CC-PVTZ AUX)
	 Singles Energy            =      -0.0000000000000000 [Eh]
	 Same-Spin Energy          =      -0.0815551326008458 [Eh]
	 Opposite-Spin Energy      =      -0.2261417059897179 [Eh]
	 Correlation Energy        =      -0.3076968385905637 [Eh]
	 Total Energy              =     -99.7585033575544031 [Eh]
	 SCS Total Energy          =     -99.7493616103517837 [Eh]
                               Psi4 1.9 release
    Molecular point group: c1

    Geometry (in Bohr), charge = -2, multiplicity = 1:

       Center              X                  Y                   Z               Mass
    ------------   -----------------  -----------------  -----------------  -----------------
         F            0.000000000000     0.000000000000     0.000000000000    18.998403162730
         F           10.053342987436     0.000000000000     0.000000000000    18.998403162730

  Charge       = -2
  Multiplicity = 1
  Basis Set: AUG-CC-PVTZ
    Blend: AUG-CC-PVTZ
  Basis Set: (AUG-CC-PVTZ AUX)
    Blend: AUG-CC-PVTZ-JKFIT

    Orbital Energies [Eh]
    ---------------------

    Doubly Occupied:

       1A    -25.735431     2A    -25.735431     3A     -0.977612
       4A     -0.977605     5A     -0.082869     6A     -0.082573
       7A     -0.082573     8A     -0.082455     9A     -0.082455
      10A     -0.082077

  @DF-RHF Final Energy:  -198.80288039795101

   => Energetics <=

    Nuclear Repulsion Energy =              8.0570214406522549
    One-Electron Energy =                -305.8776380076680539
    Two-Electron Energy =                  99.0177361690647899
    Total Energy =                       -198.8028803979510144
 Dipole X            :       -100.5334299           90.4800869          -10.0533430
 Dipole Y            :         -0.0000000            0.0000000           -0.0000000
 Dipole Z            :         -0.0000000            0.0000000           -0.0000000
 Magnitude           :                                                   10.0533430
  Basis Set: (AUG-CC-PVTZ AUX)
    Blend: AUG-CC-PVTZ-RI
	 Reference Energy          =    -198.8028803979510144 [Eh]
	 Singles Energy            =      -0.0000000000000000 [Eh]
	 Same-Spin Energy          =      -0.1631743515599484 [Eh]
	 Opposite-Spin Energy      =      -0.4524234672487901 [Eh]
	 Correlation Energy        =      -0.6155978188087385 [Eh]
	 Total Energy              =    -199.4184782167597518 [Eh]

	 ================> DF-SCS-MP2 Energies <==================
	-----------------------------------------------------------
	 SCS Same-Spin Scale       =       0.3333333333333333 [-]
	 SCS Opposite-Spin Scale   =       1.2000000000000000 [-]
	 SCS Same-Spin Energy      =      -0.0543914505199828 [Eh]
	 SCS Opposite-Spin Energy  =      -0.5429081606985481 [Eh]
	 SCS Correlation Energy    =      -0.5972996112185309 [Eh]
	 SCS Total Energy          =    -199.4001800091695316 [Eh]
	-----------------------------------------------------------

*** Psi4 exiting successfully. Buy a developer a beer!
