                               Psi4 1.9 release

  ==> Input File <==

--------------------------------------------------------------------------
MEMORY 60 GB

molecule dimer {
-1 1
F      0.000000     0.000000     0.000000
--
-1 1
Cl     6.280000     0.000000     0.000000

units ang
no_reorient
no_com
symmetry c1
}

set {
basis        aug-cc-pVTZ
scf_type     df
}

energy("mp2", bsse_type="cp")
--------------------------------------------------------------------------

                               Psi4 1.9 release
    Molecular point group: c1
  Charge       = -1
  Multiplicity = 1
  Basis Set: AUG-CC-PVTZ
    Blend: AUG-CC-PVTZ
  Basis Set: (AUG-CC-PVTZ AUX)
    Blend: AUG-CC-PVTZ-JKFIT
  @DF-RHF Final Energy:  -459.57348214178370
    Total Energy =                       -459.5734821417836429
 Dipole X            :       -213.6148440          201.7471612          -11.8676829
 Dipole Y            :          0.0000000            0.0000000            0.0000000
 Dipole Z            :         -0.0000000            0.0000000           -0.0000000
 Magnitude           :                                                   11.8676829
  Basis Set: (AUG-CC-PVTZ AUX)
    Blend: AUG-CC-PVTZ-RI
	 Reference Energy          =    -459.5734821417836997 [Eh]
	 Singles Energy            =      -0.0000000000000000 [Eh]
	 Same-Spin Energy          =      -0.0622579782287463 [Eh]
	 Opposite-Spin Energy      =      -0.1786067536567260 [Eh]
	 Correlation Energy        =      -0.2408647318854723 [Eh]
	 Total Energy              =    -459.8143468736691943 [Eh]
	 SCS Total Energy          =    -459.8085629055813683 [Eh]
                               Psi4 1.9 release
    Molecular point group: c1
  Multiplicity = 1
  Basis Set: AUG-CC-PVTZ
    Blend: AUG-CC-PVTZ
  Basis Set: (AUG-CC-PVTZ AUX)
    Blend: AUG-CC-PVTZ-JKFIT
  @DF-RHF Final Energy:   -99.45080684838304
    Total Energy =                        -99.4508068483830385
  Basis Set: (AUG-CC-PVTZ AUX)
	 Singles Energy            =      -0.0000000000000000 [Eh]
	 Same-Spin Energy          =      -0.0815557382181486 [Eh]
	 Opposite-Spin Energy      =      -0.2261422262215016 [Eh]
	 Correlation Energy        =      -0.3076979644396502 [Eh]
	 Total Energy              =     -99.7585048128226930 [Eh]
	 SCS Total Energy          =     -99.7493627659215605 [Eh]
                               Psi4 1.9 release
    Molecular point group: c1

    Geometry (in Bohr), charge = -2, multiplicity = 1:

       Center              X                  Y                   Z               Mass
    ------------   -----------------  -----------------  -----------------  -----------------
         F            0.000000000000     0.000000000000     0.000000000000    18.998403162730
         CL          11.867480067875     0.000000000000     0.000000000000    34.968852682000

  Charge       = -2
  Multiplicity = 1
  Basis Set: AUG-CC-PVTZ
    Blend: AUG-CC-PVTZ
  Basis Set: (AUG-CC-PVTZ AUX)
    Blend: AUG-CC-PVTZ-JKFIT

    Orbital Energies [Eh]
    ---------------------

    Doubly Occupied:

       1A   -104.422771     2A    -25.750973     3A    -10.146510
       4A     -7.612543     5A     -7.612543     6A     -7.612511
       7A     -0.993235     8A     -0.650070     9A     -0.098152
      10A     -0.098145    11A     -0.098145    12A     -0.067158
      13A     -0.067158    14A     -0.066234

  @DF-RHF Final Energy:  -558.94087885256420

   => Energetics <=

    Nuclear Repulsion Energy =             12.8923747185525475
    One-Electron Energy =                -813.0742087719164601
    Two-Electron Energy =                 241.2409552007997036
    Total Energy =                       -558.9408788525641967
 Dipole X            :       -213.7442229          201.7471612          -11.9970618
 Dipole Y            :          0.0000000            0.0000000            0.0000000
 Dipole Z            :         -0.0000000            0.0000000           -0.0000000
 Magnitude           :                                                   11.9970618
  Basis Set: (AUG-CC-PVTZ AUX)
    Blend: AUG-CC-PVTZ-RI
	 Reference Energy          =    -558.9408788525641967 [Eh]
	 Singles Energy            =      -0.0000000000000000 [Eh]
	 Same-Spin Energy          =      -0.1438540928613876 [Eh]
	 Opposite-Spin Energy      =      -0.4048413961799168 [Eh]
	 Correlation Energy        =      -0.5486954890413044 [Eh]
	 Total Energy              =    -559.4895743416054756 [Eh]

	 ================> DF-SCS-MP2 Energies <==================
	-----------------------------------------------------------
	 SCS Same-Spin Scale       =       0.3333333333333333 [-]
	 SCS Opposite-Spin Scale   =       1.2000000000000000 [-]
	 SCS Same-Spin Energy      =      -0.0479513642871292 [Eh]
	 SCS Opposite-Spin Energy  =      -0.4858096754159001 [Eh]
	 SCS Correlation Energy    =      -0.5337610397030292 [Eh]
	 SCS Total Energy          =    -559.4746398922671915 [Eh]
	-----------------------------------------------------------

*** Psi4 exiting successfully. Buy a developer a beer!
