                               Psi4 1.9 release

  ==> Input File <==

--------------------------------------------------------------------------
MEMORY 60 GB

molecule dimer {
-1 1
F      0.000000     0.000000     0.000000
--
-1 1
Cl     3.140000     0.000000     0.000000

units ang
no_reorient
no_com
symmetry c1
}

set {
basis        aug-cc-pVTZ
scf_type     df
}

energy("mp2", bsse_type="cp")
--------------------------------------------------------------------------

                               Psi4 1.9 release
    Molecular point group: c1
  Charge       = -1
  Multiplicity = 1
  Basis Set: AUG-CC-PVTZ
    Blend: AUG-CC-PVTZ
  Basis Set: (AUG-CC-PVTZ AUX)
    Blend: AUG-CC-PVTZ-JKFIT
  @DF-RHF Final Energy:  -459.57348798349091
    Total Energy =                       -459.5734879834909634
 Dipole X            :       -106.8070493          100.8735806           -5.9334687
 Dipole Y            :         -0.0000000            0.0000000           -0.0000000
 Dipole Z            :         -0.0000000            0.0000000           -0.0000000
 Magnitude           :                                                    5.9334687
  Basis Set: (AUG-CC-PVTZ AUX)
    Blend: AUG-CC-PVTZ-RI
	 Reference Energy          =    -459.5734879834909066 [Eh]
	 Singles Energy            =      -0.0000000000000000 [Eh]
	 Same-Spin Energy          =      -0.0623170934779429 [Eh]
	 Opposite-Spin Energy      =      -0.1788024852029374 [Eh]
	 Correlation Energy        =      -0.2411195786808803 [Eh]
	 Total Energy              =    -459.8146075621717728 [Eh]
	 SCS Total Energy          =    -459.8088233302270851 [Eh]
                               Psi4 1.9 release
    Molecular point group: c1
  Multiplicity = 1
  Basis Set: AUG-CC-PVTZ
    Blend: AUG-CC-PVTZ
  Basis Set: (AUG-CC-PVTZ AUX)
    Blend: AUG-CC-PVTZ-JKFIT
  @DF-RHF Final Energy:   -99.45082098696219
    Total Energy =                        -99.4508209869621851
  Basis Set: (AUG-CC-PVTZ AUX)
	 Singles Energy            =      -0.0000000000000000 [Eh]
	 Same-Spin Energy          =      -0.0815833435308501 [Eh]
	 Opposite-Spin Energy      =      -0.2263537285225495 [Eh]
	 Correlation Energy        =      -0.3079370720533997 [Eh]
	 Total Energy              =     -99.7587580590155909 [Eh]
	 SCS Total Energy          =     -99.7496399090328651 [Eh]
                               Psi4 1.9 release
    Molecular point group: c1

    Geometry (in Bohr), charge = -2, multiplicity = 1:

       Center              X                  Y                   Z               Mass
    ------------   -----------------  -----------------  -----------------  -----------------
         F            0.000000000000     0.000000000000     0.000000000000    18.998403162730
         CL           5.933740033938     0.000000000000     0.000000000000    34.968852682000

  Charge       = -2
  Multiplicity = 1
  Basis Set: AUG-CC-PVTZ
    Blend: AUG-CC-PVTZ
  Basis Set: (AUG-CC-PVTZ AUX)
    Blend: AUG-CC-PVTZ-JKFIT

    Orbital Energies [Eh]
    ---------------------

    Doubly Occupied:

       1A   -104.356076     2A    -25.689173     3A    -10.079217
       4A     -7.545157     5A     -7.545157     6A     -7.545069
       7A     -0.931449     8A     -0.579839     9A     -0.042374
      10A     -0.036510    11A     -0.036510    12A      0.002268
      13A      0.002268    14A      0.015940

  @DF-RHF Final Energy:  -558.86787884913178

   => Energetics <=

    Nuclear Repulsion Energy =             25.7847494371050949
    One-Electron Energy =                -840.5731487461154074
    Two-Electron Energy =                 255.9205204598786167
    Total Energy =                       -558.8678788491316709
 Dipole X            :       -107.2862685          100.8735806           -6.4126879
 Dipole Y            :         -0.0000000            0.0000000           -0.0000000
 Dipole Z            :         -0.0000000            0.0000000           -0.0000000
 Magnitude           :                                                    6.4126879
  Basis Set: (AUG-CC-PVTZ AUX)
    Blend: AUG-CC-PVTZ-RI
	 Reference Energy          =    -558.8678788491317846 [Eh]
	 Singles Energy            =      -0.0000000000000000 [Eh]
	 Same-Spin Energy          =      -0.1454593364468798 [Eh]
	 Opposite-Spin Energy      =      -0.4075202500123154 [Eh]
	 Correlation Energy        =      -0.5529795864591952 [Eh]
	 Total Energy              =    -559.4208584355909579 [Eh]

	 ================> DF-SCS-MP2 Energies <==================
	-----------------------------------------------------------
	 SCS Same-Spin Scale       =       0.3333333333333333 [-]
	 SCS Opposite-Spin Scale   =       1.2000000000000000 [-]
	 SCS Same-Spin Energy      =      -0.0484864454822933 [Eh]
	 SCS Opposite-Spin Energy  =      -0.4890243000147785 [Eh]
	 SCS Correlation Energy    =      -0.5375107454970718 [Eh]
	 SCS Total Energy          =    -559.4053895946289003 [Eh]
	-----------------------------------------------------------

*** Psi4 exiting successfully. Buy a developer a beer!
