                               Psi4 1.9 release

  ==> Input File <==

--------------------------------------------------------------------------
MEMORY 60 GB

molecule dimer {
-1 1
F      0.000000     0.000000     0.000000
--
-1 1
Cl     4.396000     0.000000     0.000000

units ang
no_reorient
no_com
symmetry c1
}

set {
basis        aug-cc-pVTZ
scf_type     df
}

energy("mp2", bsse_type="cp")
--------------------------------------------------------------------------

                               Psi4 1.9 release
    Molecular point group: c1
  Charge       = -1
  Multiplicity = 1
  Basis Set: AUG-CC-PVTZ
    Blend: AUG-CC-PVTZ
  Basis Set: (AUG-CC-PVTZ AUX)
    Blend: AUG-CC-PVTZ-JKFIT
  @DF-RHF Final Energy:  -459.57348334638749
    Total Energy =                       -459.5734833463874907
 Dipole X            :       -149.5302009          141.2230128           -8.3071881
 Dipole Y            :         -0.0000000            0.0000000           -0.0000000
 Dipole Z            :         -0.0000000            0.0000000           -0.0000000
 Magnitude           :                                                    8.3071881
  Basis Set: (AUG-CC-PVTZ AUX)
    Blend: AUG-CC-PVTZ-RI
	 Reference Energy          =    -459.5734833463874907 [Eh]
	 Singles Energy            =      -0.0000000000000000 [Eh]
	 Same-Spin Energy          =      -0.0622698052677424 [Eh]
	 Opposite-Spin Energy      =      -0.1786449870312978 [Eh]
	 Correlation Energy        =      -0.2409147922990403 [Eh]
	 Total Energy              =    -459.8143981386865562 [Eh]
	 SCS Total Energy          =    -459.8086139325809540 [Eh]
                               Psi4 1.9 release
    Molecular point group: c1
  Multiplicity = 1
  Basis Set: AUG-CC-PVTZ
    Blend: AUG-CC-PVTZ
  Basis Set: (AUG-CC-PVTZ AUX)
    Blend: AUG-CC-PVTZ-JKFIT
  @DF-RHF Final Energy:   -99.45081044424401
    Total Energy =                        -99.4508104442440128
  Basis Set: (AUG-CC-PVTZ AUX)
	 Singles Energy            =      -0.0000000000000000 [Eh]
	 Same-Spin Energy          =      -0.0815628948926886 [Eh]
	 Opposite-Spin Energy      =      -0.2262024124826935 [Eh]
	 Correlation Energy        =      -0.3077653073753821 [Eh]
	 Total Energy              =     -99.7585757516193894 [Eh]
	 SCS Total Energy          =     -99.7494409708541383 [Eh]
                               Psi4 1.9 release
    Molecular point group: c1

    Geometry (in Bohr), charge = -2, multiplicity = 1:

       Center              X                  Y                   Z               Mass
    ------------   -----------------  -----------------  -----------------  -----------------
         F            0.000000000000     0.000000000000     0.000000000000    18.998403162730
         CL           8.307236047513     0.000000000000     0.000000000000    34.968852682000

  Charge       = -2
  Multiplicity = 1
  Basis Set: AUG-CC-PVTZ
    Blend: AUG-CC-PVTZ
  Basis Set: (AUG-CC-PVTZ AUX)
    Blend: AUG-CC-PVTZ-JKFIT

    Orbital Energies [Eh]
    ---------------------

    Doubly Occupied:

       1A   -104.391010     2A    -25.720256     3A    -10.114537
       4A     -7.580561     5A     -7.580561     6A     -7.580492
       7A     -0.962212     8A     -0.617233     9A     -0.067169
      10A     -0.067141    11A     -0.067141    12A     -0.034756
      13A     -0.034756    14A     -0.031590

  @DF-RHF Final Energy:  -558.90772672038690

   => Energetics <=

    Nuclear Repulsion Energy =             18.4176781693607836
    One-Electron Energy =                -824.9519776114798333
    Two-Electron Energy =                 247.6265727217321739
    Total Energy =                       -558.9077267203869042
 Dipole X            :       -149.7919910          141.2230128           -8.5689782
 Dipole Y            :         -0.0000000            0.0000000           -0.0000000
 Dipole Z            :         -0.0000000            0.0000000           -0.0000000
 Magnitude           :                                                    8.5689782
  Basis Set: (AUG-CC-PVTZ AUX)
    Blend: AUG-CC-PVTZ-RI
	 Reference Energy          =    -558.9077267203869042 [Eh]
	 Singles Energy            =      -0.0000000000000000 [Eh]
	 Same-Spin Energy          =      -0.1441324137079091 [Eh]
	 Opposite-Spin Energy      =      -0.4054048016864643 [Eh]
	 Correlation Energy        =      -0.5495372153943733 [Eh]
	 Total Energy              =    -559.4572639357812704 [Eh]

	 ================> DF-SCS-MP2 Energies <==================
	-----------------------------------------------------------
	 SCS Same-Spin Scale       =       0.3333333333333333 [-]
	 SCS Opposite-Spin Scale   =       1.2000000000000000 [-]
	 SCS Same-Spin Energy      =      -0.0480441379026363 [Eh]
	 SCS Opposite-Spin Energy  =      -0.4864857620237571 [Eh]
	 SCS Correlation Energy    =      -0.5345298999263934 [Eh]
	 SCS Total Energy          =    -559.4422566203132874 [Eh]
	-----------------------------------------------------------

*** Psi4 exiting successfully. Buy a developer a beer!
