                               Psi4 1.9 release

  ==> Input File <==

--------------------------------------------------------------------------
MEMORY 60 GB

molecule dimer {
-1 1
F      0.000000     0.000000     0.000000
--
-1 1
Cl     4.710000     0.000000     0.000000

units ang
no_reorient
no_com
symmetry c1
}

set {
basis        aug-cc-pVTZ
scf_type     df
}

energy("mp2", bsse_type="cp")
--------------------------------------------------------------------------

                               Psi4 1.9 release
    Molecular point group: c1
  Charge       = -1
  Multiplicity = 1
  Basis Set: AUG-CC-PVTZ
    Blend: AUG-CC-PVTZ
  Basis Set: (AUG-CC-PVTZ AUX)
    Blend: AUG-CC-PVTZ-JKFIT
  @DF-RHF Final Energy:  -459.57348280302574
    Total Energy =                       -459.5734828030257404
 Dipole X            :       -160.2110303          151.3103709           -8.9006595
 Dipole Y            :         -0.0000000            0.0000000           -0.0000000
 Dipole Z            :          0.0000000            0.0000000            0.0000000
 Magnitude           :                                                    8.9006595
  Basis Set: (AUG-CC-PVTZ AUX)
    Blend: AUG-CC-PVTZ-RI
	 Reference Energy          =    -459.5734828030257404 [Eh]
	 Singles Energy            =      -0.0000000000000000 [Eh]
	 Same-Spin Energy          =      -0.0622669056455846 [Eh]
	 Opposite-Spin Energy      =      -0.1786354337221740 [Eh]
	 Correlation Energy        =      -0.2409023393677586 [Eh]
	 Total Energy              =    -459.8143851423935189 [Eh]
	 SCS Total Energy          =    -459.8086009587075296 [Eh]
                               Psi4 1.9 release
    Molecular point group: c1
  Multiplicity = 1
  Basis Set: AUG-CC-PVTZ
    Blend: AUG-CC-PVTZ
  Basis Set: (AUG-CC-PVTZ AUX)
    Blend: AUG-CC-PVTZ-JKFIT
  @DF-RHF Final Energy:   -99.45081008797412
    Total Energy =                        -99.4508100879741193
  Basis Set: (AUG-CC-PVTZ AUX)
	 Singles Energy            =      -0.0000000000000000 [Eh]
	 Same-Spin Energy          =      -0.0815604333493373 [Eh]
	 Opposite-Spin Energy      =      -0.2261822424709189 [Eh]
	 Correlation Energy        =      -0.3077426758202563 [Eh]
	 Total Energy              =     -99.7585527637943699 [Eh]
	 SCS Total Energy          =     -99.7494155900556621 [Eh]
                               Psi4 1.9 release
    Molecular point group: c1

    Geometry (in Bohr), charge = -2, multiplicity = 1:

       Center              X                  Y                   Z               Mass
    ------------   -----------------  -----------------  -----------------  -----------------
         F            0.000000000000     0.000000000000     0.000000000000    18.998403162730
         CL           8.900610050906     0.000000000000     0.000000000000    34.968852682000

  Charge       = -2
  Multiplicity = 1
  Basis Set: AUG-CC-PVTZ
    Blend: AUG-CC-PVTZ
  Basis Set: (AUG-CC-PVTZ AUX)
    Blend: AUG-CC-PVTZ-JKFIT

    Orbital Energies [Eh]
    ---------------------

    Doubly Occupied:

       1A   -104.397655     2A    -25.726555     3A    -10.121243
       4A     -7.587272     5A     -7.587272     6A     -7.587211
       7A     -0.968602     8A     -0.624207     9A     -0.073524
      10A     -0.073524    11A     -0.073490    12A     -0.041619
      13A     -0.041619    14A     -0.039153

  @DF-RHF Final Energy:  -558.91481816283238

   => Energetics <=

    Nuclear Repulsion Energy =             17.1898329580700633
    One-Electron Energy =                -822.3234071348903171
    Two-Electron Energy =                 246.2187560139878713
    Total Energy =                       -558.9148181628323755
 Dipole X            :       -160.4402404          151.3103709           -9.1298695
 Dipole Y            :         -0.0000000            0.0000000           -0.0000000
 Dipole Z            :         -0.0000000            0.0000000           -0.0000000
 Magnitude           :                                                    9.1298695
  Basis Set: (AUG-CC-PVTZ AUX)
    Blend: AUG-CC-PVTZ-RI
	 Reference Energy          =    -558.9148181628323755 [Eh]
	 Singles Energy            =      -0.0000000000000000 [Eh]
	 Same-Spin Energy          =      -0.1440329280593130 [Eh]
	 Opposite-Spin Energy      =      -0.4052155568935136 [Eh]
	 Correlation Energy        =      -0.5492484849528265 [Eh]
	 Total Energy              =    -559.4640666477852164 [Eh]

	 ================> DF-SCS-MP2 Energies <==================
	-----------------------------------------------------------
	 SCS Same-Spin Scale       =       0.3333333333333333 [-]
	 SCS Opposite-Spin Scale   =       1.2000000000000000 [-]
	 SCS Same-Spin Energy      =      -0.0480109760197710 [Eh]
	 SCS Opposite-Spin Energy  =      -0.4862586682722163 [Eh]
	 SCS Correlation Energy    =      -0.5342696442919872 [Eh]
	 SCS Total Energy          =    -559.4490878071243287 [Eh]
	-----------------------------------------------------------

*** Psi4 exiting successfully. Buy a developer a beer!
