                               Psi4 1.9 release

  ==> Input File <==

--------------------------------------------------------------------------
MEMORY 60 GB

molecule dimer {
-1 1
F      0.000000     0.000000     0.000000
--
-1 1
Cl     3.454000     0.000000     0.000000

units ang
no_reorient
no_com
symmetry c1
}

set {
basis        aug-cc-pVTZ
scf_type     df
}

energy("mp2", bsse_type="cp")
--------------------------------------------------------------------------

                               Psi4 1.9 release
    Molecular point group: c1
  Charge       = -1
  Multiplicity = 1
  Basis Set: AUG-CC-PVTZ
    Blend: AUG-CC-PVTZ
  Basis Set: (AUG-CC-PVTZ AUX)
    Blend: AUG-CC-PVTZ-JKFIT
  @DF-RHF Final Energy:  -459.57348634262962
    Total Energy =                       -459.5734863426296215
 Dipole X            :       -117.4880213          110.9609386           -6.5270827
 Dipole Y            :          0.0000000            0.0000000            0.0000000
 Dipole Z            :         -0.0000000            0.0000000           -0.0000000
 Magnitude           :                                                    6.5270827
  Basis Set: (AUG-CC-PVTZ AUX)
    Blend: AUG-CC-PVTZ-RI
	 Reference Energy          =    -459.5734863426296215 [Eh]
	 Singles Energy            =      -0.0000000000000000 [Eh]
	 Same-Spin Energy          =      -0.0622958272431623 [Eh]
	 Opposite-Spin Energy      =      -0.1787257474072881 [Eh]
	 Correlation Energy        =      -0.2410215746504504 [Eh]
	 Total Energy              =    -459.8145079172800820 [Eh]
	 SCS Total Energy          =    -459.8087225152660835 [Eh]
                               Psi4 1.9 release
    Molecular point group: c1
  Multiplicity = 1
  Basis Set: AUG-CC-PVTZ
    Blend: AUG-CC-PVTZ
  Basis Set: (AUG-CC-PVTZ AUX)
    Blend: AUG-CC-PVTZ-JKFIT
  @DF-RHF Final Energy:   -99.45081877392548
    Total Energy =                        -99.4508187739254765
  Basis Set: (AUG-CC-PVTZ AUX)
	 Singles Energy            =      -0.0000000000000000 [Eh]
	 Same-Spin Energy          =      -0.0815728822865353 [Eh]
	 Opposite-Spin Energy      =      -0.2262954669579494 [Eh]
	 Correlation Energy        =      -0.3078683492444847 [Eh]
	 Total Energy              =     -99.7586871231699632 [Eh]
	 SCS Total Energy          =     -99.7495642950371888 [Eh]
                               Psi4 1.9 release
    Molecular point group: c1

    Geometry (in Bohr), charge = -2, multiplicity = 1:

       Center              X                  Y                   Z               Mass
    ------------   -----------------  -----------------  -----------------  -----------------
         F            0.000000000000     0.000000000000     0.000000000000    18.998403162730
         CL           6.527114037331     0.000000000000     0.000000000000    34.968852682000

  Charge       = -2
  Multiplicity = 1
  Basis Set: AUG-CC-PVTZ
    Blend: AUG-CC-PVTZ
  Basis Set: (AUG-CC-PVTZ AUX)
    Blend: AUG-CC-PVTZ-JKFIT

    Orbital Energies [Eh]
    ---------------------

    Doubly Occupied:

       1A   -104.366316     2A    -25.697846     3A    -10.089564
       4A     -7.555547     5A     -7.555547     6A     -7.555455
       7A     -0.939690     8A     -0.590859     9A     -0.047188
      10A     -0.044660    11A     -0.044660    12A     -0.008772
      13A     -0.008772    14A     -0.000111

  @DF-RHF Final Energy:  -558.88031393092058

   => Energetics <=

    Nuclear Repulsion Energy =             23.4406813064591759
    One-Electron Energy =                -835.6320176106045210
    Two-Electron Energy =                 253.3110223732247164
    Total Energy =                       -558.8803139309206927
 Dipole X            :       -117.8933003          110.9609386           -6.9323616
 Dipole Y            :          0.0000000            0.0000000            0.0000000
 Dipole Z            :         -0.0000000            0.0000000           -0.0000000
 Magnitude           :                                                    6.9323616
  Basis Set: (AUG-CC-PVTZ AUX)
    Blend: AUG-CC-PVTZ-RI
	 Reference Energy          =    -558.8803139309205790 [Eh]
	 Singles Energy            =      -0.0000000000000000 [Eh]
	 Same-Spin Energy          =      -0.1448747051793250 [Eh]
	 Opposite-Spin Energy      =      -0.4066393765005297 [Eh]
	 Correlation Energy        =      -0.5515140816798546 [Eh]
	 Total Energy              =    -559.4318280126004765 [Eh]

	 ================> DF-SCS-MP2 Energies <==================
	-----------------------------------------------------------
	 SCS Same-Spin Scale       =       0.3333333333333333 [-]
	 SCS Opposite-Spin Scale   =       1.2000000000000000 [-]
	 SCS Same-Spin Energy      =      -0.0482915683931083 [Eh]
	 SCS Opposite-Spin Energy  =      -0.4879672518006356 [Eh]
	 SCS Correlation Energy    =      -0.5362588201937439 [Eh]
	 SCS Total Energy          =    -559.4165727511143587 [Eh]
	-----------------------------------------------------------

*** Psi4 exiting successfully. Buy a developer a beer!
