                               Psi4 1.9 release

  ==> Input File <==

--------------------------------------------------------------------------
MEMORY 60 GB

molecule dimer {
-1 1
F      0.000000     0.000000     0.000000
--
-1 1
Cl     3.768000     0.000000     0.000000

units ang
no_reorient
no_com
symmetry c1
}

set {
basis        aug-cc-pVTZ
scf_type     df
}

energy("mp2", bsse_type="cp")
--------------------------------------------------------------------------

                               Psi4 1.9 release
    Molecular point group: c1
  Charge       = -1
  Multiplicity = 1
  Basis Set: AUG-CC-PVTZ
    Blend: AUG-CC-PVTZ
  Basis Set: (AUG-CC-PVTZ AUX)
    Blend: AUG-CC-PVTZ-JKFIT
  @DF-RHF Final Energy:  -459.57348395028271
    Total Energy =                       -459.5734839502827072
 Dipole X            :       -128.1688644          121.0482967           -7.1205677
 Dipole Y            :         -0.0000000            0.0000000           -0.0000000
 Dipole Z            :          0.0000000            0.0000000            0.0000000
 Magnitude           :                                                    7.1205677
  Basis Set: (AUG-CC-PVTZ AUX)
    Blend: AUG-CC-PVTZ-RI
	 Reference Energy          =    -459.5734839502827072 [Eh]
	 Singles Energy            =      -0.0000000000000000 [Eh]
	 Same-Spin Energy          =      -0.0622818769617308 [Eh]
	 Opposite-Spin Energy      =      -0.1786818917864270 [Eh]
	 Correlation Energy        =      -0.2409637687481578 [Eh]
	 Total Energy              =    -459.8144477190308521 [Eh]
	 SCS Total Energy          =    -459.8086628460803240 [Eh]
                               Psi4 1.9 release
    Molecular point group: c1
  Multiplicity = 1
  Basis Set: AUG-CC-PVTZ
    Blend: AUG-CC-PVTZ
  Basis Set: (AUG-CC-PVTZ AUX)
    Blend: AUG-CC-PVTZ-JKFIT
  @DF-RHF Final Energy:   -99.45081567423264
    Total Energy =                        -99.4508156742326435
  Basis Set: (AUG-CC-PVTZ AUX)
	 Singles Energy            =      -0.0000000000000000 [Eh]
	 Same-Spin Energy          =      -0.0815676021180436 [Eh]
	 Opposite-Spin Energy      =      -0.2262564350024878 [Eh]
	 Correlation Energy        =      -0.3078240371205314 [Eh]
	 Total Energy              =     -99.7586397113531689 [Eh]
	 SCS Total Energy          =     -99.7495125969416421 [Eh]
                               Psi4 1.9 release
    Molecular point group: c1

    Geometry (in Bohr), charge = -2, multiplicity = 1:

       Center              X                  Y                   Z               Mass
    ------------   -----------------  -----------------  -----------------  -----------------
         F            0.000000000000     0.000000000000     0.000000000000    18.998403162730
         CL           7.120488040725     0.000000000000     0.000000000000    34.968852682000

  Charge       = -2
  Multiplicity = 1
  Basis Set: AUG-CC-PVTZ
    Blend: AUG-CC-PVTZ
  Basis Set: (AUG-CC-PVTZ AUX)
    Blend: AUG-CC-PVTZ-JKFIT

    Orbital Energies [Eh]
    ---------------------

    Doubly Occupied:

       1A   -104.375459     2A    -25.705922     3A    -10.098815
       4A     -7.564820     5A     -7.564820     6A     -7.564734
       7A     -0.947713     8A     -0.600690     9A     -0.053601
      10A     -0.052658    11A     -0.052658    12A     -0.018485
      13A     -0.018485    14A     -0.012633

  @DF-RHF Final Energy:  -558.89072184040208

   => Energetics <=

    Nuclear Repulsion Energy =             21.4872911975875809
    One-Electron Energy =                -831.4930405634472663
    Two-Electron Energy =                 251.1150275254576059
    Total Energy =                       -558.8907218404019659
 Dipole X            :       -128.5166614          121.0482967           -7.4683647
 Dipole Y            :          0.0000000            0.0000000            0.0000000
 Dipole Z            :         -0.0000000            0.0000000           -0.0000000
 Magnitude           :                                                    7.4683647
  Basis Set: (AUG-CC-PVTZ AUX)
    Blend: AUG-CC-PVTZ-RI
	 Reference Energy          =    -558.8907218404020796 [Eh]
	 Singles Energy            =      -0.0000000000000000 [Eh]
	 Same-Spin Energy          =      -0.1445117121496664 [Eh]
	 Opposite-Spin Energy      =      -0.4060622660650159 [Eh]
	 Correlation Energy        =      -0.5505739782146823 [Eh]
	 Total Energy              =    -559.4412958186167089 [Eh]

	 ================> DF-SCS-MP2 Energies <==================
	-----------------------------------------------------------
	 SCS Same-Spin Scale       =       0.3333333333333333 [-]
	 SCS Opposite-Spin Scale   =       1.2000000000000000 [-]
	 SCS Same-Spin Energy      =      -0.0481705707165555 [Eh]
	 SCS Opposite-Spin Energy  =      -0.4872747192780191 [Eh]
	 SCS Correlation Energy    =      -0.5354452899945746 [Eh]
	 SCS Total Energy          =    -559.4261671303966068 [Eh]
	-----------------------------------------------------------

*** Psi4 exiting successfully. Buy a developer a beer!
