                               Psi4 1.9 release

  ==> Input File <==

--------------------------------------------------------------------------
MEMORY 60 GB

molecule dimer {
-1 1
F      0.000000     0.000000     0.000000
--
-1 1
Cl     4.082000     0.000000     0.000000

units ang
no_reorient
no_com
symmetry c1
}

set {
basis        aug-cc-pVTZ
scf_type     df
}

energy("mp2", bsse_type="cp")
--------------------------------------------------------------------------

                               Psi4 1.9 release
    Molecular point group: c1
  Charge       = -1
  Multiplicity = 1
  Basis Set: AUG-CC-PVTZ
    Blend: AUG-CC-PVTZ
  Basis Set: (AUG-CC-PVTZ AUX)
    Blend: AUG-CC-PVTZ-JKFIT
  @DF-RHF Final Energy:  -459.57348350238595
    Total Energy =                       -459.5734835023860114
 Dipole X            :       -138.8495102          131.1356548           -7.7138554
 Dipole Y            :         -0.0000000            0.0000000           -0.0000000
 Dipole Z            :          0.0000000            0.0000000            0.0000000
 Magnitude           :                                                    7.7138554
  Basis Set: (AUG-CC-PVTZ AUX)
    Blend: AUG-CC-PVTZ-RI
	 Reference Energy          =    -459.5734835023859546 [Eh]
	 Singles Energy            =      -0.0000000000000000 [Eh]
	 Same-Spin Energy          =      -0.0622741403743910 [Eh]
	 Opposite-Spin Energy      =      -0.1786585104386447 [Eh]
	 Correlation Energy        =      -0.2409326508130357 [Eh]
	 Total Energy              =    -459.8144161531989766 [Eh]
	 SCS Total Energy          =    -459.8086317617037935 [Eh]
                               Psi4 1.9 release
    Molecular point group: c1
  Multiplicity = 1
  Basis Set: AUG-CC-PVTZ
    Blend: AUG-CC-PVTZ
  Basis Set: (AUG-CC-PVTZ AUX)
    Blend: AUG-CC-PVTZ-JKFIT
  @DF-RHF Final Energy:   -99.45081169589629
    Total Energy =                        -99.4508116958962773
  Basis Set: (AUG-CC-PVTZ AUX)
	 Singles Energy            =      -0.0000000000000000 [Eh]
	 Same-Spin Energy          =      -0.0815651232855042 [Eh]
	 Opposite-Spin Energy      =      -0.2262269585840257 [Eh]
	 Correlation Energy        =      -0.3077920818695299 [Eh]
	 Total Energy              =     -99.7586037777658277 [Eh]
	 SCS Total Energy          =     -99.7494724206256222 [Eh]
                               Psi4 1.9 release
    Molecular point group: c1

    Geometry (in Bohr), charge = -2, multiplicity = 1:

       Center              X                  Y                   Z               Mass
    ------------   -----------------  -----------------  -----------------  -----------------
         F            0.000000000000     0.000000000000     0.000000000000    18.998403162730
         CL           7.713862044119     0.000000000000     0.000000000000    34.968852682000

  Charge       = -2
  Multiplicity = 1
  Basis Set: AUG-CC-PVTZ
    Blend: AUG-CC-PVTZ
  Basis Set: (AUG-CC-PVTZ AUX)
    Blend: AUG-CC-PVTZ-JKFIT

    Orbital Energies [Eh]
    ---------------------

    Doubly Occupied:

       1A   -104.383647     2A    -25.713388     3A    -10.107097
       4A     -7.573114     5A     -7.573114     6A     -7.573037
       7A     -0.955247     8A     -0.609437     9A     -0.060455
      10A     -0.060184    11A     -0.060184    12A     -0.027090
      13A     -0.027090    14A     -0.022886

  @DF-RHF Final Energy:  -558.89975509206647

   => Energetics <=

    Nuclear Repulsion Energy =             19.8344226439269988
    One-Electron Energy =                -827.9764127380245782
    Two-Electron Energy =                 249.2422350020309807
    Total Energy =                       -558.8997550920665844
 Dipole X            :       -139.1503352          131.1356548           -8.0146805
 Dipole Y            :          0.0000000            0.0000000            0.0000000
 Dipole Z            :          0.0000000            0.0000000            0.0000000
 Magnitude           :                                                    8.0146805
  Basis Set: (AUG-CC-PVTZ AUX)
    Blend: AUG-CC-PVTZ-RI
	 Reference Energy          =    -558.8997550920664708 [Eh]
	 Singles Energy            =      -0.0000000000000000 [Eh]
	 Same-Spin Energy          =      -0.1442818540916262 [Eh]
	 Opposite-Spin Energy      =      -0.4056736639472851 [Eh]
	 Correlation Energy        =      -0.5499555180389113 [Eh]
	 Total Energy              =    -559.4497106101053987 [Eh]

	 ================> DF-SCS-MP2 Energies <==================
	-----------------------------------------------------------
	 SCS Same-Spin Scale       =       0.3333333333333333 [-]
	 SCS Opposite-Spin Scale   =       1.2000000000000000 [-]
	 SCS Same-Spin Energy      =      -0.0480939513638754 [Eh]
	 SCS Opposite-Spin Energy  =      -0.4868083967367421 [Eh]
	 SCS Correlation Energy    =      -0.5349023481006174 [Eh]
	 SCS Total Energy          =    -559.4346574401671432 [Eh]
	-----------------------------------------------------------

*** Psi4 exiting successfully. Buy a developer a beer!
