                               Psi4 1.9 release

  ==> Input File <==

--------------------------------------------------------------------------
MEMORY 60 GB

molecule dimer {
-1 1
F      0.000000     0.000000     0.000000
--
-1 1
Br     6.580000     0.000000     0.000000

units ang
no_reorient
no_com
symmetry c1
}

set {
basis        aug-cc-pVTZ
scf_type     df
}

energy("mp2", bsse_type="cp")
--------------------------------------------------------------------------

                               Psi4 1.9 release
    Molecular point group: c1
  Charge       = -1
  Multiplicity = 1
  Basis Set: AUG-CC-PVTZ
    Blend: AUG-CC-PVTZ
  Basis Set: (AUG-CC-PVTZ AUX)
    Blend: AUG-CC-PVTZ-JKFIT
  @DF-RHF Final Energy: -2572.53366587147229
    Total Energy =                      -2572.5336658714722944
 Dipole X            :       -447.6384734          435.2039267          -12.4345467
 Dipole Y            :         -0.0000000            0.0000000           -0.0000000
 Dipole Z            :         -0.0000000            0.0000000           -0.0000000
 Magnitude           :                                                   12.4345467
  Basis Set: (AUG-CC-PVTZ AUX)
    Blend: AUG-CC-PVTZ-RI
	 Reference Energy          =   -2572.5336658714722944 [Eh]
	 Singles Energy            =      -0.0000000000000000 [Eh]
	 Same-Spin Energy          =      -0.0866448391697707 [Eh]
	 Opposite-Spin Energy      =      -0.2009269390501330 [Eh]
	 Correlation Energy        =      -0.2875717782199037 [Eh]
	 Total Energy              =   -2572.8212376496921934 [Eh]
	 SCS Total Energy          =   -2572.8036598113890250 [Eh]
                               Psi4 1.9 release
    Molecular point group: c1
  Multiplicity = 1
  Basis Set: AUG-CC-PVTZ
    Blend: AUG-CC-PVTZ
  Basis Set: (AUG-CC-PVTZ AUX)
    Blend: AUG-CC-PVTZ-JKFIT
  @DF-RHF Final Energy:   -99.45080698690782
    Total Energy =                        -99.4508069869078213
  Basis Set: (AUG-CC-PVTZ AUX)
	 Singles Energy            =      -0.0000000000000000 [Eh]
	 Same-Spin Energy          =      -0.0815560233443768 [Eh]
	 Opposite-Spin Energy      =      -0.2261432088208999 [Eh]
	 Correlation Energy        =      -0.3076992321652767 [Eh]
	 Total Energy              =     -99.7585062190730980 [Eh]
	 SCS Total Energy          =     -99.7493641786076921 [Eh]
                               Psi4 1.9 release
    Molecular point group: c1

    Geometry (in Bohr), charge = -2, multiplicity = 1:

       Center              X                  Y                   Z               Mass
    ------------   -----------------  -----------------  -----------------  -----------------
         F            0.000000000000     0.000000000000     0.000000000000    18.998403162730
         BR          12.434397905513     0.000000000000     0.000000000000    78.918337600000

  Charge       = -2
  Multiplicity = 1
  Basis Set: AUG-CC-PVTZ
    Blend: AUG-CC-PVTZ
  Basis Set: (AUG-CC-PVTZ AUX)
    Blend: AUG-CC-PVTZ-JKFIT

    Orbital Energies [Eh]
    ---------------------

    Doubly Occupied:

       1A   -489.640975     2A    -64.781066     3A    -58.135536
       4A    -58.135536     5A    -58.135516     6A    -25.755025
       7A     -9.453486     8A     -7.060857     9A     -7.060857
      10A     -7.060735    11A     -2.802582    12A     -2.802582
      13A     -2.802435    14A     -2.802435    15A     -2.802386
      16A     -0.997301    17A     -0.606433    18A     -0.102224
      19A     -0.102213    20A     -0.102213    21A     -0.060093
      22A     -0.060093    23A     -0.058949

  @DF-RHF Final Energy: -2671.90500050456330

   => Energetics <=

    Nuclear Repulsion Energy =             25.3329515746276570
    One-Electron Energy =               -3791.8328398232042673
    Two-Electron Energy =                1094.5948877440132492
    Total Energy =                      -2671.9050005045633043
 Dipole X            :       -447.8284767          435.2039267          -12.6245500
 Dipole Y            :          0.0000000            0.0000000            0.0000000
 Dipole Z            :          0.0000000            0.0000000            0.0000000
 Magnitude           :                                                   12.6245500
  Basis Set: (AUG-CC-PVTZ AUX)
    Blend: AUG-CC-PVTZ-RI
	 Reference Energy          =   -2671.9050005045633043 [Eh]
	 Singles Energy            =      -0.0000000000000000 [Eh]
	 Same-Spin Energy          =      -0.1682364635842958 [Eh]
	 Opposite-Spin Energy      =      -0.4271579089096564 [Eh]
	 Correlation Energy        =      -0.5953943724939522 [Eh]
	 Total Energy              =   -2672.5003948770572606 [Eh]

	 ================> DF-SCS-MP2 Energies <==================
	-----------------------------------------------------------
	 SCS Same-Spin Scale       =       0.3333333333333333 [-]
	 SCS Opposite-Spin Scale   =       1.2000000000000000 [-]
	 SCS Same-Spin Energy      =      -0.0560788211947652 [Eh]
	 SCS Opposite-Spin Energy  =      -0.5125894906915877 [Eh]
	 SCS Correlation Energy    =      -0.5686683118863529 [Eh]
	 SCS Total Energy          =   -2672.4736688164498446 [Eh]
	-----------------------------------------------------------

*** Psi4 exiting successfully. Buy a developer a beer!
