                               Psi4 1.9 release

  ==> Input File <==

--------------------------------------------------------------------------
MEMORY 60 GB

molecule dimer {
-1 1
F      0.000000     0.000000     0.000000
--
-1 1
Br     4.606000     0.000000     0.000000

units ang
no_reorient
no_com
symmetry c1
}

set {
basis        aug-cc-pVTZ
scf_type     df
}

energy("mp2", bsse_type="cp")
--------------------------------------------------------------------------

                               Psi4 1.9 release
    Molecular point group: c1
  Charge       = -1
  Multiplicity = 1
  Basis Set: AUG-CC-PVTZ
    Blend: AUG-CC-PVTZ
  Basis Set: (AUG-CC-PVTZ AUX)
    Blend: AUG-CC-PVTZ-JKFIT
  @DF-RHF Final Energy: -2572.53366671085951
    Total Energy =                      -2572.5336667108595066
 Dipole X            :       -313.3468155          304.6427487           -8.7040668
 Dipole Y            :         -0.0000000            0.0000000           -0.0000000
 Dipole Z            :          0.0000000            0.0000000            0.0000000
 Magnitude           :                                                    8.7040668
  Basis Set: (AUG-CC-PVTZ AUX)
    Blend: AUG-CC-PVTZ-RI
	 Reference Energy          =   -2572.5336667108595066 [Eh]
	 Singles Energy            =      -0.0000000000000000 [Eh]
	 Same-Spin Energy          =      -0.0866877295097849 [Eh]
	 Opposite-Spin Energy      =      -0.2010163751996147 [Eh]
	 Correlation Energy        =      -0.2877041047093996 [Eh]
	 Total Energy              =   -2572.8213708155690256 [Eh]
	 SCS Total Energy          =   -2572.8037822709356988 [Eh]
                               Psi4 1.9 release
    Molecular point group: c1
  Multiplicity = 1
  Basis Set: AUG-CC-PVTZ
    Blend: AUG-CC-PVTZ
  Basis Set: (AUG-CC-PVTZ AUX)
    Blend: AUG-CC-PVTZ-JKFIT
  @DF-RHF Final Energy:   -99.45081104334679
    Total Energy =                        -99.4508110433467891
  Basis Set: (AUG-CC-PVTZ AUX)
	 Singles Energy            =      -0.0000000000000000 [Eh]
	 Same-Spin Energy          =      -0.0815637080866881 [Eh]
	 Opposite-Spin Energy      =      -0.2262081428614445 [Eh]
	 Correlation Energy        =      -0.3077718509481326 [Eh]
	 Total Energy              =     -99.7585828942949178 [Eh]
	 SCS Total Energy          =     -99.7494487174760849 [Eh]
                               Psi4 1.9 release
    Molecular point group: c1

    Geometry (in Bohr), charge = -2, multiplicity = 1:

       Center              X                  Y                   Z               Mass
    ------------   -----------------  -----------------  -----------------  -----------------
         F            0.000000000000     0.000000000000     0.000000000000    18.998403162730
         BR           8.704078533859     0.000000000000     0.000000000000    78.918337600000

  Charge       = -2
  Multiplicity = 1
  Basis Set: AUG-CC-PVTZ
    Blend: AUG-CC-PVTZ
  Basis Set: (AUG-CC-PVTZ AUX)
    Blend: AUG-CC-PVTZ-JKFIT

    Orbital Energies [Eh]
    ---------------------

    Doubly Occupied:

       1A   -489.610758     2A    -64.750752     3A    -58.105229
       4A    -58.105229     5A    -58.105192     6A    -25.726439
       7A     -9.423076     8A     -7.030462     9A     -7.030462
      10A     -7.030204    11A     -2.772261    12A     -2.772261
      13A     -2.771959    14A     -2.771959    15A     -2.771855
      16A     -0.968475    17A     -0.575200    18A     -0.073420
      19A     -0.073398    20A     -0.073398    21A     -0.029386
      22A     -0.029386    23A     -0.025750

  @DF-RHF Final Energy: -2671.87375013031715

   => Energetics <=

    Nuclear Repulsion Energy =             36.1899308208966701
    One-Electron Energy =               -3814.8743454747691430
    Two-Electron Energy =                1106.8106645235552605
    Total Energy =                      -2671.8737501303171484
 Dipole X            :       -313.7239001          304.6427487           -9.0811514
 Dipole Y            :          0.0000000            0.0000000            0.0000000
 Dipole Z            :          0.0000000            0.0000000            0.0000000
 Magnitude           :                                                    9.0811514
  Basis Set: (AUG-CC-PVTZ AUX)
    Blend: AUG-CC-PVTZ-RI
	 Reference Energy          =   -2671.8737501303171484 [Eh]
	 Singles Energy            =      -0.0000000000000000 [Eh]
	 Same-Spin Energy          =      -0.1685130819797583 [Eh]
	 Opposite-Spin Energy      =      -0.4277248755876766 [Eh]
	 Correlation Energy        =      -0.5962379575674349 [Eh]
	 Total Energy              =   -2672.4699880878847580 [Eh]

	 ================> DF-SCS-MP2 Energies <==================
	-----------------------------------------------------------
	 SCS Same-Spin Scale       =       0.3333333333333333 [-]
	 SCS Opposite-Spin Scale   =       1.2000000000000000 [-]
	 SCS Same-Spin Energy      =      -0.0561710273265861 [Eh]
	 SCS Opposite-Spin Energy  =      -0.5132698507052119 [Eh]
	 SCS Correlation Energy    =      -0.5694408780317980 [Eh]
	 SCS Total Energy          =   -2672.4431910083490038 [Eh]
	-----------------------------------------------------------

*** Psi4 exiting successfully. Buy a developer a beer!
