                               Psi4 1.9 release

  ==> Input File <==

--------------------------------------------------------------------------
MEMORY 60 GB

molecule dimer {
-1 1
F      0.000000     0.000000     0.000000
--
-1 1
Br     3.290000     0.000000     0.000000

units ang
no_reorient
no_com
symmetry c1
}

set {
basis        aug-cc-pVTZ
scf_type     df
}

energy("mp2", bsse_type="cp")
--------------------------------------------------------------------------

                               Psi4 1.9 release
    Molecular point group: c1
  Charge       = -1
  Multiplicity = 1
  Basis Set: AUG-CC-PVTZ
    Blend: AUG-CC-PVTZ
  Basis Set: (AUG-CC-PVTZ AUX)
    Blend: AUG-CC-PVTZ-JKFIT
  @DF-RHF Final Energy: -2572.53366905353278
    Total Energy =                      -2572.5336690535332309
 Dipole X            :       -223.8189983          217.6019633           -6.2170350
 Dipole Y            :         -0.0000000            0.0000000           -0.0000000
 Dipole Z            :         -0.0000000            0.0000000           -0.0000000
 Magnitude           :                                                    6.2170350
  Basis Set: (AUG-CC-PVTZ AUX)
    Blend: AUG-CC-PVTZ-RI
	 Reference Energy          =   -2572.5336690535327762 [Eh]
	 Singles Energy            =      -0.0000000000000000 [Eh]
	 Same-Spin Energy          =      -0.0868269148442629 [Eh]
	 Opposite-Spin Energy      =      -0.2013332404479547 [Eh]
	 Correlation Energy        =      -0.2881601552922176 [Eh]
	 Total Energy              =   -2572.8218292088249655 [Eh]
	 SCS Total Energy          =   -2572.8042112470184293 [Eh]
                               Psi4 1.9 release
    Molecular point group: c1
  Multiplicity = 1
  Basis Set: AUG-CC-PVTZ
    Blend: AUG-CC-PVTZ
  Basis Set: (AUG-CC-PVTZ AUX)
    Blend: AUG-CC-PVTZ-JKFIT
  @DF-RHF Final Energy:   -99.45082191608971
    Total Energy =                        -99.4508219160897227
  Basis Set: (AUG-CC-PVTZ AUX)
	 Singles Energy            =      -0.0000000000000000 [Eh]
	 Same-Spin Energy          =      -0.0815841904182458 [Eh]
	 Opposite-Spin Energy      =      -0.2263671786926124 [Eh]
	 Correlation Energy        =      -0.3079513691108582 [Eh]
	 Total Energy              =     -99.7587732852005615 [Eh]
	 SCS Total Energy          =     -99.7496572606602570 [Eh]
                               Psi4 1.9 release
    Molecular point group: c1

    Geometry (in Bohr), charge = -2, multiplicity = 1:

       Center              X                  Y                   Z               Mass
    ------------   -----------------  -----------------  -----------------  -----------------
         F            0.000000000000     0.000000000000     0.000000000000    18.998403162730
         BR           6.217198952756     0.000000000000     0.000000000000    78.918337600000

  Charge       = -2
  Multiplicity = 1
  Basis Set: AUG-CC-PVTZ
    Blend: AUG-CC-PVTZ
  Basis Set: (AUG-CC-PVTZ AUX)
    Blend: AUG-CC-PVTZ-JKFIT

    Orbital Energies [Eh]
    ---------------------

    Doubly Occupied:

       1A   -489.577551     2A    -64.717371     3A    -58.071833
       4A    -58.071833     5A    -58.071792     6A    -25.699093
       7A     -9.389552     8A     -6.996898     9A     -6.996898
      10A     -6.996475    11A     -2.738817    12A     -2.738817
      13A     -2.738309    14A     -2.738309    15A     -2.738139
      16A     -0.941633    17A     -0.539596    18A     -0.051232
      19A     -0.046521    20A     -0.046521    21A      0.005464
      22A      0.005464    23A      0.018981

  @DF-RHF Final Energy: -2671.83709396769564

   => Energetics <=

    Nuclear Repulsion Energy =             50.6659031492553140
    One-Electron Energy =               -3845.2514294112679636
    Two-Electron Energy =                1122.7484322943168991
    Total Energy =                      -2671.8370939676956368
 Dipole X            :       -224.5012894          217.6019633           -6.8993260
 Dipole Y            :          0.0000000            0.0000000            0.0000000
 Dipole Z            :         -0.0000000            0.0000000           -0.0000000
 Magnitude           :                                                    6.8993260
  Basis Set: (AUG-CC-PVTZ AUX)
    Blend: AUG-CC-PVTZ-RI
	 Reference Energy          =   -2671.8370939676956368 [Eh]
	 Singles Energy            =      -0.0000000000000000 [Eh]
	 Same-Spin Energy          =      -0.1698249168177348 [Eh]
	 Opposite-Spin Energy      =      -0.4298222462777908 [Eh]
	 Correlation Energy        =      -0.5996471630955256 [Eh]
	 Total Energy              =   -2672.4367411307912334 [Eh]

	 ================> DF-SCS-MP2 Energies <==================
	-----------------------------------------------------------
	 SCS Same-Spin Scale       =       0.3333333333333333 [-]
	 SCS Opposite-Spin Scale   =       1.2000000000000000 [-]
	 SCS Same-Spin Energy      =      -0.0566083056059116 [Eh]
	 SCS Opposite-Spin Energy  =      -0.5157866955333489 [Eh]
	 SCS Correlation Energy    =      -0.5723950011392605 [Eh]
	 SCS Total Energy          =   -2672.4094889688349213 [Eh]
	-----------------------------------------------------------

*** Psi4 exiting successfully. Buy a developer a beer!
