                               Psi4 1.9 release

  ==> Input File <==

--------------------------------------------------------------------------
MEMORY 60 GB

molecule dimer {
-1 1
F      0.000000     0.000000     0.000000
--
-1 1
Br     3.948000     0.000000     0.000000

units ang
no_reorient
no_com
symmetry c1
}

set {
basis        aug-cc-pVTZ
scf_type     df
}

energy("mp2", bsse_type="cp")
--------------------------------------------------------------------------

                               Psi4 1.9 release
    Molecular point group: c1
  Charge       = -1
  Multiplicity = 1
  Basis Set: AUG-CC-PVTZ
    Blend: AUG-CC-PVTZ
  Basis Set: (AUG-CC-PVTZ AUX)
    Blend: AUG-CC-PVTZ-JKFIT
  @DF-RHF Final Energy: -2572.53366793218765
    Total Energy =                      -2572.5336679321876545
 Dipole X            :       -268.5829835          261.1223560           -7.4606275
 Dipole Y            :          0.0000000            0.0000000            0.0000000
 Dipole Z            :         -0.0000000            0.0000000           -0.0000000
 Magnitude           :                                                    7.4606275
  Basis Set: (AUG-CC-PVTZ AUX)
    Blend: AUG-CC-PVTZ-RI
	 Reference Energy          =   -2572.5336679321876545 [Eh]
	 Singles Energy            =      -0.0000000000000000 [Eh]
	 Same-Spin Energy          =      -0.0867328141074042 [Eh]
	 Opposite-Spin Energy      =      -0.2011114380051293 [Eh]
	 Correlation Energy        =      -0.2878442521125335 [Eh]
	 Total Energy              =   -2572.8215121842999906 [Eh]
	 SCS Total Energy          =   -2572.8039125958293880 [Eh]
                               Psi4 1.9 release
    Molecular point group: c1
  Multiplicity = 1
  Basis Set: AUG-CC-PVTZ
    Blend: AUG-CC-PVTZ
  Basis Set: (AUG-CC-PVTZ AUX)
    Blend: AUG-CC-PVTZ-JKFIT
  @DF-RHF Final Energy:   -99.45081521858684
    Total Energy =                        -99.4508152185868397
  Basis Set: (AUG-CC-PVTZ AUX)
	 Singles Energy            =      -0.0000000000000000 [Eh]
	 Same-Spin Energy          =      -0.0815693249785636 [Eh]
	 Opposite-Spin Energy      =      -0.2262687103562959 [Eh]
	 Correlation Energy        =      -0.3078380353348594 [Eh]
	 Total Energy              =     -99.7586532539216932 [Eh]
	 SCS Total Energy          =     -99.7495274460072494 [Eh]
                               Psi4 1.9 release
    Molecular point group: c1

    Geometry (in Bohr), charge = -2, multiplicity = 1:

       Center              X                  Y                   Z               Mass
    ------------   -----------------  -----------------  -----------------  -----------------
         F            0.000000000000     0.000000000000     0.000000000000    18.998403162730
         BR           7.460638743308     0.000000000000     0.000000000000    78.918337600000

  Charge       = -2
  Multiplicity = 1
  Basis Set: AUG-CC-PVTZ
    Blend: AUG-CC-PVTZ
  Basis Set: (AUG-CC-PVTZ AUX)
    Blend: AUG-CC-PVTZ-JKFIT

    Orbital Energies [Eh]
    ---------------------

    Doubly Occupied:

       1A   -489.595941     2A    -64.735860     3A    -58.090336
       4A    -58.090336     5A    -58.090293     6A    -25.713488
       7A     -9.408113     8A     -7.015496     9A     -7.015496
      10A     -7.015156    11A     -2.757346    12A     -2.757346
      13A     -2.756948    14A     -2.756948    15A     -2.756810
      16A     -0.955425    17A     -0.559449    18A     -0.061056
      19A     -0.060339    20A     -0.060339    21A     -0.014001
      22A     -0.014001    23A     -0.007720

  @DF-RHF Final Energy: -2671.85794104846582

   => Energetics <=

    Nuclear Repulsion Energy =             42.2215859577127688
    One-Electron Energy =               -3827.5825740478730950
    Two-Electron Energy =                1113.5030470416947992
    Total Energy =                      -2671.8579410484653636
 Dipole X            :       -269.0795823          261.1223560           -7.9572263
 Dipole Y            :          0.0000000            0.0000000            0.0000000
 Dipole Z            :         -0.0000000            0.0000000           -0.0000000
 Magnitude           :                                                    7.9572263
  Basis Set: (AUG-CC-PVTZ AUX)
    Blend: AUG-CC-PVTZ-RI
	 Reference Energy          =   -2671.8579410484658183 [Eh]
	 Singles Energy            =      -0.0000000000000000 [Eh]
	 Same-Spin Energy          =      -0.1688886393644957 [Eh]
	 Opposite-Spin Energy      =      -0.4283853011556816 [Eh]
	 Correlation Energy        =      -0.5972739405201773 [Eh]
	 Total Energy              =   -2672.4552149889859720 [Eh]

	 ================> DF-SCS-MP2 Energies <==================
	-----------------------------------------------------------
	 SCS Same-Spin Scale       =       0.3333333333333333 [-]
	 SCS Opposite-Spin Scale   =       1.2000000000000000 [-]
	 SCS Same-Spin Energy      =      -0.0562962131214986 [Eh]
	 SCS Opposite-Spin Energy  =      -0.5140623613868179 [Eh]
	 SCS Correlation Energy    =      -0.5703585745083165 [Eh]
	 SCS Total Energy          =   -2672.4282996229740093 [Eh]
	-----------------------------------------------------------

*** Psi4 exiting successfully. Buy a developer a beer!
