                               Psi4 1.9 release

  ==> Input File <==

--------------------------------------------------------------------------
MEMORY 60 GB

molecule dimer {
-1 1
F      0.000000     0.000000     0.000000
--
-1 1
Br     3.619000     0.000000     0.000000

units ang
no_reorient
no_com
symmetry c1
}

set {
basis        aug-cc-pVTZ
scf_type     df
}

energy("mp2", bsse_type="cp")
--------------------------------------------------------------------------

                               Psi4 1.9 release
    Molecular point group: c1
  Charge       = -1
  Multiplicity = 1
  Basis Set: AUG-CC-PVTZ
    Blend: AUG-CC-PVTZ
  Basis Set: (AUG-CC-PVTZ AUX)
    Blend: AUG-CC-PVTZ-JKFIT
  @DF-RHF Final Energy: -2572.53366874515950
    Total Energy =                      -2572.5336687451599573
 Dipole X            :       -246.2009317          239.3621597           -6.8387721
 Dipole Y            :         -0.0000000            0.0000000           -0.0000000
 Dipole Z            :         -0.0000000            0.0000000           -0.0000000
 Magnitude           :                                                    6.8387721
  Basis Set: (AUG-CC-PVTZ AUX)
    Blend: AUG-CC-PVTZ-RI
	 Reference Energy          =   -2572.5336687451595026 [Eh]
	 Singles Energy            =      -0.0000000000000000 [Eh]
	 Same-Spin Energy          =      -0.0867731215171551 [Eh]
	 Opposite-Spin Energy      =      -0.2012010796447744 [Eh]
	 Correlation Energy        =      -0.2879742011619295 [Eh]
	 Total Energy              =   -2572.8216429463213899 [Eh]
	 SCS Total Energy          =   -2572.8040344145724703 [Eh]
                               Psi4 1.9 release
    Molecular point group: c1
  Multiplicity = 1
  Basis Set: AUG-CC-PVTZ
    Blend: AUG-CC-PVTZ
  Basis Set: (AUG-CC-PVTZ AUX)
    Blend: AUG-CC-PVTZ-JKFIT
  @DF-RHF Final Energy:   -99.45081938189797
    Total Energy =                        -99.4508193818979862
  Basis Set: (AUG-CC-PVTZ AUX)
	 Singles Energy            =      -0.0000000000000000 [Eh]
	 Same-Spin Energy          =      -0.0815743409409932 [Eh]
	 Opposite-Spin Energy      =      -0.2263100085791988 [Eh]
	 Correlation Energy        =      -0.3078843495201919 [Eh]
	 Total Energy              =     -99.7587037314181657 [Eh]
	 SCS Total Energy          =     -99.7495828391733426 [Eh]
                               Psi4 1.9 release
    Molecular point group: c1

    Geometry (in Bohr), charge = -2, multiplicity = 1:

       Center              X                  Y                   Z               Mass
    ------------   -----------------  -----------------  -----------------  -----------------
         F            0.000000000000     0.000000000000     0.000000000000    18.998403162730
         BR           6.838918848032     0.000000000000     0.000000000000    78.918337600000

  Charge       = -2
  Multiplicity = 1
  Basis Set: AUG-CC-PVTZ
    Blend: AUG-CC-PVTZ
  Basis Set: (AUG-CC-PVTZ AUX)
    Blend: AUG-CC-PVTZ-JKFIT

    Orbital Energies [Eh]
    ---------------------

    Doubly Occupied:

       1A   -489.587242     2A    -64.727114     3A    -58.081586
       4A    -58.081586     5A    -58.081541     6A    -25.706401
       7A     -9.399326     8A     -7.006699     9A     -7.006699
      10A     -7.006313    11A     -2.748583    12A     -2.748583
      13A     -2.748127    14A     -2.748127    15A     -2.747969
      16A     -0.948445    17A     -0.550085    18A     -0.055314
      19A     -0.053342    20A     -0.053342    21A     -0.004856
      22A     -0.004856    23A      0.004049

  @DF-RHF Final Energy: -2671.84837611329067

   => Energetics <=

    Nuclear Repulsion Energy =             46.0599119538684718
    One-Electron Energy =               -3835.6324030384948855
    Two-Electron Energy =                1117.7241149713361210
    Total Energy =                      -2671.8483761132902146
 Dipole X            :       -246.7784314          239.3621597           -7.4162718
 Dipole Y            :          0.0000000            0.0000000            0.0000000
 Dipole Z            :          0.0000000            0.0000000            0.0000000
 Magnitude           :                                                    7.4162718
  Basis Set: (AUG-CC-PVTZ AUX)
    Blend: AUG-CC-PVTZ-RI
	 Reference Energy          =   -2671.8483761132906693 [Eh]
	 Singles Energy            =      -0.0000000000000000 [Eh]
	 Same-Spin Energy          =      -0.1692482036225386 [Eh]
	 Opposite-Spin Energy      =      -0.4289599159558943 [Eh]
	 Correlation Energy        =      -0.5982081195784329 [Eh]
	 Total Energy              =   -2672.4465842328690997 [Eh]

	 ================> DF-SCS-MP2 Energies <==================
	-----------------------------------------------------------
	 SCS Same-Spin Scale       =       0.3333333333333333 [-]
	 SCS Opposite-Spin Scale   =       1.2000000000000000 [-]
	 SCS Same-Spin Energy      =      -0.0564160678741795 [Eh]
	 SCS Opposite-Spin Energy  =      -0.5147518991470732 [Eh]
	 SCS Correlation Energy    =      -0.5711679670212527 [Eh]
	 SCS Total Energy          =   -2672.4195440803118800 [Eh]
	-----------------------------------------------------------

*** Psi4 exiting successfully. Buy a developer a beer!
