                               Psi4 1.9 release

  ==> Input File <==

--------------------------------------------------------------------------
MEMORY 60 GB

molecule dimer {
-1 1
F      0.000000     0.000000     0.000000
--
-1 1
Br     4.277000     0.000000     0.000000

units ang
no_reorient
no_com
symmetry c1
}

set {
basis        aug-cc-pVTZ
scf_type     df
}

energy("mp2", bsse_type="cp")
--------------------------------------------------------------------------

                               Psi4 1.9 release
    Molecular point group: c1
  Charge       = -1
  Multiplicity = 1
  Basis Set: AUG-CC-PVTZ
    Blend: AUG-CC-PVTZ
  Basis Set: (AUG-CC-PVTZ AUX)
    Blend: AUG-CC-PVTZ-JKFIT
  @DF-RHF Final Energy: -2572.53366702065750
    Total Energy =                      -2572.5336670206575036
 Dipole X            :       -290.9649407          282.8825524           -8.0823884
 Dipole Y            :          0.0000000            0.0000000            0.0000000
 Dipole Z            :         -0.0000000            0.0000000           -0.0000000
 Magnitude           :                                                    8.0823884
  Basis Set: (AUG-CC-PVTZ AUX)
    Blend: AUG-CC-PVTZ-RI
	 Reference Energy          =   -2572.5336670206575036 [Eh]
	 Singles Energy            =      -0.0000000000000000 [Eh]
	 Same-Spin Energy          =      -0.0867054718133936 [Eh]
	 Opposite-Spin Energy      =      -0.2010533401123398 [Eh]
	 Correlation Energy        =      -0.2877588119257335 [Eh]
	 Total Energy              =   -2572.8214258325833725 [Eh]
	 SCS Total Energy          =   -2572.8038328527300109 [Eh]
                               Psi4 1.9 release
    Molecular point group: c1
  Multiplicity = 1
  Basis Set: AUG-CC-PVTZ
    Blend: AUG-CC-PVTZ
  Basis Set: (AUG-CC-PVTZ AUX)
    Blend: AUG-CC-PVTZ-JKFIT
  @DF-RHF Final Energy:   -99.45081198233082
    Total Energy =                        -99.4508119823308334
  Basis Set: (AUG-CC-PVTZ AUX)
	 Singles Energy            =      -0.0000000000000000 [Eh]
	 Same-Spin Energy          =      -0.0815664477330434 [Eh]
	 Opposite-Spin Energy      =      -0.2262356988540826 [Eh]
	 Correlation Energy        =      -0.3078021465871260 [Eh]
	 Total Energy              =     -99.7586141289179409 [Eh]
	 SCS Total Energy          =     -99.7494836368667279 [Eh]
                               Psi4 1.9 release
    Molecular point group: c1

    Geometry (in Bohr), charge = -2, multiplicity = 1:

       Center              X                  Y                   Z               Mass
    ------------   -----------------  -----------------  -----------------  -----------------
         F            0.000000000000     0.000000000000     0.000000000000    18.998403162730
         BR           8.082358638583     0.000000000000     0.000000000000    78.918337600000

  Charge       = -2
  Multiplicity = 1
  Basis Set: AUG-CC-PVTZ
    Blend: AUG-CC-PVTZ
  Basis Set: (AUG-CC-PVTZ AUX)
    Blend: AUG-CC-PVTZ-JKFIT

    Orbital Energies [Eh]
    ---------------------

    Doubly Occupied:

       1A   -489.603744     2A    -64.743704     3A    -58.098181
       4A    -58.098181     5A    -58.098141     6A    -25.720188
       7A     -9.415995     8A     -7.023381     9A     -7.023381
      10A     -7.023086    11A     -2.765203    12A     -2.765203
      13A     -2.764857    14A     -2.764857    15A     -2.764738
      16A     -0.962156    17A     -0.567779    18A     -0.067279
      19A     -0.067078    20A     -0.067078    21A     -0.022132
      22A     -0.022132    23A     -0.017446

  @DF-RHF Final Energy: -2671.86631508603432

   => Energetics <=

    Nuclear Repulsion Energy =             38.9737716532733245
    One-Electron Energy =               -3820.7483395246172222
    Two-Electron Energy =                1109.9082527853097417
    Total Energy =                      -2671.8663150860343194
 Dipole X            :       -291.3961295          282.8825524           -8.5135772
 Dipole Y            :         -0.0000000            0.0000000           -0.0000000
 Dipole Z            :         -0.0000000            0.0000000           -0.0000000
 Magnitude           :                                                    8.5135772
  Basis Set: (AUG-CC-PVTZ AUX)
    Blend: AUG-CC-PVTZ-RI
	 Reference Energy          =   -2671.8663150860343194 [Eh]
	 Singles Energy            =      -0.0000000000000000 [Eh]
	 Same-Spin Energy          =      -0.1686606637446581 [Eh]
	 Opposite-Spin Energy      =      -0.4279945656438733 [Eh]
	 Correlation Energy        =      -0.5966552293885314 [Eh]
	 Total Energy              =   -2672.4629703154228082 [Eh]

	 ================> DF-SCS-MP2 Energies <==================
	-----------------------------------------------------------
	 SCS Same-Spin Scale       =       0.3333333333333333 [-]
	 SCS Opposite-Spin Scale   =       1.2000000000000000 [-]
	 SCS Same-Spin Energy      =      -0.0562202212482194 [Eh]
	 SCS Opposite-Spin Energy  =      -0.5135934787726479 [Eh]
	 SCS Correlation Energy    =      -0.5698137000208673 [Eh]
	 SCS Total Energy          =   -2672.4361287860551784 [Eh]
	-----------------------------------------------------------

*** Psi4 exiting successfully. Buy a developer a beer!
