                               Psi4 1.9 release

  ==> Input File <==

--------------------------------------------------------------------------
MEMORY 60 GB

molecule dimer {
-1 1
F      0.000000     0.000000     0.000000
--
-1 1
Br     4.935000     0.000000     0.000000

units ang
no_reorient
no_com
symmetry c1
}

set {
basis        aug-cc-pVTZ
scf_type     df
}

energy("mp2", bsse_type="cp")
--------------------------------------------------------------------------

                               Psi4 1.9 release
    Molecular point group: c1
  Charge       = -1
  Multiplicity = 1
  Basis Set: AUG-CC-PVTZ
    Blend: AUG-CC-PVTZ
  Basis Set: (AUG-CC-PVTZ AUX)
    Blend: AUG-CC-PVTZ-JKFIT
  @DF-RHF Final Energy: -2572.53366647411985
    Total Energy =                      -2572.5336664741198547
 Dipole X            :       -335.7287269          326.4029450           -9.3257819
 Dipole Y            :         -0.0000000            0.0000000           -0.0000000
 Dipole Z            :         -0.0000000            0.0000000           -0.0000000
 Magnitude           :                                                    9.3257819
  Basis Set: (AUG-CC-PVTZ AUX)
    Blend: AUG-CC-PVTZ-RI
	 Reference Energy          =   -2572.5336664741198547 [Eh]
	 Singles Energy            =      -0.0000000000000000 [Eh]
	 Same-Spin Energy          =      -0.0866754415211044 [Eh]
	 Opposite-Spin Energy      =      -0.2009909146993747 [Eh]
	 Correlation Energy        =      -0.2876663562204791 [Eh]
	 Total Energy              =   -2572.8213328303404523 [Eh]
	 SCS Total Energy          =   -2572.8037473855993085 [Eh]
                               Psi4 1.9 release
    Molecular point group: c1
  Multiplicity = 1
  Basis Set: AUG-CC-PVTZ
    Blend: AUG-CC-PVTZ
  Basis Set: (AUG-CC-PVTZ AUX)
    Blend: AUG-CC-PVTZ-JKFIT
  @DF-RHF Final Energy:   -99.45081032611503
    Total Energy =                        -99.4508103261150325
  Basis Set: (AUG-CC-PVTZ AUX)
	 Singles Energy            =      -0.0000000000000000 [Eh]
	 Same-Spin Energy          =      -0.0815610132467441 [Eh]
	 Opposite-Spin Energy      =      -0.2261861446814074 [Eh]
	 Correlation Energy        =      -0.3077471579281515 [Eh]
	 Total Energy              =     -99.7585574840431804 [Eh]
	 SCS Total Energy          =     -99.7494207041483065 [Eh]
                               Psi4 1.9 release
    Molecular point group: c1

    Geometry (in Bohr), charge = -2, multiplicity = 1:

       Center              X                  Y                   Z               Mass
    ------------   -----------------  -----------------  -----------------  -----------------
         F            0.000000000000     0.000000000000     0.000000000000    18.998403162730
         BR           9.325798429134     0.000000000000     0.000000000000    78.918337600000

  Charge       = -2
  Multiplicity = 1
  Basis Set: AUG-CC-PVTZ
    Blend: AUG-CC-PVTZ
  Basis Set: (AUG-CC-PVTZ AUX)
    Blend: AUG-CC-PVTZ-JKFIT

    Orbital Energies [Eh]
    ---------------------

    Doubly Occupied:

       1A   -489.617084     2A    -64.757105     3A    -58.111580
       4A    -58.111580     5A    -58.111547     6A    -25.732230
       7A     -9.429455     8A     -7.036840     9A     -7.036840
      10A     -7.036614    11A     -2.778621    12A     -2.778621
      13A     -2.778356    14A     -2.778356    15A     -2.778265
      16A     -0.974336    17A     -0.581834    18A     -0.079255
      19A     -0.079255    20A     -0.079237    21A     -0.035883
      22A     -0.035883    23A     -0.032988

  @DF-RHF Final Energy: -2671.88039497129876

   => Energetics <=

    Nuclear Repulsion Energy =             33.7772687661702165
    One-Electron Energy =               -3809.7717990910164190
    Two-Electron Energy =                1104.1141353535474536
    Total Energy =                      -2671.8803949712983012
 Dipole X            :       -336.0605234          326.4029450           -9.6575783
 Dipole Y            :          0.0000000            0.0000000            0.0000000
 Dipole Z            :          0.0000000            0.0000000            0.0000000
 Magnitude           :                                                    9.6575783
  Basis Set: (AUG-CC-PVTZ AUX)
    Blend: AUG-CC-PVTZ-RI
	 Reference Energy          =   -2671.8803949712987560 [Eh]
	 Singles Energy            =      -0.0000000000000000 [Eh]
	 Same-Spin Energy          =      -0.1684151856705154 [Eh]
	 Opposite-Spin Energy      =      -0.4275359407803511 [Eh]
	 Correlation Energy        =      -0.5959511264508666 [Eh]
	 Total Energy              =   -2672.4763460977496834 [Eh]

	 ================> DF-SCS-MP2 Energies <==================
	-----------------------------------------------------------
	 SCS Same-Spin Scale       =       0.3333333333333333 [-]
	 SCS Opposite-Spin Scale   =       1.2000000000000000 [-]
	 SCS Same-Spin Energy      =      -0.0561383952235051 [Eh]
	 SCS Opposite-Spin Energy  =      -0.5130431289364212 [Eh]
	 SCS Correlation Energy    =      -0.5691815241599264 [Eh]
	 SCS Total Energy          =   -2672.4495764954585866 [Eh]
	-----------------------------------------------------------

*** Psi4 exiting successfully. Buy a developer a beer!
