                               Psi4 1.9 release

  ==> Input File <==

--------------------------------------------------------------------------
MEMORY 60 GB

molecule dimer {
-1 1
Cl     0.000000     0.000000     0.000000
--
-1 1
Cl     4.706000     0.000000     0.000000

units ang
no_reorient
no_com
symmetry c1
}

set {
basis        aug-cc-pVTZ
scf_type     df
}

energy("mp2", bsse_type="cp")
--------------------------------------------------------------------------

                               Psi4 1.9 release
    Molecular point group: c1
  Charge       = -1
  Multiplicity = 1
  Basis Set: AUG-CC-PVTZ
    Blend: AUG-CC-PVTZ
  Basis Set: (AUG-CC-PVTZ AUX)
    Blend: AUG-CC-PVTZ-JKFIT
  @DF-RHF Final Energy:  -459.57348393788152
    Total Energy =                       -459.5734839378815195
 Dipole X            :       -160.0748313          151.1818695           -8.8929619
 Dipole Y            :         -0.0000000            0.0000000           -0.0000000
 Dipole Z            :          0.0000000            0.0000000            0.0000000
 Magnitude           :                                                    8.8929619
  Basis Set: (AUG-CC-PVTZ AUX)
    Blend: AUG-CC-PVTZ-RI
	 Reference Energy          =    -459.5734839378815195 [Eh]
	 Singles Energy            =      -0.0000000000000000 [Eh]
	 Same-Spin Energy          =      -0.0622771286776569 [Eh]
	 Opposite-Spin Energy      =      -0.1786703413496119 [Eh]
	 Correlation Energy        =      -0.2409474700272688 [Eh]
	 Total Energy              =    -459.8144314079087849 [Eh]
	 SCS Total Energy          =    -459.8086473903936167 [Eh]
                               Psi4 1.9 release
    Molecular point group: c1
  Multiplicity = 1
  Basis Set: AUG-CC-PVTZ
    Blend: AUG-CC-PVTZ
  Basis Set: (AUG-CC-PVTZ AUX)
    Blend: AUG-CC-PVTZ-JKFIT
  @DF-RHF Final Energy:  -459.57348393785094
    Total Energy =                       -459.5734839378509378
  Basis Set: (AUG-CC-PVTZ AUX)
	 Singles Energy            =      -0.0000000000000000 [Eh]
	 Same-Spin Energy          =      -0.0622771286776727 [Eh]
	 Opposite-Spin Energy      =      -0.1786703413496417 [Eh]
	 Correlation Energy        =      -0.2409474700273145 [Eh]
	 Total Energy              =    -459.8144314078782600 [Eh]
	 SCS Total Energy          =    -459.8086473903630917 [Eh]
                               Psi4 1.9 release
    Molecular point group: c1

    Geometry (in Bohr), charge = -2, multiplicity = 1:

       Center              X                  Y                   Z               Mass
    ------------   -----------------  -----------------  -----------------  -----------------
         CL           0.000000000000     0.000000000000     0.000000000000    34.968852682000
         CL           8.893051146405     0.000000000000     0.000000000000    34.968852682000

  Charge       = -2
  Multiplicity = 1
  Basis Set: AUG-CC-PVTZ
    Blend: AUG-CC-PVTZ
  Basis Set: (AUG-CC-PVTZ AUX)
    Blend: AUG-CC-PVTZ-JKFIT

    Orbital Energies [Eh]
    ---------------------

    Doubly Occupied:

       1A   -104.400482     2A   -104.400482     3A    -10.124065
       4A    -10.124065     5A     -7.590094     6A     -7.590094
       7A     -7.590094     8A     -7.590094     9A     -7.590039
      10A     -7.590039    11A     -0.627337    12A     -0.626853
      13A     -0.046339    14A     -0.045166    15A     -0.045166
      16A     -0.043713    17A     -0.043713    18A     -0.038289

  @DF-RHF Final Energy:  -919.03882662984063

   => Energetics <=

    Nuclear Repulsion Energy =             32.4972830181959154
    One-Electron Energy =               -1350.8599774408248777
    Two-Electron Energy =                 399.3238677927882918
    Total Energy =                       -919.0388266298406279
 Dipole X            :       -160.0749206          151.1818695           -8.8930511
 Dipole Y            :         -0.0000000            0.0000000           -0.0000000
 Dipole Z            :         -0.0000000            0.0000000           -0.0000000
 Magnitude           :                                                    8.8930511
  Basis Set: (AUG-CC-PVTZ AUX)
    Blend: AUG-CC-PVTZ-RI
	 Reference Energy          =    -919.0388266298406279 [Eh]
	 Singles Energy            =      -0.0000000000000000 [Eh]
	 Same-Spin Energy          =      -0.1249984567724850 [Eh]
	 Opposite-Spin Energy      =      -0.3580280349742456 [Eh]
	 Correlation Energy        =      -0.4830264917467306 [Eh]
	 Total Energy              =    -919.5218531215873554 [Eh]

	 ================> DF-SCS-MP2 Energies <==================
	-----------------------------------------------------------
	 SCS Same-Spin Scale       =       0.3333333333333333 [-]
	 SCS Opposite-Spin Scale   =       1.2000000000000000 [-]
	 SCS Same-Spin Energy      =      -0.0416661522574950 [Eh]
	 SCS Opposite-Spin Energy  =      -0.4296336419690948 [Eh]
	 SCS Correlation Energy    =      -0.4712997942265897 [Eh]
	 SCS Total Energy          =    -919.5101264240672663 [Eh]
	-----------------------------------------------------------

*** Psi4 exiting successfully. Buy a developer a beer!
