                               Psi4 1.9 release

  ==> Input File <==

--------------------------------------------------------------------------
MEMORY 60 GB

molecule dimer {
-1 1
Cl     0.000000     0.000000     0.000000
--
-1 1
Cl     7.240000     0.000000     0.000000

units ang
no_reorient
no_com
symmetry c1
}

set {
basis        aug-cc-pVTZ
scf_type     df
}

energy("mp2", bsse_type="cp")
--------------------------------------------------------------------------

                               Psi4 1.9 release
    Molecular point group: c1
  Charge       = -1
  Multiplicity = 1
  Basis Set: AUG-CC-PVTZ
    Blend: AUG-CC-PVTZ
  Basis Set: (AUG-CC-PVTZ AUX)
    Blend: AUG-CC-PVTZ-JKFIT
  @DF-RHF Final Energy:  -459.57348205239998
    Total Energy =                       -459.5734820523999815
 Dipole X            :       -246.2691745          232.5874915          -13.6816830
 Dipole Y            :          0.0000000            0.0000000            0.0000000
 Dipole Z            :          0.0000000            0.0000000            0.0000000
 Magnitude           :                                                   13.6816830
  Basis Set: (AUG-CC-PVTZ AUX)
    Blend: AUG-CC-PVTZ-RI
	 Reference Energy          =    -459.5734820523999815 [Eh]
	 Singles Energy            =      -0.0000000000000000 [Eh]
	 Same-Spin Energy          =      -0.0622579081598369 [Eh]
	 Opposite-Spin Energy      =      -0.1786066019028189 [Eh]
	 Correlation Energy        =      -0.2408645100626557 [Eh]
	 Total Energy              =    -459.8143465624626174 [Eh]
	 SCS Total Energy          =    -459.8085626107366579 [Eh]
                               Psi4 1.9 release
    Molecular point group: c1
  Multiplicity = 1
  Basis Set: AUG-CC-PVTZ
    Blend: AUG-CC-PVTZ
  Basis Set: (AUG-CC-PVTZ AUX)
    Blend: AUG-CC-PVTZ-JKFIT
  @DF-RHF Final Energy:  -459.57348205241288
    Total Energy =                       -459.5734820524128281
  Basis Set: (AUG-CC-PVTZ AUX)
	 Singles Energy            =      -0.0000000000000000 [Eh]
	 Same-Spin Energy          =      -0.0622579081598281 [Eh]
	 Opposite-Spin Energy      =      -0.1786066019027995 [Eh]
	 Correlation Energy        =      -0.2408645100626276 [Eh]
	 Total Energy              =    -459.8143465624755208 [Eh]
	 SCS Total Energy          =    -459.8085626107495045 [Eh]
                               Psi4 1.9 release
    Molecular point group: c1

    Geometry (in Bohr), charge = -2, multiplicity = 1:

       Center              X                  Y                   Z               Mass
    ------------   -----------------  -----------------  -----------------  -----------------
         CL           0.000000000000     0.000000000000     0.000000000000    34.968852682000
         CL          13.681617148315     0.000000000000     0.000000000000    34.968852682000

  Charge       = -2
  Multiplicity = 1
  Basis Set: AUG-CC-PVTZ
    Blend: AUG-CC-PVTZ
  Basis Set: (AUG-CC-PVTZ AUX)
    Blend: AUG-CC-PVTZ-JKFIT

    Orbital Energies [Eh]
    ---------------------

    Doubly Occupied:

       1A   -104.433988     2A   -104.433988     3A    -10.157747
       4A    -10.157747     5A     -7.623779     6A     -7.623779
       7A     -7.623779     8A     -7.623779     9A     -7.623758
      10A     -7.623757    11A     -0.661405    12A     -0.661402
      13A     -0.078420    14A     -0.078420    15A     -0.078376
      16A     -0.078376    17A     -0.077995    18A     -0.077649

  @DF-RHF Final Energy:  -919.07461900021588

   => Energetics <=

    Nuclear Repulsion Energy =             21.1232339618273492
    One-Electron Energy =               -1326.9594227307620713
    Two-Electron Energy =                 386.7615697687189140
    Total Energy =                       -919.0746190002158755
 Dipole X            :       -246.2691087          232.5874915          -13.6816171
 Dipole Y            :         -0.0000000            0.0000000           -0.0000000
 Dipole Z            :          0.0000000            0.0000000            0.0000000
 Magnitude           :                                                   13.6816171
  Basis Set: (AUG-CC-PVTZ AUX)
    Blend: AUG-CC-PVTZ-RI
	 Reference Energy          =    -919.0746190002158755 [Eh]
	 Singles Energy            =      -0.0000000000000000 [Eh]
	 Same-Spin Energy          =      -0.1245532847271757 [Eh]
	 Opposite-Spin Energy      =      -0.3572889282192389 [Eh]
	 Correlation Energy        =      -0.4818422129464145 [Eh]
	 Total Energy              =    -919.5564612131622653 [Eh]

	 ================> DF-SCS-MP2 Energies <==================
	-----------------------------------------------------------
	 SCS Same-Spin Scale       =       0.3333333333333333 [-]
	 SCS Opposite-Spin Scale   =       1.2000000000000000 [-]
	 SCS Same-Spin Energy      =      -0.0415177615757252 [Eh]
	 SCS Opposite-Spin Energy  =      -0.4287467138630866 [Eh]
	 SCS Correlation Energy    =      -0.4702644754388118 [Eh]
	 SCS Total Energy          =    -919.5448834756547285 [Eh]
	-----------------------------------------------------------

*** Psi4 exiting successfully. Buy a developer a beer!
