                               Psi4 1.9 release

  ==> Input File <==

--------------------------------------------------------------------------
MEMORY 60 GB

molecule dimer {
-1 1
Cl     0.000000     0.000000     0.000000
--
-1 1
Cl     3.982000     0.000000     0.000000

units ang
no_reorient
no_com
symmetry c1
}

set {
basis        aug-cc-pVTZ
scf_type     df
}

energy("mp2", bsse_type="cp")
--------------------------------------------------------------------------

                               Psi4 1.9 release
    Molecular point group: c1
  Charge       = -1
  Multiplicity = 1
  Basis Set: AUG-CC-PVTZ
    Blend: AUG-CC-PVTZ
  Basis Set: (AUG-CC-PVTZ AUX)
    Blend: AUG-CC-PVTZ-JKFIT
  @DF-RHF Final Energy:  -459.57348582092192
    Total Energy =                       -459.5734858209218601
 Dipole X            :       -135.4483065          127.9231203           -7.5251861
 Dipole Y            :          0.0000000            0.0000000            0.0000000
 Dipole Z            :         -0.0000000            0.0000000           -0.0000000
 Magnitude           :                                                    7.5251861
  Basis Set: (AUG-CC-PVTZ AUX)
    Blend: AUG-CC-PVTZ-RI
	 Reference Energy          =    -459.5734858209219169 [Eh]
	 Singles Energy            =      -0.0000000000000000 [Eh]
	 Same-Spin Energy          =      -0.0623031994541163 [Eh]
	 Opposite-Spin Energy      =      -0.1787534561644914 [Eh]
	 Correlation Energy        =      -0.2410566556186077 [Eh]
	 Total Energy              =    -459.8145424765405096 [Eh]
	 SCS Total Energy          =    -459.8087577014706540 [Eh]
                               Psi4 1.9 release
    Molecular point group: c1
  Multiplicity = 1
  Basis Set: AUG-CC-PVTZ
    Blend: AUG-CC-PVTZ
  Basis Set: (AUG-CC-PVTZ AUX)
    Blend: AUG-CC-PVTZ-JKFIT
  @DF-RHF Final Energy:  -459.57348582091964
    Total Energy =                       -459.5734858209197000
  Basis Set: (AUG-CC-PVTZ AUX)
	 Singles Energy            =      -0.0000000000000000 [Eh]
	 Same-Spin Energy          =      -0.0623031994541181 [Eh]
	 Opposite-Spin Energy      =      -0.1787534561644949 [Eh]
	 Correlation Energy        =      -0.2410566556186131 [Eh]
	 Total Energy              =    -459.8145424765382359 [Eh]
	 SCS Total Energy          =    -459.8087577014684371 [Eh]
                               Psi4 1.9 release
    Molecular point group: c1

    Geometry (in Bohr), charge = -2, multiplicity = 1:

       Center              X                  Y                   Z               Mass
    ------------   -----------------  -----------------  -----------------  -----------------
         CL           0.000000000000     0.000000000000     0.000000000000    34.968852682000
         CL           7.524889431573     0.000000000000     0.000000000000    34.968852682000

  Charge       = -2
  Multiplicity = 1
  Basis Set: AUG-CC-PVTZ
    Blend: AUG-CC-PVTZ
  Basis Set: (AUG-CC-PVTZ AUX)
    Blend: AUG-CC-PVTZ-JKFIT

    Orbital Energies [Eh]
    ---------------------

    Doubly Occupied:

       1A   -104.385823     2A   -104.385823     3A    -10.109322
       4A    -10.109321     5A     -7.575333     6A     -7.575333
       7A     -7.575333     8A     -7.575333     9A     -7.575268
      10A     -7.575266    11A     -0.613102    12A     -0.610873
      13A     -0.036914    14A     -0.031664    15A     -0.031664
      16A     -0.027360    17A     -0.027360    18A     -0.015772

  @DF-RHF Final Energy:  -919.02169052319891

   => Energetics <=

    Nuclear Repulsion Energy =             38.4058799305951766
    One-Electron Energy =               -1363.1814155716954247
    Two-Electron Energy =                 405.7538451179013919
    Total Energy =                       -919.0216905231989131
 Dipole X            :       -135.4480098          127.9231203           -7.5248894
 Dipole Y            :          0.0000000            0.0000000            0.0000000
 Dipole Z            :         -0.0000000            0.0000000           -0.0000000
 Magnitude           :                                                    7.5248894
  Basis Set: (AUG-CC-PVTZ AUX)
    Blend: AUG-CC-PVTZ-RI
	 Reference Energy          =    -919.0216905231989131 [Eh]
	 Singles Energy            =      -0.0000000000000000 [Eh]
	 Same-Spin Energy          =      -0.1256896285677105 [Eh]
	 Opposite-Spin Energy      =      -0.3590369241125932 [Eh]
	 Correlation Energy        =      -0.4847265526803038 [Eh]
	 Total Energy              =    -919.5064170758791988 [Eh]

	 ================> DF-SCS-MP2 Energies <==================
	-----------------------------------------------------------
	 SCS Same-Spin Scale       =       0.3333333333333333 [-]
	 SCS Opposite-Spin Scale   =       1.2000000000000000 [-]
	 SCS Same-Spin Energy      =      -0.0418965428559035 [Eh]
	 SCS Opposite-Spin Energy  =      -0.4308443089351119 [Eh]
	 SCS Correlation Energy    =      -0.4727408517910154 [Eh]
	 SCS Total Energy          =    -919.4944313749899720 [Eh]
	-----------------------------------------------------------

*** Psi4 exiting successfully. Buy a developer a beer!
