                               Psi4 1.9 release

  ==> Input File <==

--------------------------------------------------------------------------
MEMORY 60 GB

molecule dimer {
-1 1
Cl     0.000000     0.000000     0.000000
--
-1 1
Cl     5.430000     0.000000     0.000000

units ang
no_reorient
no_com
symmetry c1
}

set {
basis        aug-cc-pVTZ
scf_type     df
}

energy("mp2", bsse_type="cp")
--------------------------------------------------------------------------

                               Psi4 1.9 release
    Molecular point group: c1
  Charge       = -1
  Multiplicity = 1
  Basis Set: AUG-CC-PVTZ
    Blend: AUG-CC-PVTZ
  Basis Set: (AUG-CC-PVTZ AUX)
    Blend: AUG-CC-PVTZ-JKFIT
  @DF-RHF Final Energy:  -459.57348279886088
    Total Energy =                       -459.5734827988608799
 Dipole X            :       -184.7019926          174.4406186          -10.2613739
 Dipole Y            :         -0.0000000            0.0000000           -0.0000000
 Dipole Z            :         -0.0000000            0.0000000           -0.0000000
 Magnitude           :                                                   10.2613739
  Basis Set: (AUG-CC-PVTZ AUX)
    Blend: AUG-CC-PVTZ-RI
	 Reference Energy          =    -459.5734827988608799 [Eh]
	 Singles Energy            =      -0.0000000000000000 [Eh]
	 Same-Spin Energy          =      -0.0622682574800243 [Eh]
	 Opposite-Spin Energy      =      -0.1786400903130223 [Eh]
	 Correlation Energy        =      -0.2409083477930466 [Eh]
	 Total Energy              =    -459.8143911466539180 [Eh]
	 SCS Total Energy          =    -459.8086069930631652 [Eh]
                               Psi4 1.9 release
    Molecular point group: c1
  Multiplicity = 1
  Basis Set: AUG-CC-PVTZ
    Blend: AUG-CC-PVTZ
  Basis Set: (AUG-CC-PVTZ AUX)
    Blend: AUG-CC-PVTZ-JKFIT
  @DF-RHF Final Energy:  -459.57348279887526
    Total Energy =                       -459.5734827988752613
  Basis Set: (AUG-CC-PVTZ AUX)
	 Singles Energy            =      -0.0000000000000000 [Eh]
	 Same-Spin Energy          =      -0.0622682574800093 [Eh]
	 Opposite-Spin Energy      =      -0.1786400903129930 [Eh]
	 Correlation Energy        =      -0.2409083477930023 [Eh]
	 Total Energy              =    -459.8143911466682425 [Eh]
	 SCS Total Energy          =    -459.8086069930775466 [Eh]
                               Psi4 1.9 release
    Molecular point group: c1

    Geometry (in Bohr), charge = -2, multiplicity = 1:

       Center              X                  Y                   Z               Mass
    ------------   -----------------  -----------------  -----------------  -----------------
         CL           0.000000000000     0.000000000000     0.000000000000    34.968852682000
         CL          10.261212861236     0.000000000000     0.000000000000    34.968852682000

  Charge       = -2
  Multiplicity = 1
  Basis Set: AUG-CC-PVTZ
    Blend: AUG-CC-PVTZ
  Basis Set: (AUG-CC-PVTZ AUX)
    Blend: AUG-CC-PVTZ-JKFIT

    Orbital Energies [Eh]
    ---------------------

    Doubly Occupied:

       1A   -104.412415     2A   -104.412415     3A    -10.136080
       4A    -10.136079     5A     -7.602112     6A     -7.602112
       7A     -7.602112     8A     -7.602112     9A     -7.602069
      10A     -7.602069    11A     -0.639473    12A     -0.639364
      13A     -0.056873    14A     -0.056873    15A     -0.056782
      16A     -0.056359    17A     -0.056359    18A     -0.053610

  @DF-RHF Final Energy:  -919.05196826102190

   => Energetics <=

    Nuclear Repulsion Energy =             28.1643119491031335
    One-Electron Energy =               -1341.7820191930115925
    Two-Electron Energy =                 394.5657389828865007
    Total Energy =                       -919.0519682610218979
 Dipole X            :       -184.7018315          174.4406186          -10.2612129
 Dipole Y            :          0.0000000            0.0000000            0.0000000
 Dipole Z            :          0.0000000            0.0000000            0.0000000
 Magnitude           :                                                   10.2612129
  Basis Set: (AUG-CC-PVTZ AUX)
    Blend: AUG-CC-PVTZ-RI
	 Reference Energy          =    -919.0519682610218979 [Eh]
	 Singles Energy            =      -0.0000000000000000 [Eh]
	 Same-Spin Energy          =      -0.1247352326770725 [Eh]
	 Opposite-Spin Energy      =      -0.3576149167725963 [Eh]
	 Correlation Energy        =      -0.4823501494496688 [Eh]
	 Total Energy              =    -919.5343184104715419 [Eh]

	 ================> DF-SCS-MP2 Energies <==================
	-----------------------------------------------------------
	 SCS Same-Spin Scale       =       0.3333333333333333 [-]
	 SCS Opposite-Spin Scale   =       1.2000000000000000 [-]
	 SCS Same-Spin Energy      =      -0.0415784108923575 [Eh]
	 SCS Opposite-Spin Energy  =      -0.4291379001271155 [Eh]
	 SCS Correlation Energy    =      -0.4707163110194730 [Eh]
	 SCS Total Energy          =    -919.5226845720413849 [Eh]
	-----------------------------------------------------------

*** Psi4 exiting successfully. Buy a developer a beer!
