                               Psi4 1.9 release

  ==> Input File <==

--------------------------------------------------------------------------
MEMORY 60 GB

molecule dimer {
-1 1
Cl     0.000000     0.000000     0.000000
--
-1 1
Cl     3.620000     0.000000     0.000000

units ang
no_reorient
no_com
symmetry c1
}

set {
basis        aug-cc-pVTZ
scf_type     df
}

energy("mp2", bsse_type="cp")
--------------------------------------------------------------------------

                               Psi4 1.9 release
    Molecular point group: c1
  Charge       = -1
  Multiplicity = 1
  Basis Set: AUG-CC-PVTZ
    Blend: AUG-CC-PVTZ
  Basis Set: (AUG-CC-PVTZ AUX)
    Blend: AUG-CC-PVTZ-JKFIT
  @DF-RHF Final Energy:  -459.57348907172275
    Total Energy =                       -459.5734890717227472
 Dipole X            :       -123.1348516          116.2937458           -6.8411058
 Dipole Y            :          0.0000000            0.0000000            0.0000000
 Dipole Z            :          0.0000000            0.0000000            0.0000000
 Magnitude           :                                                    6.8411058
  Basis Set: (AUG-CC-PVTZ AUX)
    Blend: AUG-CC-PVTZ-RI
	 Reference Energy          =    -459.5734890717227472 [Eh]
	 Singles Energy            =      -0.0000000000000000 [Eh]
	 Same-Spin Energy          =      -0.0623308042031908 [Eh]
	 Opposite-Spin Energy      =      -0.1788449304038892 [Eh]
	 Correlation Energy        =      -0.2411757346070800 [Eh]
	 Total Energy              =    -459.8146648063298016 [Eh]
	 SCS Total Energy          =    -459.8088799229417987 [Eh]
                               Psi4 1.9 release
    Molecular point group: c1
  Multiplicity = 1
  Basis Set: AUG-CC-PVTZ
    Blend: AUG-CC-PVTZ
  Basis Set: (AUG-CC-PVTZ AUX)
    Blend: AUG-CC-PVTZ-JKFIT
  @DF-RHF Final Energy:  -459.57348907172167
    Total Energy =                       -459.5734890717216103
  Basis Set: (AUG-CC-PVTZ AUX)
	 Singles Energy            =      -0.0000000000000000 [Eh]
	 Same-Spin Energy          =      -0.0623308042031925 [Eh]
	 Opposite-Spin Energy      =      -0.1788449304038900 [Eh]
	 Correlation Energy        =      -0.2411757346070825 [Eh]
	 Total Energy              =    -459.8146648063287216 [Eh]
	 SCS Total Energy          =    -459.8088799229407186 [Eh]
                               Psi4 1.9 release
    Molecular point group: c1

    Geometry (in Bohr), charge = -2, multiplicity = 1:

       Center              X                  Y                   Z               Mass
    ------------   -----------------  -----------------  -----------------  -----------------
         CL           0.000000000000     0.000000000000     0.000000000000    34.968852682000
         CL           6.840808574157     0.000000000000     0.000000000000    34.968852682000

  Charge       = -2
  Multiplicity = 1
  Basis Set: AUG-CC-PVTZ
    Blend: AUG-CC-PVTZ
  Basis Set: (AUG-CC-PVTZ AUX)
    Blend: AUG-CC-PVTZ-JKFIT

    Orbital Energies [Eh]
    ---------------------

    Doubly Occupied:

       1A   -104.377136     2A   -104.377136     3A    -10.100643
       4A    -10.100640     5A     -7.566625     6A     -7.566625
       7A     -7.566624     8A     -7.566624     9A     -7.566563
      10A     -7.566561    11A     -0.605741    12A     -0.600879
      13A     -0.034313    14A     -0.024684    15A     -0.024684
      16A     -0.017107    17A     -0.017107    18A      0.000396

  @DF-RHF Final Energy:  -919.01041824713536

   => Energetics <=

    Nuclear Repulsion Energy =             42.2464679236546985
    One-Electron Energy =               -1371.1551781491077691
    Two-Electron Energy =                 409.8982919783176158
    Total Energy =                       -919.0104182471353624
 Dipole X            :       -123.1345543          116.2937458           -6.8408086
 Dipole Y            :         -0.0000000            0.0000000           -0.0000000
 Dipole Z            :         -0.0000000            0.0000000           -0.0000000
 Magnitude           :                                                    6.8408086
  Basis Set: (AUG-CC-PVTZ AUX)
    Blend: AUG-CC-PVTZ-RI
	 Reference Energy          =    -919.0104182471353624 [Eh]
	 Singles Energy            =      -0.0000000000000000 [Eh]
	 Same-Spin Energy          =      -0.1264180197296382 [Eh]
	 Opposite-Spin Energy      =      -0.3600627970688387 [Eh]
	 Correlation Energy        =      -0.4864808167984769 [Eh]
	 Total Energy              =    -919.4968990639338244 [Eh]

	 ================> DF-SCS-MP2 Energies <==================
	-----------------------------------------------------------
	 SCS Same-Spin Scale       =       0.3333333333333333 [-]
	 SCS Opposite-Spin Scale   =       1.2000000000000000 [-]
	 SCS Same-Spin Energy      =      -0.0421393399098794 [Eh]
	 SCS Opposite-Spin Energy  =      -0.4320753564826064 [Eh]
	 SCS Correlation Energy    =      -0.4742146963924858 [Eh]
	 SCS Total Energy          =    -919.4846329435277994 [Eh]
	-----------------------------------------------------------

*** Psi4 exiting successfully. Buy a developer a beer!
