                               Psi4 1.9 release

  ==> Input File <==

--------------------------------------------------------------------------
MEMORY 60 GB

molecule dimer {
-1 1
Cl     0.000000     0.000000     0.000000
--
-1 1
Cl     4.344000     0.000000     0.000000

units ang
no_reorient
no_com
symmetry c1
}

set {
basis        aug-cc-pVTZ
scf_type     df
}

energy("mp2", bsse_type="cp")
--------------------------------------------------------------------------

                               Psi4 1.9 release
    Molecular point group: c1
  Charge       = -1
  Multiplicity = 1
  Basis Set: AUG-CC-PVTZ
    Blend: AUG-CC-PVTZ
  Basis Set: (AUG-CC-PVTZ AUX)
    Blend: AUG-CC-PVTZ-JKFIT
  @DF-RHF Final Energy:  -459.57348416680412
    Total Energy =                       -459.5734841668040644
 Dipole X            :       -147.7615528          139.5524949           -8.2090579
 Dipole Y            :          0.0000000            0.0000000            0.0000000
 Dipole Z            :          0.0000000            0.0000000            0.0000000
 Magnitude           :                                                    8.2090579
  Basis Set: (AUG-CC-PVTZ AUX)
    Blend: AUG-CC-PVTZ-RI
	 Reference Energy          =    -459.5734841668041213 [Eh]
	 Singles Energy            =      -0.0000000000000000 [Eh]
	 Same-Spin Energy          =      -0.0622863851687551 [Eh]
	 Opposite-Spin Energy      =      -0.1787000987466466 [Eh]
	 Correlation Energy        =      -0.2409864839154017 [Eh]
	 Total Energy              =    -459.8144706507194996 [Eh]
	 SCS Total Energy          =    -459.8086864136896565 [Eh]
                               Psi4 1.9 release
    Molecular point group: c1
  Multiplicity = 1
  Basis Set: AUG-CC-PVTZ
    Blend: AUG-CC-PVTZ
  Basis Set: (AUG-CC-PVTZ AUX)
    Blend: AUG-CC-PVTZ-JKFIT
  @DF-RHF Final Energy:  -459.57348416679974
    Total Energy =                       -459.5734841667997443
  Basis Set: (AUG-CC-PVTZ AUX)
	 Singles Energy            =      -0.0000000000000000 [Eh]
	 Same-Spin Energy          =      -0.0622863851687550 [Eh]
	 Opposite-Spin Energy      =      -0.1787000987466471 [Eh]
	 Correlation Energy        =      -0.2409864839154021 [Eh]
	 Total Energy              =    -459.8144706507151227 [Eh]
	 SCS Total Energy          =    -459.8086864136852796 [Eh]
                               Psi4 1.9 release
    Molecular point group: c1

    Geometry (in Bohr), charge = -2, multiplicity = 1:

       Center              X                  Y                   Z               Mass
    ------------   -----------------  -----------------  -----------------  -----------------
         CL           0.000000000000     0.000000000000     0.000000000000    34.968852682000
         CL           8.208970288989     0.000000000000     0.000000000000    34.968852682000

  Charge       = -2
  Multiplicity = 1
  Basis Set: AUG-CC-PVTZ
    Blend: AUG-CC-PVTZ
  Basis Set: (AUG-CC-PVTZ AUX)
    Blend: AUG-CC-PVTZ-JKFIT

    Orbital Energies [Eh]
    ---------------------

    Doubly Occupied:

       1A   -104.393552     2A   -104.393552     3A    -10.117088
       4A    -10.117088     5A     -7.583111     6A     -7.583111
       7A     -7.583111     8A     -7.583111     9A     -7.583050
      10A     -7.583049    11A     -0.620439    12A     -0.619406
      13A     -0.041255    14A     -0.038598    15A     -0.038598
      16A     -0.036114    17A     -0.036114    18A     -0.028266

  @DF-RHF Final Energy:  -919.03090734861087

   => Energetics <=

    Nuclear Repulsion Energy =             35.2053899363789142
    One-Electron Energy =               -1356.5153682081879651
    Two-Electron Energy =                 402.2790709231982191
    Total Energy =                       -919.0309073486108673
 Dipole X            :       -147.7614652          139.5524949           -8.2089703
 Dipole Y            :          0.0000000            0.0000000            0.0000000
 Dipole Z            :          0.0000000            0.0000000            0.0000000
 Magnitude           :                                                    8.2089703
  Basis Set: (AUG-CC-PVTZ AUX)
    Blend: AUG-CC-PVTZ-RI
	 Reference Energy          =    -919.0309073486108673 [Eh]
	 Singles Energy            =      -0.0000000000000000 [Eh]
	 Same-Spin Energy          =      -0.1252584752881176 [Eh]
	 Opposite-Spin Energy      =      -0.3584142612437243 [Eh]
	 Correlation Energy        =      -0.4836727365318418 [Eh]
	 Total Energy              =    -919.5145800851427111 [Eh]

	 ================> DF-SCS-MP2 Energies <==================
	-----------------------------------------------------------
	 SCS Same-Spin Scale       =       0.3333333333333333 [-]
	 SCS Opposite-Spin Scale   =       1.2000000000000000 [-]
	 SCS Same-Spin Energy      =      -0.0417528250960392 [Eh]
	 SCS Opposite-Spin Energy  =      -0.4300971134924691 [Eh]
	 SCS Correlation Energy    =      -0.4718499385885083 [Eh]
	 SCS Total Energy          =    -919.5027572871994153 [Eh]
	-----------------------------------------------------------

*** Psi4 exiting successfully. Buy a developer a beer!
