                               Psi4 1.9 release

  ==> Input File <==

--------------------------------------------------------------------------
MEMORY 60 GB

molecule dimer {
-1 1
Cl     0.000000     0.000000     0.000000
--
-1 1
Cl     5.068000     0.000000     0.000000

units ang
no_reorient
no_com
symmetry c1
}

set {
basis        aug-cc-pVTZ
scf_type     df
}

energy("mp2", bsse_type="cp")
--------------------------------------------------------------------------

                               Psi4 1.9 release
    Molecular point group: c1
  Charge       = -1
  Multiplicity = 1
  Basis Set: AUG-CC-PVTZ
    Blend: AUG-CC-PVTZ
  Basis Set: (AUG-CC-PVTZ AUX)
    Blend: AUG-CC-PVTZ-JKFIT
  @DF-RHF Final Energy:  -459.57348334665704
    Total Energy =                       -459.5734833466570421
 Dipole X            :       -172.3883522          162.8112441           -9.5771082
 Dipole Y            :          0.0000000            0.0000000            0.0000000
 Dipole Z            :         -0.0000000            0.0000000           -0.0000000
 Magnitude           :                                                    9.5771082
  Basis Set: (AUG-CC-PVTZ AUX)
    Blend: AUG-CC-PVTZ-RI
	 Reference Energy          =    -459.5734833466570421 [Eh]
	 Singles Energy            =      -0.0000000000000000 [Eh]
	 Same-Spin Energy          =      -0.0622718849723496 [Eh]
	 Opposite-Spin Energy      =      -0.1786526385985095 [Eh]
	 Correlation Energy        =      -0.2409245235708592 [Eh]
	 Total Energy              =    -459.8144078702279103 [Eh]
	 SCS Total Energy          =    -459.8086238079660575 [Eh]
                               Psi4 1.9 release
    Molecular point group: c1
  Multiplicity = 1
  Basis Set: AUG-CC-PVTZ
    Blend: AUG-CC-PVTZ
  Basis Set: (AUG-CC-PVTZ AUX)
    Blend: AUG-CC-PVTZ-JKFIT
  @DF-RHF Final Energy:  -459.57348334667921
    Total Energy =                       -459.5734833466792111
  Basis Set: (AUG-CC-PVTZ AUX)
	 Singles Energy            =      -0.0000000000000000 [Eh]
	 Same-Spin Energy          =      -0.0622718849723416 [Eh]
	 Opposite-Spin Energy      =      -0.1786526385984924 [Eh]
	 Correlation Energy        =      -0.2409245235708339 [Eh]
	 Total Energy              =    -459.8144078702500224 [Eh]
	 SCS Total Energy          =    -459.8086238079881696 [Eh]
                               Psi4 1.9 release
    Molecular point group: c1

    Geometry (in Bohr), charge = -2, multiplicity = 1:

       Center              X                  Y                   Z               Mass
    ------------   -----------------  -----------------  -----------------  -----------------
         CL           0.000000000000     0.000000000000     0.000000000000    34.968852682000
         CL           9.577132003820     0.000000000000     0.000000000000    34.968852682000

  Charge       = -2
  Multiplicity = 1
  Basis Set: AUG-CC-PVTZ
    Blend: AUG-CC-PVTZ
  Basis Set: (AUG-CC-PVTZ AUX)
    Blend: AUG-CC-PVTZ-JKFIT

    Orbital Energies [Eh]
    ---------------------

    Doubly Occupied:

       1A   -104.406740     2A   -104.406740     3A    -10.130368
       4A    -10.130368     5A     -7.596399     6A     -7.596399
       7A     -7.596399     8A     -7.596399     9A     -7.596351
      10A     -7.596350    11A     -0.633684    12A     -0.633456
      13A     -0.051616    14A     -0.051265    15A     -0.051265
      16A     -0.050405    17A     -0.050405    18A     -0.046582

  @DF-RHF Final Energy:  -919.04578682443162

   => Energetics <=

    Nuclear Repulsion Energy =             30.1760485168962127
    One-Electron Energy =               -1346.0012880104470696
    Two-Electron Energy =                 396.7794526691192232
    Total Energy =                       -919.0457868244317297
 Dipole X            :       -172.3883761          162.8112441           -9.5771320
 Dipole Y            :          0.0000000            0.0000000            0.0000000
 Dipole Z            :         -0.0000000            0.0000000           -0.0000000
 Magnitude           :                                                    9.5771320
  Basis Set: (AUG-CC-PVTZ AUX)
    Blend: AUG-CC-PVTZ-RI
	 Reference Energy          =    -919.0457868244316160 [Eh]
	 Singles Energy            =      -0.0000000000000000 [Eh]
	 Same-Spin Energy          =      -0.1248377959880049 [Eh]
	 Opposite-Spin Energy      =      -0.3577805021142574 [Eh]
	 Correlation Energy        =      -0.4826182981022623 [Eh]
	 Total Energy              =    -919.5284051225338544 [Eh]

	 ================> DF-SCS-MP2 Energies <==================
	-----------------------------------------------------------
	 SCS Same-Spin Scale       =       0.3333333333333333 [-]
	 SCS Opposite-Spin Scale   =       1.2000000000000000 [-]
	 SCS Same-Spin Energy      =      -0.0416125986626683 [Eh]
	 SCS Opposite-Spin Energy  =      -0.4293366025371089 [Eh]
	 SCS Correlation Energy    =      -0.4709492011997772 [Eh]
	 SCS Total Energy          =    -919.5167360256314169 [Eh]
	-----------------------------------------------------------

*** Psi4 exiting successfully. Buy a developer a beer!
