                               Psi4 1.9 release

  ==> Input File <==

--------------------------------------------------------------------------
MEMORY 60 GB

molecule dimer {
-1 1
Cl     0.000000     0.000000     0.000000
--
-1 1
Br     7.540000     0.000000     0.000000

units ang
no_reorient
no_com
symmetry c1
}

set {
basis        aug-cc-pVTZ
scf_type     df
}

energy("mp2", bsse_type="cp")
--------------------------------------------------------------------------

                               Psi4 1.9 release
    Molecular point group: c1
  Charge       = -1
  Multiplicity = 1
  Basis Set: AUG-CC-PVTZ
    Blend: AUG-CC-PVTZ
  Basis Set: (AUG-CC-PVTZ AUX)
    Blend: AUG-CC-PVTZ-JKFIT
  @DF-RHF Final Energy: -2572.53366584189826
    Total Energy =                      -2572.5336658418982552
 Dipole X            :       -512.9473281          498.6987245          -14.2486036
 Dipole Y            :         -0.0000000            0.0000000           -0.0000000
 Dipole Z            :         -0.0000000            0.0000000           -0.0000000
 Magnitude           :                                                   14.2486036
  Basis Set: (AUG-CC-PVTZ AUX)
    Blend: AUG-CC-PVTZ-RI
	 Reference Energy          =   -2572.5336658418982552 [Eh]
	 Singles Energy            =      -0.0000000000000000 [Eh]
	 Same-Spin Energy          =      -0.0866449319860162 [Eh]
	 Opposite-Spin Energy      =      -0.2009271529320239 [Eh]
	 Correlation Energy        =      -0.2875720849180401 [Eh]
	 Total Energy              =   -2572.8212379268161385 [Eh]
	 SCS Total Energy          =   -2572.8036600694122171 [Eh]
                               Psi4 1.9 release
    Molecular point group: c1
  Multiplicity = 1
  Basis Set: AUG-CC-PVTZ
    Blend: AUG-CC-PVTZ
  Basis Set: (AUG-CC-PVTZ AUX)
    Blend: AUG-CC-PVTZ-JKFIT
  @DF-RHF Final Energy:  -459.57348206148748
    Total Energy =                       -459.5734820614874820
  Basis Set: (AUG-CC-PVTZ AUX)
	 Singles Energy            =      -0.0000000000000000 [Eh]
	 Same-Spin Energy          =      -0.0622581371281019 [Eh]
	 Opposite-Spin Energy      =      -0.1786073236511067 [Eh]
	 Correlation Energy        =      -0.2408654607792085 [Eh]
	 Total Energy              =    -459.8143475222667007 [Eh]
	 SCS Total Energy          =    -459.8085635622448422 [Eh]
                               Psi4 1.9 release
    Molecular point group: c1

    Geometry (in Bohr), charge = -2, multiplicity = 1:

       Center              X                  Y                   Z               Mass
    ------------   -----------------  -----------------  -----------------  -----------------
         CL           0.000000000000     0.000000000000     0.000000000000    34.968852682000
         BR          14.248534985952     0.000000000000     0.000000000000    78.918337600000

  Charge       = -2
  Multiplicity = 1
  Basis Set: AUG-CC-PVTZ
    Blend: AUG-CC-PVTZ
  Basis Set: (AUG-CC-PVTZ AUX)
    Blend: AUG-CC-PVTZ-JKFIT

    Orbital Energies [Eh]
    ---------------------

    Doubly Occupied:

       1A   -489.651183     2A   -104.437000     3A    -64.791282
       4A    -58.145751     5A    -58.145751     6A    -58.145737
       7A    -10.160763     8A     -9.463709     9A     -7.626794
      10A     -7.626794    11A     -7.626775    12A     -7.071071
      13A     -7.071071    14A     -7.070987    15A     -2.812777
      16A     -2.812777    17A     -2.812676    18A     -2.812676
      19A     -2.812642    20A     -0.664438    21A     -0.616752
      22A     -0.081411    23A     -0.081411    24A     -0.080911
      25A     -0.070301    26A     -0.070301    27A     -0.069564

  @DF-RHF Final Energy: -3032.03773722913729

   => Energetics <=

    Nuclear Repulsion Energy =             41.7586790913328940
    One-Electron Energy =               -4321.9262162107161203
    Two-Electron Energy =                1248.1297998902457493
    Total Energy =                      -3032.0377372291377469
 Dipole X            :       -513.0023917          498.6987245          -14.3036672
 Dipole Y            :          0.0000000            0.0000000            0.0000000
 Dipole Z            :         -0.0000000            0.0000000           -0.0000000
 Magnitude           :                                                   14.3036672
  Basis Set: (AUG-CC-PVTZ AUX)
    Blend: AUG-CC-PVTZ-RI
	 Reference Energy          =   -3032.0377372291372922 [Eh]
	 Singles Energy            =      -0.0000000000000000 [Eh]
	 Same-Spin Energy          =      -0.1489397372546421 [Eh]
	 Opposite-Spin Energy      =      -0.3796092557042776 [Eh]
	 Correlation Energy        =      -0.5285489929589197 [Eh]
	 Total Energy              =   -3032.5662862220960960 [Eh]

	 ================> DF-SCS-MP2 Energies <==================
	-----------------------------------------------------------
	 SCS Same-Spin Scale       =       0.3333333333333333 [-]
	 SCS Opposite-Spin Scale   =       1.2000000000000000 [-]
	 SCS Same-Spin Energy      =      -0.0496465790848807 [Eh]
	 SCS Opposite-Spin Energy  =      -0.4555311068451330 [Eh]
	 SCS Correlation Energy    =      -0.5051776859300138 [Eh]
	 SCS Total Energy          =   -3032.5429149150672856 [Eh]
	-----------------------------------------------------------

*** Psi4 exiting successfully. Buy a developer a beer!
