                               Psi4 1.9 release

  ==> Input File <==

--------------------------------------------------------------------------
MEMORY 60 GB

molecule dimer {
-1 1
Cl     0.000000     0.000000     0.000000
--
-1 1
Br     4.147000     0.000000     0.000000

units ang
no_reorient
no_com
symmetry c1
}

set {
basis        aug-cc-pVTZ
scf_type     df
}

energy("mp2", bsse_type="cp")
--------------------------------------------------------------------------

                               Psi4 1.9 release
    Molecular point group: c1
  Charge       = -1
  Multiplicity = 1
  Basis Set: AUG-CC-PVTZ
    Blend: AUG-CC-PVTZ
  Basis Set: (AUG-CC-PVTZ AUX)
    Blend: AUG-CC-PVTZ-JKFIT
  @DF-RHF Final Energy: -2572.53366927659317
    Total Energy =                      -2572.5336692765927182
 Dipole X            :       -282.1211584          274.2842985           -7.8368599
 Dipole Y            :         -0.0000000            0.0000000           -0.0000000
 Dipole Z            :         -0.0000000            0.0000000           -0.0000000
 Magnitude           :                                                    7.8368599
  Basis Set: (AUG-CC-PVTZ AUX)
    Blend: AUG-CC-PVTZ-RI
	 Reference Energy          =   -2572.5336692765931730 [Eh]
	 Singles Energy            =      -0.0000000000000000 [Eh]
	 Same-Spin Energy          =      -0.0868032516158534 [Eh]
	 Opposite-Spin Energy      =      -0.2012640981157604 [Eh]
	 Correlation Energy        =      -0.2880673497316138 [Eh]
	 Total Energy              =   -2572.8217366263247641 [Eh]
	 SCS Total Energy          =   -2572.8041206115372006 [Eh]
                               Psi4 1.9 release
    Molecular point group: c1
  Multiplicity = 1
  Basis Set: AUG-CC-PVTZ
    Blend: AUG-CC-PVTZ
  Basis Set: (AUG-CC-PVTZ AUX)
    Blend: AUG-CC-PVTZ-JKFIT
  @DF-RHF Final Energy:  -459.57348562229106
    Total Energy =                       -459.5734856222910594
  Basis Set: (AUG-CC-PVTZ AUX)
	 Singles Energy            =      -0.0000000000000000 [Eh]
	 Same-Spin Energy          =      -0.0623070830426773 [Eh]
	 Opposite-Spin Energy      =      -0.1787682182184620 [Eh]
	 Correlation Energy        =      -0.2410753012611394 [Eh]
	 Total Energy              =    -459.8145609235522215 [Eh]
	 SCS Total Energy          =    -459.8087765118340826 [Eh]
                               Psi4 1.9 release
    Molecular point group: c1

    Geometry (in Bohr), charge = -2, multiplicity = 1:

       Center              X                  Y                   Z               Mass
    ------------   -----------------  -----------------  -----------------  -----------------
         CL           0.000000000000     0.000000000000     0.000000000000    34.968852682000
         BR           7.836694242274     0.000000000000     0.000000000000    78.918337600000

  Charge       = -2
  Multiplicity = 1
  Basis Set: AUG-CC-PVTZ
    Blend: AUG-CC-PVTZ
  Basis Set: (AUG-CC-PVTZ AUX)
    Blend: AUG-CC-PVTZ-JKFIT

    Orbital Energies [Eh]
    ---------------------

    Doubly Occupied:

       1A   -489.604629     2A   -104.391722     3A    -64.744598
       4A    -58.099075     5A    -58.099075     6A    -58.099034
       7A    -10.115270     8A     -9.416886     9A     -7.581287
      10A     -7.581287    11A     -7.581229    12A     -7.024269
      13A     -7.024269    14A     -7.023984    15A     -2.766093
      16A     -2.766093    17A     -2.765747    18A     -2.765747
      19A     -2.765627    20A     -0.618230    21A     -0.568857
      22A     -0.038560    23A     -0.035938    24A     -0.035938
      25A     -0.022792    26A     -0.022792    27A     -0.013628

  @DF-RHF Final Energy: -3031.98728488366805

   => Energetics <=

    Nuclear Repulsion Energy =             75.9248710751507048
    One-Electron Energy =               -4392.6790035392050413
    Two-Electron Energy =                1284.7668475803859565
    Total Energy =                      -3031.9872848836685080
 Dipole X            :       -282.2845347          274.2842985           -8.0002362
 Dipole Y            :          0.0000000            0.0000000            0.0000000
 Dipole Z            :         -0.0000000            0.0000000           -0.0000000
 Magnitude           :                                                    8.0002362
  Basis Set: (AUG-CC-PVTZ AUX)
    Blend: AUG-CC-PVTZ-RI
	 Reference Energy          =   -3031.9872848836680532 [Eh]
	 Singles Energy            =      -0.0000000000000000 [Eh]
	 Same-Spin Energy          =      -0.1501903991708417 [Eh]
	 Opposite-Spin Energy      =      -0.3815263667211158 [Eh]
	 Correlation Energy        =      -0.5317167658919575 [Eh]
	 Total Energy              =   -3032.5190016495598684 [Eh]

	 ================> DF-SCS-MP2 Energies <==================
	-----------------------------------------------------------
	 SCS Same-Spin Scale       =       0.3333333333333333 [-]
	 SCS Opposite-Spin Scale   =       1.2000000000000000 [-]
	 SCS Same-Spin Energy      =      -0.0500634663902806 [Eh]
	 SCS Opposite-Spin Energy  =      -0.4578316400653390 [Eh]
	 SCS Correlation Energy    =      -0.5078951064556195 [Eh]
	 SCS Total Energy          =   -3032.4951799901236882 [Eh]
	-----------------------------------------------------------

*** Psi4 exiting successfully. Buy a developer a beer!
