                               Psi4 1.9 release

  ==> Input File <==

--------------------------------------------------------------------------
MEMORY 60 GB

molecule dimer {
-1 1
Cl     0.000000     0.000000     0.000000
--
-1 1
Br     4.901000     0.000000     0.000000

units ang
no_reorient
no_com
symmetry c1
}

set {
basis        aug-cc-pVTZ
scf_type     df
}

energy("mp2", bsse_type="cp")
--------------------------------------------------------------------------

                               Psi4 1.9 release
    Molecular point group: c1
  Charge       = -1
  Multiplicity = 1
  Basis Set: AUG-CC-PVTZ
    Blend: AUG-CC-PVTZ
  Basis Set: (AUG-CC-PVTZ AUX)
    Blend: AUG-CC-PVTZ-JKFIT
  @DF-RHF Final Energy: -2572.53366722530836
    Total Energy =                      -2572.5336672253083634
 Dipole X            :       -333.4157934          324.1541709           -9.2616225
 Dipole Y            :         -0.0000000            0.0000000           -0.0000000
 Dipole Z            :          0.0000000            0.0000000            0.0000000
 Magnitude           :                                                    9.2616225
  Basis Set: (AUG-CC-PVTZ AUX)
    Blend: AUG-CC-PVTZ-RI
	 Reference Energy          =   -2572.5336672253083634 [Eh]
	 Singles Energy            =      -0.0000000000000000 [Eh]
	 Same-Spin Energy          =      -0.0867160933911390 [Eh]
	 Opposite-Spin Energy      =      -0.2010760011872108 [Eh]
	 Correlation Energy        =      -0.2877920945783498 [Eh]
	 Total Energy              =   -2572.8214593198867988 [Eh]
	 SCS Total Energy          =   -2572.8038637911968181 [Eh]
                               Psi4 1.9 release
    Molecular point group: c1
  Multiplicity = 1
  Basis Set: AUG-CC-PVTZ
    Blend: AUG-CC-PVTZ
  Basis Set: (AUG-CC-PVTZ AUX)
    Blend: AUG-CC-PVTZ-JKFIT
  @DF-RHF Final Energy:  -459.57348393330216
    Total Energy =                       -459.5734839333022137
  Basis Set: (AUG-CC-PVTZ AUX)
	 Singles Energy            =      -0.0000000000000000 [Eh]
	 Same-Spin Energy          =      -0.0622796500298546 [Eh]
	 Opposite-Spin Energy      =      -0.1786797802140857 [Eh]
	 Correlation Energy        =      -0.2409594302439403 [Eh]
	 Total Energy              =    -459.8144433635461041 [Eh]
	 SCS Total Energy          =    -459.8086595529023271 [Eh]
                               Psi4 1.9 release
    Molecular point group: c1

    Geometry (in Bohr), charge = -2, multiplicity = 1:

       Center              X                  Y                   Z               Mass
    ------------   -----------------  -----------------  -----------------  -----------------
         CL           0.000000000000     0.000000000000     0.000000000000    34.968852682000
         BR           9.261547740869     0.000000000000     0.000000000000    78.918337600000

  Charge       = -2
  Multiplicity = 1
  Basis Set: AUG-CC-PVTZ
    Blend: AUG-CC-PVTZ
  Basis Set: (AUG-CC-PVTZ AUX)
    Blend: AUG-CC-PVTZ-JKFIT

    Orbital Energies [Eh]
    ---------------------

    Doubly Occupied:

       1A   -489.618896     2A   -104.405333     3A    -64.758910
       4A    -58.113386     5A    -58.113386     6A    -58.113355
       7A    -10.128941     8A     -9.431244     9A     -7.594972
      10A     -7.594972    11A     -7.594923    12A     -7.038625
      13A     -7.038625    14A     -7.038414    15A     -2.780400
      16A     -2.780400    17A     -2.780151    18A     -2.780151
      19A     -2.780065    20A     -0.632107    21A     -0.583654
      22A     -0.049414    23A     -0.049414    24A     -0.048687
      25A     -0.037602    26A     -0.037602    27A     -0.033907

  @DF-RHF Final Energy: -3032.00357016547696

   => Energetics <=

    Nuclear Repulsion Energy =             64.2441216789736842
    One-Electron Energy =               -4368.5803022590889668
    Two-Electron Energy =                1272.3326104146383386
    Total Energy =                      -3032.0035701654769582
 Dipole X            :       -333.5380810          324.1541709           -9.3839100
 Dipole Y            :          0.0000000            0.0000000            0.0000000
 Dipole Z            :         -0.0000000            0.0000000           -0.0000000
 Magnitude           :                                                    9.3839100
  Basis Set: (AUG-CC-PVTZ AUX)
    Blend: AUG-CC-PVTZ-RI
	 Reference Energy          =   -3032.0035701654769582 [Eh]
	 Singles Energy            =      -0.0000000000000000 [Eh]
	 Same-Spin Energy          =      -0.1494324770873892 [Eh]
	 Opposite-Spin Energy      =      -0.3804204380221127 [Eh]
	 Correlation Energy        =      -0.5298529151095019 [Eh]
	 Total Energy              =   -3032.5334230805865445 [Eh]

	 ================> DF-SCS-MP2 Energies <==================
	-----------------------------------------------------------
	 SCS Same-Spin Scale       =       0.3333333333333333 [-]
	 SCS Opposite-Spin Scale   =       1.2000000000000000 [-]
	 SCS Same-Spin Energy      =      -0.0498108256957964 [Eh]
	 SCS Opposite-Spin Energy  =      -0.4565045256265352 [Eh]
	 SCS Correlation Energy    =      -0.5063153513223316 [Eh]
	 SCS Total Energy          =   -3032.5098855167993861 [Eh]
	-----------------------------------------------------------

*** Psi4 exiting successfully. Buy a developer a beer!
