                               Psi4 1.9 release

  ==> Input File <==

--------------------------------------------------------------------------
MEMORY 60 GB

molecule dimer {
-1 1
Cl     0.000000     0.000000     0.000000
--
-1 1
Br     5.655000     0.000000     0.000000

units ang
no_reorient
no_com
symmetry c1
}

set {
basis        aug-cc-pVTZ
scf_type     df
}

energy("mp2", bsse_type="cp")
--------------------------------------------------------------------------

                               Psi4 1.9 release
    Molecular point group: c1
  Charge       = -1
  Multiplicity = 1
  Basis Set: AUG-CC-PVTZ
    Blend: AUG-CC-PVTZ
  Basis Set: (AUG-CC-PVTZ AUX)
    Blend: AUG-CC-PVTZ-JKFIT
  @DF-RHF Final Energy: -2572.53366651510942
    Total Energy =                      -2572.5336665151098714
 Dipole X            :       -384.7104768          374.0240434          -10.6864334
 Dipole Y            :          0.0000000            0.0000000            0.0000000
 Dipole Z            :         -0.0000000            0.0000000           -0.0000000
 Magnitude           :                                                   10.6864334
  Basis Set: (AUG-CC-PVTZ AUX)
    Blend: AUG-CC-PVTZ-RI
	 Reference Energy          =   -2572.5336665151094167 [Eh]
	 Singles Energy            =      -0.0000000000000000 [Eh]
	 Same-Spin Energy          =      -0.0866797257001657 [Eh]
	 Opposite-Spin Energy      =      -0.2010003314164310 [Eh]
	 Correlation Energy        =      -0.2876800571165967 [Eh]
	 Total Energy              =   -2572.8213465722260480 [Eh]
	 SCS Total Energy          =   -2572.8037601547093800 [Eh]
                               Psi4 1.9 release
    Molecular point group: c1
  Multiplicity = 1
  Basis Set: AUG-CC-PVTZ
    Blend: AUG-CC-PVTZ
  Basis Set: (AUG-CC-PVTZ AUX)
    Blend: AUG-CC-PVTZ-JKFIT
  @DF-RHF Final Energy:  -459.57348284960659
    Total Energy =                       -459.5734828496065347
  Basis Set: (AUG-CC-PVTZ AUX)
	 Singles Energy            =      -0.0000000000000000 [Eh]
	 Same-Spin Energy          =      -0.0622694925434063 [Eh]
	 Opposite-Spin Energy      =      -0.1786444956576982 [Eh]
	 Correlation Energy        =      -0.2409139882011045 [Eh]
	 Total Energy              =    -459.8143968378076920 [Eh]
	 SCS Total Energy          =    -459.8086127419102809 [Eh]
                               Psi4 1.9 release
    Molecular point group: c1

    Geometry (in Bohr), charge = -2, multiplicity = 1:

       Center              X                  Y                   Z               Mass
    ------------   -----------------  -----------------  -----------------  -----------------
         CL           0.000000000000     0.000000000000     0.000000000000    34.968852682000
         BR          10.686401239464     0.000000000000     0.000000000000    78.918337600000

  Charge       = -2
  Multiplicity = 1
  Basis Set: AUG-CC-PVTZ
    Blend: AUG-CC-PVTZ
  Basis Set: (AUG-CC-PVTZ AUX)
    Blend: AUG-CC-PVTZ-JKFIT

    Orbital Energies [Eh]
    ---------------------

    Doubly Occupied:

       1A   -489.630431     2A   -104.416543     3A    -64.770484
       4A    -58.124958     5A    -58.124958     6A    -58.124933
       7A    -10.140220     8A     -9.442862     9A     -7.606254
      10A     -7.606254    11A     -7.606215    12A     -7.050238
      13A     -7.050238    14A     -7.050078    15A     -2.791984
      16A     -2.791984    17A     -2.791796    18A     -2.791796
      19A     -2.791732    20A     -0.643630    21A     -0.595588
      22A     -0.060783    23A     -0.060783    24A     -0.059747
      25A     -0.049383    26A     -0.049383    27A     -0.047433

  @DF-RHF Final Energy: -3032.01608739013363

   => Energetics <=

    Nuclear Repulsion Energy =             55.6782387884438563
    One-Electron Energy =               -4350.8472719582623540
    Two-Electron Energy =                1263.1529457796848419
    Total Energy =                      -3032.0160873901331797
 Dipole X            :       -384.8051109          374.0240434          -10.7810676
 Dipole Y            :         -0.0000000            0.0000000           -0.0000000
 Dipole Z            :         -0.0000000            0.0000000           -0.0000000
 Magnitude           :                                                   10.7810676
  Basis Set: (AUG-CC-PVTZ AUX)
    Blend: AUG-CC-PVTZ-RI
	 Reference Energy          =   -3032.0160873901336345 [Eh]
	 Singles Energy            =      -0.0000000000000000 [Eh]
	 Same-Spin Energy          =      -0.1491432810074410 [Eh]
	 Opposite-Spin Energy      =      -0.3799683710762352 [Eh]
	 Correlation Energy        =      -0.5291116520836763 [Eh]
	 Total Energy              =   -3032.5451990422175186 [Eh]

	 ================> DF-SCS-MP2 Energies <==================
	-----------------------------------------------------------
	 SCS Same-Spin Scale       =       0.3333333333333333 [-]
	 SCS Opposite-Spin Scale   =       1.2000000000000000 [-]
	 SCS Same-Spin Energy      =      -0.0497144270024803 [Eh]
	 SCS Opposite-Spin Energy  =      -0.4559620452914822 [Eh]
	 SCS Correlation Energy    =      -0.5056764722939625 [Eh]
	 SCS Total Energy          =   -3032.5217638624276333 [Eh]
	-----------------------------------------------------------

*** Psi4 exiting successfully. Buy a developer a beer!
