                               Psi4 1.9 release

  ==> Input File <==

--------------------------------------------------------------------------
MEMORY 60 GB

molecule dimer {
-1 1
Cl     0.000000     0.000000     0.000000
--
-1 1
Br     3.770000     0.000000     0.000000

units ang
no_reorient
no_com
symmetry c1
}

set {
basis        aug-cc-pVTZ
scf_type     df
}

energy("mp2", bsse_type="cp")
--------------------------------------------------------------------------

                               Psi4 1.9 release
    Molecular point group: c1
  Charge       = -1
  Multiplicity = 1
  Basis Set: AUG-CC-PVTZ
    Blend: AUG-CC-PVTZ
  Basis Set: (AUG-CC-PVTZ AUX)
    Blend: AUG-CC-PVTZ-JKFIT
  @DF-RHF Final Energy: -2572.53366998793035
    Total Energy =                      -2572.5336699879303524
 Dipole X            :       -256.4737268          249.3493623           -7.1243645
 Dipole Y            :          0.0000000            0.0000000            0.0000000
 Dipole Z            :         -0.0000000            0.0000000           -0.0000000
 Magnitude           :                                                    7.1243645
  Basis Set: (AUG-CC-PVTZ AUX)
    Blend: AUG-CC-PVTZ-RI
	 Reference Energy          =   -2572.5336699879303524 [Eh]
	 Singles Energy            =      -0.0000000000000000 [Eh]
	 Same-Spin Energy          =      -0.0868742038316612 [Eh]
	 Opposite-Spin Energy      =      -0.2014296331671629 [Eh]
	 Correlation Energy        =      -0.2883038369988241 [Eh]
	 Total Energy              =   -2572.8219738249290458 [Eh]
	 SCS Total Energy          =   -2572.8043436156749522 [Eh]
                               Psi4 1.9 release
    Molecular point group: c1
  Multiplicity = 1
  Basis Set: AUG-CC-PVTZ
    Blend: AUG-CC-PVTZ
  Basis Set: (AUG-CC-PVTZ AUX)
    Blend: AUG-CC-PVTZ-JKFIT
  @DF-RHF Final Energy:  -459.57348890306059
    Total Energy =                       -459.5734889030605927
  Basis Set: (AUG-CC-PVTZ AUX)
	 Singles Energy            =      -0.0000000000000000 [Eh]
	 Same-Spin Energy          =      -0.0623357772316535 [Eh]
	 Opposite-Spin Energy      =      -0.1788608778907922 [Eh]
	 Correlation Energy        =      -0.2411966551224457 [Eh]
	 Total Energy              =    -459.8146855581830437 [Eh]
	 SCS Total Energy          =    -459.8089005489400733 [Eh]
                               Psi4 1.9 release
    Molecular point group: c1

    Geometry (in Bohr), charge = -2, multiplicity = 1:

       Center              X                  Y                   Z               Mass
    ------------   -----------------  -----------------  -----------------  -----------------
         CL           0.000000000000     0.000000000000     0.000000000000    34.968852682000
         BR           7.124267492976     0.000000000000     0.000000000000    78.918337600000

  Charge       = -2
  Multiplicity = 1
  Basis Set: AUG-CC-PVTZ
    Blend: AUG-CC-PVTZ
  Basis Set: (AUG-CC-PVTZ AUX)
    Blend: AUG-CC-PVTZ-JKFIT

    Orbital Energies [Eh]
    ---------------------

    Doubly Occupied:

       1A   -489.596150     2A   -104.383785     3A    -64.736113
       4A    -58.090583     5A    -58.090583     6A    -58.090538
       7A    -10.107360     8A     -9.408401     9A     -7.573353
      10A     -7.573353    11A     -7.573297    12A     -7.015775
      13A     -7.015775    14A     -7.015452    15A     -2.757631
      16A     -2.757631    17A     -2.757225    18A     -2.757225
      19A     -2.757088    20A     -0.610537    21A     -0.560181
      22A     -0.035900    23A     -0.028797    24A     -0.028797
      25A     -0.013714    26A     -0.013714    27A      0.001489

  @DF-RHF Final Energy: -3031.97657539678767

   => Energetics <=

    Nuclear Repulsion Energy =             83.5173581826657880
    One-Electron Energy =               -4408.2929270837130389
    Two-Electron Energy =                1292.7989935042598972
    Total Energy =                      -3031.9765753967876663
 Dipole X            :       -256.6687200          249.3493623           -7.3193578
 Dipole Y            :         -0.0000000            0.0000000           -0.0000000
 Dipole Z            :          0.0000000            0.0000000            0.0000000
 Magnitude           :                                                    7.3193578
  Basis Set: (AUG-CC-PVTZ AUX)
    Blend: AUG-CC-PVTZ-RI
	 Reference Energy          =   -3031.9765753967876663 [Eh]
	 Singles Energy            =      -0.0000000000000000 [Eh]
	 Same-Spin Energy          =      -0.1509766832632572 [Eh]
	 Opposite-Spin Energy      =      -0.3826248262077359 [Eh]
	 Correlation Energy        =      -0.5336015094709931 [Eh]
	 Total Energy              =   -3032.5101769062584935 [Eh]

	 ================> DF-SCS-MP2 Energies <==================
	-----------------------------------------------------------
	 SCS Same-Spin Scale       =       0.3333333333333333 [-]
	 SCS Opposite-Spin Scale   =       1.2000000000000000 [-]
	 SCS Same-Spin Energy      =      -0.0503255610877524 [Eh]
	 SCS Opposite-Spin Energy  =      -0.4591497914492830 [Eh]
	 SCS Correlation Energy    =      -0.5094753525370355 [Eh]
	 SCS Total Energy          =   -3032.4860507493244768 [Eh]
	-----------------------------------------------------------

*** Psi4 exiting successfully. Buy a developer a beer!
