                               Psi4 1.9 release

  ==> Input File <==

--------------------------------------------------------------------------
MEMORY 60 GB

molecule dimer {
-1 1
Cl     0.000000     0.000000     0.000000
--
-1 1
Br     5.278000     0.000000     0.000000

units ang
no_reorient
no_com
symmetry c1
}

set {
basis        aug-cc-pVTZ
scf_type     df
}

energy("mp2", bsse_type="cp")
--------------------------------------------------------------------------

                               Psi4 1.9 release
    Molecular point group: c1
  Charge       = -1
  Multiplicity = 1
  Basis Set: AUG-CC-PVTZ
    Blend: AUG-CC-PVTZ
  Basis Set: (AUG-CC-PVTZ AUX)
    Blend: AUG-CC-PVTZ-JKFIT
  @DF-RHF Final Energy: -2572.53366689044287
    Total Energy =                      -2572.5336668904428734
 Dipole X            :       -359.0630775          349.0891072           -9.9739704
 Dipole Y            :          0.0000000            0.0000000            0.0000000
 Dipole Z            :         -0.0000000            0.0000000           -0.0000000
 Magnitude           :                                                    9.9739704
  Basis Set: (AUG-CC-PVTZ AUX)
    Blend: AUG-CC-PVTZ-RI
	 Reference Energy          =   -2572.5336668904428734 [Eh]
	 Singles Energy            =      -0.0000000000000000 [Eh]
	 Same-Spin Energy          =      -0.0866942748975147 [Eh]
	 Opposite-Spin Energy      =      -0.2010305960097446 [Eh]
	 Correlation Energy        =      -0.2877248709072593 [Eh]
	 Total Energy              =   -2572.8213917613502417 [Eh]
	 SCS Total Energy          =   -2572.8038016972868718 [Eh]
                               Psi4 1.9 release
    Molecular point group: c1
  Multiplicity = 1
  Basis Set: AUG-CC-PVTZ
    Blend: AUG-CC-PVTZ
  Basis Set: (AUG-CC-PVTZ AUX)
    Blend: AUG-CC-PVTZ-JKFIT
  @DF-RHF Final Energy:  -459.57348328714659
    Total Energy =                       -459.5734832871465869
  Basis Set: (AUG-CC-PVTZ AUX)
	 Singles Energy            =      -0.0000000000000000 [Eh]
	 Same-Spin Energy          =      -0.0622736722012372 [Eh]
	 Opposite-Spin Energy      =      -0.1786591536942470 [Eh]
	 Correlation Energy        =      -0.2409328258954841 [Eh]
	 Total Energy              =    -459.8144161130420571 [Eh]
	 SCS Total Energy          =    -459.8086321623134154 [Eh]
                               Psi4 1.9 release
    Molecular point group: c1

    Geometry (in Bohr), charge = -2, multiplicity = 1:

       Center              X                  Y                   Z               Mass
    ------------   -----------------  -----------------  -----------------  -----------------
         CL           0.000000000000     0.000000000000     0.000000000000    34.968852682000
         BR           9.973974490166     0.000000000000     0.000000000000    78.918337600000

  Charge       = -2
  Multiplicity = 1
  Basis Set: AUG-CC-PVTZ
    Blend: AUG-CC-PVTZ
  Basis Set: (AUG-CC-PVTZ AUX)
    Blend: AUG-CC-PVTZ-JKFIT

    Orbital Energies [Eh]
    ---------------------

    Doubly Occupied:

       1A   -489.624954     2A   -104.411201     3A    -64.764989
       4A    -58.119464     5A    -58.119464     6A    -58.119436
       7A    -10.134846     8A     -9.437347     9A     -7.600879
      10A     -7.600879    11A     -7.600835    12A     -7.044726
      13A     -7.044726    14A     -7.044543    15A     -2.786485
      16A     -2.786485    17A     -2.786269    18A     -2.786269
      19A     -2.786195    20A     -0.638145    21A     -0.589935
      22A     -0.055363    23A     -0.055363    24A     -0.054328
      25A     -0.043806    26A     -0.043806    27A     -0.041208

  @DF-RHF Final Energy: -3032.01019530643680

   => Energetics <=

    Nuclear Repulsion Energy =             59.6552558447612782
    One-Electron Energy =               -4359.0870037740987755
    Two-Electron Energy =                1267.4215526229006628
    Total Energy =                      -3032.0101953064367990
 Dipole X            :       -359.1703879          349.0891072          -10.0812808
 Dipole Y            :         -0.0000000            0.0000000           -0.0000000
 Dipole Z            :          0.0000000            0.0000000            0.0000000
 Magnitude           :                                                   10.0812808
  Basis Set: (AUG-CC-PVTZ AUX)
    Blend: AUG-CC-PVTZ-RI
	 Reference Energy          =   -3032.0101953064367990 [Eh]
	 Singles Energy            =      -0.0000000000000000 [Eh]
	 Same-Spin Energy          =      -0.1492558091299770 [Eh]
	 Opposite-Spin Energy      =      -0.3801486615658596 [Eh]
	 Correlation Energy        =      -0.5294044706958365 [Eh]
	 Total Energy              =   -3032.5395997771324801 [Eh]

	 ================> DF-SCS-MP2 Energies <==================
	-----------------------------------------------------------
	 SCS Same-Spin Scale       =       0.3333333333333333 [-]
	 SCS Opposite-Spin Scale   =       1.2000000000000000 [-]
	 SCS Same-Spin Energy      =      -0.0497519363766590 [Eh]
	 SCS Opposite-Spin Energy  =      -0.4561783938790315 [Eh]
	 SCS Correlation Energy    =      -0.5059303302556905 [Eh]
	 SCS Total Energy          =   -3032.5161256366923226 [Eh]
	-----------------------------------------------------------

*** Psi4 exiting successfully. Buy a developer a beer!
