                               Psi4 1.9 release

  ==> Input File <==

--------------------------------------------------------------------------
MEMORY 60 GB

molecule dimer {
-1 1
Cl     0.000000     0.000000     0.000000
--
-1 1
Br     4.524000     0.000000     0.000000

units ang
no_reorient
no_com
symmetry c1
}

set {
basis        aug-cc-pVTZ
scf_type     df
}

energy("mp2", bsse_type="cp")
--------------------------------------------------------------------------

                               Psi4 1.9 release
    Molecular point group: c1
  Charge       = -1
  Multiplicity = 1
  Basis Set: AUG-CC-PVTZ
    Blend: AUG-CC-PVTZ
  Basis Set: (AUG-CC-PVTZ AUX)
    Blend: AUG-CC-PVTZ-JKFIT
  @DF-RHF Final Energy: -2572.53366795665715
    Total Energy =                      -2572.5336679566571547
 Dipole X            :       -307.7685394          299.2192347           -8.5493047
 Dipole Y            :          0.0000000            0.0000000            0.0000000
 Dipole Z            :          0.0000000            0.0000000            0.0000000
 Magnitude           :                                                    8.5493047
  Basis Set: (AUG-CC-PVTZ AUX)
    Blend: AUG-CC-PVTZ-RI
	 Reference Energy          =   -2572.5336679566571547 [Eh]
	 Singles Energy            =      -0.0000000000000000 [Eh]
	 Same-Spin Energy          =      -0.0867508036050924 [Eh]
	 Opposite-Spin Energy      =      -0.2011493549710310 [Eh]
	 Correlation Energy        =      -0.2879001585761234 [Eh]
	 Total Energy              =   -2572.8215681152332763 [Eh]
	 SCS Total Energy          =   -2572.8039641171576477 [Eh]
                               Psi4 1.9 release
    Molecular point group: c1
  Multiplicity = 1
  Basis Set: AUG-CC-PVTZ
    Blend: AUG-CC-PVTZ
  Basis Set: (AUG-CC-PVTZ AUX)
    Blend: AUG-CC-PVTZ-JKFIT
  @DF-RHF Final Energy:  -459.57348433336932
    Total Energy =                       -459.5734843333693220
  Basis Set: (AUG-CC-PVTZ AUX)
	 Singles Energy            =      -0.0000000000000000 [Eh]
	 Same-Spin Energy          =      -0.0622896571938075 [Eh]
	 Opposite-Spin Energy      =      -0.1787126897933221 [Eh]
	 Correlation Energy        =      -0.2410023469871296 [Eh]
	 Total Energy              =    -459.8144866803564241 [Eh]
	 SCS Total Energy          =    -459.8087027801859108 [Eh]
                               Psi4 1.9 release
    Molecular point group: c1

    Geometry (in Bohr), charge = -2, multiplicity = 1:

       Center              X                  Y                   Z               Mass
    ------------   -----------------  -----------------  -----------------  -----------------
         CL           0.000000000000     0.000000000000     0.000000000000    34.968852682000
         BR           8.549120991571     0.000000000000     0.000000000000    78.918337600000

  Charge       = -2
  Multiplicity = 1
  Basis Set: AUG-CC-PVTZ
    Blend: AUG-CC-PVTZ
  Basis Set: (AUG-CC-PVTZ AUX)
    Blend: AUG-CC-PVTZ-JKFIT

    Orbital Energies [Eh]
    ---------------------

    Doubly Occupied:

       1A   -489.612163     2A   -104.398872     3A    -64.752153
       4A    -58.106630     5A    -58.106630     6A    -58.106594
       7A    -10.122443     8A     -9.424462     9A     -7.588469
      10A     -7.588469    11A     -7.588415    12A     -7.031844
      13A     -7.031844    14A     -7.031599    15A     -2.773641
      16A     -2.773641    17A     -2.773350    18A     -2.773350
      19A     -2.773247    20A     -0.625471    21A     -0.576658
      22A     -0.043200    23A     -0.042918    24A     -0.042918
      25A     -0.030656    26A     -0.030656    27A     -0.024999

  @DF-RHF Final Energy: -3031.99604108292669

   => Energetics <=

    Nuclear Repulsion Energy =             69.5977984855548186
    One-Electron Energy =               -4379.6370879351597978
    Two-Electron Energy =                1278.0432483666784265
    Total Energy =                      -3031.9960410829271495
 Dipole X            :       -307.9088783          299.2192347           -8.6896436
 Dipole Y            :         -0.0000000            0.0000000           -0.0000000
 Dipole Z            :         -0.0000000            0.0000000           -0.0000000
 Magnitude           :                                                    8.6896436
  Basis Set: (AUG-CC-PVTZ AUX)
    Blend: AUG-CC-PVTZ-RI
	 Reference Energy          =   -3031.9960410829266948 [Eh]
	 Singles Energy            =      -0.0000000000000000 [Eh]
	 Same-Spin Energy          =      -0.1497187874672099 [Eh]
	 Opposite-Spin Energy      =      -0.3808463407183708 [Eh]
	 Correlation Energy        =      -0.5305651281855807 [Eh]
	 Total Energy              =   -3032.5266062111122665 [Eh]

	 ================> DF-SCS-MP2 Energies <==================
	-----------------------------------------------------------
	 SCS Same-Spin Scale       =       0.3333333333333333 [-]
	 SCS Opposite-Spin Scale   =       1.2000000000000000 [-]
	 SCS Same-Spin Energy      =      -0.0499062624890700 [Eh]
	 SCS Opposite-Spin Energy  =      -0.4570156088620449 [Eh]
	 SCS Correlation Energy    =      -0.5069218713511149 [Eh]
	 SCS Total Energy          =   -3032.5029629542777911 [Eh]
	-----------------------------------------------------------

*** Psi4 exiting successfully. Buy a developer a beer!
