                               Psi4 1.9 release

  ==> Input File <==

--------------------------------------------------------------------------
MEMORY 60 GB

molecule dimer {
-1 1
Br     0.000000     0.000000     0.000000
--
-1 1
Br     3.920000     0.000000     0.000000

units ang
no_reorient
no_com
symmetry c1
}

set {
basis        aug-cc-pVTZ
scf_type     df
}

energy("mp2", bsse_type="cp")
--------------------------------------------------------------------------

                               Psi4 1.9 release
    Molecular point group: c1
  Charge       = -1
  Multiplicity = 1
  Basis Set: AUG-CC-PVTZ
    Blend: AUG-CC-PVTZ
  Basis Set: (AUG-CC-PVTZ AUX)
    Blend: AUG-CC-PVTZ-JKFIT
  @DF-RHF Final Energy: -2572.53367054742603
    Total Energy =                      -2572.5336705474255723
 Dipole X            :       -266.6782985          259.2704244           -7.4078741
 Dipole Y            :         -0.0000000            0.0000000           -0.0000000
 Dipole Z            :         -0.0000000            0.0000000           -0.0000000
 Magnitude           :                                                    7.4078741
  Basis Set: (AUG-CC-PVTZ AUX)
    Blend: AUG-CC-PVTZ-RI
	 Reference Energy          =   -2572.5336705474260270 [Eh]
	 Singles Energy            =      -0.0000000000000000 [Eh]
	 Same-Spin Energy          =      -0.0868995805134415 [Eh]
	 Opposite-Spin Energy      =      -0.2014786465210154 [Eh]
	 Correlation Energy        =      -0.2883782270344569 [Eh]
	 Total Energy              =   -2572.8220487744606544 [Eh]
	 SCS Total Energy          =   -2572.8044114500889918 [Eh]
                               Psi4 1.9 release
    Molecular point group: c1
  Multiplicity = 1
  Basis Set: AUG-CC-PVTZ
    Blend: AUG-CC-PVTZ
  Basis Set: (AUG-CC-PVTZ AUX)
    Blend: AUG-CC-PVTZ-JKFIT
  @DF-RHF Final Energy: -2572.53367054728460
    Total Energy =                      -2572.5336705472846006
  Basis Set: (AUG-CC-PVTZ AUX)
	 Singles Energy            =      -0.0000000000000000 [Eh]
	 Same-Spin Energy          =      -0.0868995805139090 [Eh]
	 Opposite-Spin Energy      =      -0.2014786465216403 [Eh]
	 Correlation Energy        =      -0.2883782270355493 [Eh]
	 Total Energy              =   -2572.8220487743201375 [Eh]
	 SCS Total Energy          =   -2572.8044114499484749 [Eh]
                               Psi4 1.9 release
    Molecular point group: c1

    Geometry (in Bohr), charge = -2, multiplicity = 1:

       Center              X                  Y                   Z               Mass
    ------------   -----------------  -----------------  -----------------  -----------------
         BR           0.000000000000     0.000000000000     0.000000000000    78.918337600000
         BR           7.407726411795     0.000000000000     0.000000000000    78.918337600000

  Charge       = -2
  Multiplicity = 1
  Basis Set: AUG-CC-PVTZ
    Blend: AUG-CC-PVTZ
  Basis Set: (AUG-CC-PVTZ AUX)
    Blend: AUG-CC-PVTZ-JKFIT

    Orbital Energies [Eh]
    ---------------------

    Doubly Occupied:

       1A   -489.602101     2A   -489.602101     3A    -64.742090
       4A    -64.742090     5A    -58.096561     6A    -58.096561
       7A    -58.096561     8A    -58.096561     9A    -58.096518
      10A    -58.096518    11A     -9.414395    12A     -9.414394
      13A     -7.021772    14A     -7.021772    15A     -7.021771
      16A     -7.021771    17A     -7.021483    18A     -7.021482
      19A     -2.763608    20A     -2.763608    21A     -2.763607
      22A     -2.763607    23A     -2.763242    24A     -2.763242
      25A     -2.763238    26A     -2.763238    27A     -2.763117
      28A     -2.763113    29A     -0.568822    30A     -0.564495
      31A     -0.033705    32A     -0.024428    33A     -0.024428
      34A     -0.017249    35A     -0.017249    36A      0.000179

  @DF-RHF Final Energy: -5144.94195241691887

   => Energetics <=

    Nuclear Repulsion Energy =            165.3678783343750069
    One-Electron Energy =               -7526.3990268291190660
    Two-Electron Energy =                2216.0891960778244538
    Total Energy =                      -5144.9419524169197757
 Dipole X            :       -266.6781508          259.2704244           -7.4077264
 Dipole Y            :         -0.0000000            0.0000000           -0.0000000
 Dipole Z            :          0.0000000            0.0000000            0.0000000
 Magnitude           :                                                    7.4077264
  Basis Set: (AUG-CC-PVTZ AUX)
    Blend: AUG-CC-PVTZ-RI
	 Reference Energy          =   -5144.9419524169188662 [Eh]
	 Singles Energy            =      -0.0000000000000000 [Eh]
	 Same-Spin Energy          =      -0.1756183121149649 [Eh]
	 Opposite-Spin Energy      =      -0.4053034723236436 [Eh]
	 Correlation Energy        =      -0.5809217844386085 [Eh]
	 Total Energy              =   -5145.5228742013578085 [Eh]

	 ================> DF-SCS-MP2 Energies <==================
	-----------------------------------------------------------
	 SCS Same-Spin Scale       =       0.3333333333333333 [-]
	 SCS Opposite-Spin Scale   =       1.2000000000000000 [-]
	 SCS Same-Spin Energy      =      -0.0585394373716550 [Eh]
	 SCS Opposite-Spin Energy  =      -0.4863641667883723 [Eh]
	 SCS Correlation Energy    =      -0.5449036041600273 [Eh]
	 SCS Total Energy          =   -5145.4868560210788928 [Eh]
	-----------------------------------------------------------

*** Psi4 exiting successfully. Buy a developer a beer!
