                               Psi4 1.9 release

  ==> Input File <==

--------------------------------------------------------------------------
MEMORY 60 GB

molecule dimer {
-1 1
Br     0.000000     0.000000     0.000000
--
-1 1
Br     7.840000     0.000000     0.000000

units ang
no_reorient
no_com
symmetry c1
}

set {
basis        aug-cc-pVTZ
scf_type     df
}

energy("mp2", bsse_type="cp")
--------------------------------------------------------------------------

                               Psi4 1.9 release
    Molecular point group: c1
  Charge       = -1
  Multiplicity = 1
  Basis Set: AUG-CC-PVTZ
    Blend: AUG-CC-PVTZ
  Basis Set: (AUG-CC-PVTZ AUX)
    Blend: AUG-CC-PVTZ-JKFIT
  @DF-RHF Final Energy: -2572.53366585243884
    Total Energy =                      -2572.5336658524388440
 Dipole X            :       -533.3563478          518.5408488          -14.8154990
 Dipole Y            :         -0.0000000            0.0000000           -0.0000000
 Dipole Z            :          0.0000000            0.0000000            0.0000000
 Magnitude           :                                                   14.8154990
  Basis Set: (AUG-CC-PVTZ AUX)
    Blend: AUG-CC-PVTZ-RI
	 Reference Energy          =   -2572.5336658524388440 [Eh]
	 Singles Energy            =      -0.0000000000000000 [Eh]
	 Same-Spin Energy          =      -0.0866457270532215 [Eh]
	 Opposite-Spin Energy      =      -0.2009288443665287 [Eh]
	 Correlation Energy        =      -0.2875745714197502 [Eh]
	 Total Energy              =   -2572.8212404238583986 [Eh]
	 SCS Total Energy          =   -2572.8036623746966143 [Eh]
                               Psi4 1.9 release
    Molecular point group: c1
  Multiplicity = 1
  Basis Set: AUG-CC-PVTZ
    Blend: AUG-CC-PVTZ
  Basis Set: (AUG-CC-PVTZ AUX)
    Blend: AUG-CC-PVTZ-JKFIT
  @DF-RHF Final Energy: -2572.53366585223648
    Total Energy =                      -2572.5336658522364814
  Basis Set: (AUG-CC-PVTZ AUX)
	 Singles Energy            =      -0.0000000000000000 [Eh]
	 Same-Spin Energy          =      -0.0866457270532902 [Eh]
	 Opposite-Spin Energy      =      -0.2009288443666613 [Eh]
	 Correlation Energy        =      -0.2875745714199516 [Eh]
	 Total Energy              =   -2572.8212404236564907 [Eh]
	 SCS Total Energy          =   -2572.8036623744942517 [Eh]
                               Psi4 1.9 release
    Molecular point group: c1

    Geometry (in Bohr), charge = -2, multiplicity = 1:

       Center              X                  Y                   Z               Mass
    ------------   -----------------  -----------------  -----------------  -----------------
         BR           0.000000000000     0.000000000000     0.000000000000    78.918337600000
         BR          14.815452823589     0.000000000000     0.000000000000    78.918337600000

  Charge       = -2
  Multiplicity = 1
  Basis Set: AUG-CC-PVTZ
    Blend: AUG-CC-PVTZ
  Basis Set: (AUG-CC-PVTZ AUX)
    Blend: AUG-CC-PVTZ-JKFIT

    Orbital Energies [Eh]
    ---------------------

    Doubly Occupied:

       1A   -489.653946     2A   -489.653946     3A    -64.794047
       4A    -64.794047     5A    -58.148515     6A    -58.148515
       7A    -58.148515     8A    -58.148515     9A    -58.148502
      10A    -58.148502    11A     -9.466474    12A     -9.466474
      13A     -7.073834    14A     -7.073834    15A     -7.073834
      16A     -7.073834    17A     -7.073759    18A     -7.073759
      19A     -2.815536    20A     -2.815536    21A     -2.815536
      22A     -2.815536    23A     -2.815445    24A     -2.815445
      25A     -2.815445    26A     -2.815445    27A     -2.815415
      28A     -2.815415    29A     -0.619536    30A     -0.619534
      31A     -0.073078    32A     -0.073078    33A     -0.073042
      34A     -0.073042    35A     -0.072559    36A     -0.072270

  @DF-RHF Final Energy: -5145.00061226136040

   => Energetics <=

    Nuclear Repulsion Energy =             82.6839391671875035
    One-Electron Energy =               -7357.3816030285588567
    Two-Electron Energy =                2129.6970516000110365
    Total Energy =                      -5145.0006122613604020
 Dipole X            :       -533.3563016          518.5408488          -14.8154528
 Dipole Y            :          0.0000000            0.0000000            0.0000000
 Dipole Z            :          0.0000000            0.0000000            0.0000000
 Magnitude           :                                                   14.8154528
  Basis Set: (AUG-CC-PVTZ AUX)
    Blend: AUG-CC-PVTZ-RI
	 Reference Energy          =   -5145.0006122613604020 [Eh]
	 Singles Energy            =      -0.0000000000000000 [Eh]
	 Same-Spin Energy          =      -0.1733282052281751 [Eh]
	 Opposite-Spin Energy      =      -0.4019318421983909 [Eh]
	 Correlation Energy        =      -0.5752600474265660 [Eh]
	 Total Energy              =   -5145.5758723087865292 [Eh]

	 ================> DF-SCS-MP2 Energies <==================
	-----------------------------------------------------------
	 SCS Same-Spin Scale       =       0.3333333333333333 [-]
	 SCS Opposite-Spin Scale   =       1.2000000000000000 [-]
	 SCS Same-Spin Energy      =      -0.0577760684093917 [Eh]
	 SCS Opposite-Spin Energy  =      -0.4823182106380691 [Eh]
	 SCS Correlation Energy    =      -0.5400942790474608 [Eh]
	 SCS Total Energy          =   -5145.5407065404078821 [Eh]
	-----------------------------------------------------------

*** Psi4 exiting successfully. Buy a developer a beer!
