                               Psi4 1.9 release

  ==> Input File <==

--------------------------------------------------------------------------
MEMORY 60 GB

molecule dimer {
-1 1
Br     0.000000     0.000000     0.000000
--
-1 1
Br     5.488000     0.000000     0.000000

units ang
no_reorient
no_com
symmetry c1
}

set {
basis        aug-cc-pVTZ
scf_type     df
}

energy("mp2", bsse_type="cp")
--------------------------------------------------------------------------

                               Psi4 1.9 release
    Molecular point group: c1
  Charge       = -1
  Multiplicity = 1
  Basis Set: AUG-CC-PVTZ
    Blend: AUG-CC-PVTZ
  Basis Set: (AUG-CC-PVTZ AUX)
    Blend: AUG-CC-PVTZ-JKFIT
  @DF-RHF Final Energy: -2572.53366694631723
    Total Energy =                      -2572.5336669463172257
 Dipole X            :       -373.3493681          362.9785942          -10.3707739
 Dipole Y            :          0.0000000            0.0000000            0.0000000
 Dipole Z            :         -0.0000000            0.0000000           -0.0000000
 Magnitude           :                                                   10.3707739
  Basis Set: (AUG-CC-PVTZ AUX)
    Blend: AUG-CC-PVTZ-RI
	 Reference Energy          =   -2572.5336669463172257 [Eh]
	 Singles Energy            =      -0.0000000000000000 [Eh]
	 Same-Spin Energy          =      -0.0867012355011788 [Eh]
	 Opposite-Spin Energy      =      -0.2010456285462854 [Eh]
	 Correlation Energy        =      -0.2877468640474641 [Eh]
	 Total Energy              =   -2572.8214138103649020 [Eh]
	 SCS Total Energy          =   -2572.8038221124065785 [Eh]
                               Psi4 1.9 release
    Molecular point group: c1
  Multiplicity = 1
  Basis Set: AUG-CC-PVTZ
    Blend: AUG-CC-PVTZ
  Basis Set: (AUG-CC-PVTZ AUX)
    Blend: AUG-CC-PVTZ-JKFIT
  @DF-RHF Final Energy: -2572.53366694624447
    Total Energy =                      -2572.5336669462440113
  Basis Set: (AUG-CC-PVTZ AUX)
	 Singles Energy            =      -0.0000000000000000 [Eh]
	 Same-Spin Energy          =      -0.0867012355013316 [Eh]
	 Opposite-Spin Energy      =      -0.2010456285464538 [Eh]
	 Correlation Energy        =      -0.2877468640477854 [Eh]
	 Total Energy              =   -2572.8214138102921424 [Eh]
	 SCS Total Energy          =   -2572.8038221123338189 [Eh]
                               Psi4 1.9 release
    Molecular point group: c1

    Geometry (in Bohr), charge = -2, multiplicity = 1:

       Center              X                  Y                   Z               Mass
    ------------   -----------------  -----------------  -----------------  -----------------
         BR           0.000000000000     0.000000000000     0.000000000000    78.918337600000
         BR          10.370816976513     0.000000000000     0.000000000000    78.918337600000

  Charge       = -2
  Multiplicity = 1
  Basis Set: AUG-CC-PVTZ
    Blend: AUG-CC-PVTZ
  Basis Set: (AUG-CC-PVTZ AUX)
    Blend: AUG-CC-PVTZ-JKFIT

    Orbital Energies [Eh]
    ---------------------

    Doubly Occupied:

       1A   -489.629008     2A   -489.629008     3A    -64.769050
       4A    -64.769050     5A    -58.123525     6A    -58.123525
       7A    -58.123525     8A    -58.123525     9A    -58.123499
      10A    -58.123499    11A     -9.441413    12A     -9.441413
      13A     -7.048789    14A     -7.048789    15A     -7.048789
      16A     -7.048789    17A     -7.048626    18A     -7.048625
      19A     -2.790537    20A     -2.790537    21A     -2.790537
      22A     -2.790537    23A     -2.790345    24A     -2.790345
      25A     -2.790345    26A     -2.790345    27A     -2.790279
      28A     -2.790278    29A     -0.594185    30A     -0.594001
      31A     -0.048372    32A     -0.048289    33A     -0.048289
      34A     -0.047524    35A     -0.047524    36A     -0.043727

  @DF-RHF Final Energy: -5144.97420271993542

   => Energetics <=

    Nuclear Repulsion Energy =            118.1199130959821417
    One-Electron Energy =               -7430.0113527343282840
    Two-Electron Energy =                2166.9172369184102536
    Total Energy =                      -5144.9742027199354197
 Dipole X            :       -373.3494112          362.9785942          -10.3708170
 Dipole Y            :         -0.0000000            0.0000000           -0.0000000
 Dipole Z            :          0.0000000            0.0000000            0.0000000
 Magnitude           :                                                   10.3708170
  Basis Set: (AUG-CC-PVTZ AUX)
    Blend: AUG-CC-PVTZ-RI
	 Reference Energy          =   -5144.9742027199354197 [Eh]
	 Singles Energy            =      -0.0000000000000000 [Eh]
	 Same-Spin Energy          =      -0.1736919684215276 [Eh]
	 Opposite-Spin Energy      =      -0.4025417065657915 [Eh]
	 Correlation Energy        =      -0.5762336749873191 [Eh]
	 Total Energy              =   -5145.5504363949230537 [Eh]

	 ================> DF-SCS-MP2 Energies <==================
	-----------------------------------------------------------
	 SCS Same-Spin Scale       =       0.3333333333333333 [-]
	 SCS Opposite-Spin Scale   =       1.2000000000000000 [-]
	 SCS Same-Spin Energy      =      -0.0578973228071759 [Eh]
	 SCS Opposite-Spin Energy  =      -0.4830500478789498 [Eh]
	 SCS Correlation Energy    =      -0.5409473706861256 [Eh]
	 SCS Total Energy          =   -5145.5151500906213187 [Eh]
	-----------------------------------------------------------

*** Psi4 exiting successfully. Buy a developer a beer!
