                               Psi4 1.9 release

  ==> Input File <==

--------------------------------------------------------------------------
MEMORY 60 GB

molecule dimer {
-1 1
Br     0.000000     0.000000     0.000000
--
-1 1
Br     4.312000     0.000000     0.000000

units ang
no_reorient
no_com
symmetry c1
}

set {
basis        aug-cc-pVTZ
scf_type     df
}

energy("mp2", bsse_type="cp")
--------------------------------------------------------------------------

                               Psi4 1.9 release
    Molecular point group: c1
  Charge       = -1
  Multiplicity = 1
  Basis Set: AUG-CC-PVTZ
    Blend: AUG-CC-PVTZ
  Basis Set: (AUG-CC-PVTZ AUX)
    Blend: AUG-CC-PVTZ-JKFIT
  @DF-RHF Final Energy: -2572.53366945265225
    Total Energy =                      -2572.5336694526527026
 Dipole X            :       -293.3461547          285.1974669           -8.1486878
 Dipole Y            :         -0.0000000            0.0000000           -0.0000000
 Dipole Z            :         -0.0000000            0.0000000           -0.0000000
 Magnitude           :                                                    8.1486878
  Basis Set: (AUG-CC-PVTZ AUX)
    Blend: AUG-CC-PVTZ-RI
	 Reference Energy          =   -2572.5336694526522479 [Eh]
	 Singles Energy            =      -0.0000000000000000 [Eh]
	 Same-Spin Energy          =      -0.0868213855622575 [Eh]
	 Opposite-Spin Energy      =      -0.2013019873833642 [Eh]
	 Correlation Energy        =      -0.2881233729456218 [Eh]
	 Total Energy              =   -2572.8217928255980951 [Eh]
	 SCS Total Energy          =   -2572.8041722993662006 [Eh]
                               Psi4 1.9 release
    Molecular point group: c1
  Multiplicity = 1
  Basis Set: AUG-CC-PVTZ
    Blend: AUG-CC-PVTZ
  Basis Set: (AUG-CC-PVTZ AUX)
    Blend: AUG-CC-PVTZ-JKFIT
  @DF-RHF Final Energy: -2572.53366945245079
    Total Energy =                      -2572.5336694524512495
  Basis Set: (AUG-CC-PVTZ AUX)
	 Singles Energy            =      -0.0000000000000000 [Eh]
	 Same-Spin Energy          =      -0.0868213855627524 [Eh]
	 Opposite-Spin Energy      =      -0.2013019873839996 [Eh]
	 Correlation Energy        =      -0.2881233729467521 [Eh]
	 Total Energy              =   -2572.8217928253975515 [Eh]
	 SCS Total Energy          =   -2572.8041722991656570 [Eh]
                               Psi4 1.9 release
    Molecular point group: c1

    Geometry (in Bohr), charge = -2, multiplicity = 1:

       Center              X                  Y                   Z               Mass
    ------------   -----------------  -----------------  -----------------  -----------------
         BR           0.000000000000     0.000000000000     0.000000000000    78.918337600000
         BR           8.148499052974     0.000000000000     0.000000000000    78.918337600000

  Charge       = -2
  Multiplicity = 1
  Basis Set: AUG-CC-PVTZ
    Blend: AUG-CC-PVTZ
  Basis Set: (AUG-CC-PVTZ AUX)
    Blend: AUG-CC-PVTZ-JKFIT

    Orbital Energies [Eh]
    ---------------------

    Doubly Occupied:

       1A   -489.609938     2A   -489.609938     3A    -64.749926
       4A    -64.749926     5A    -58.104403     6A    -58.104403
       7A    -58.104403     8A    -58.104403     9A    -58.104365
      10A    -58.104365    11A     -9.422228    12A     -9.422227
      13A     -7.029609    14A     -7.029609    15A     -7.029609
      16A     -7.029609    17A     -7.029356    18A     -7.029355
      19A     -2.771416    20A     -2.771416    21A     -2.771416
      22A     -2.771416    23A     -2.771107    24A     -2.771107
      25A     -2.771105    26A     -2.771105    27A     -2.770999
      28A     -2.770996    29A     -0.575442    30A     -0.573505
      31A     -0.035465    32A     -0.030582    33A     -0.030582
      34A     -0.026563    35A     -0.026563    36A     -0.015076

  @DF-RHF Final Energy: -5144.95225602102164

   => Energetics <=

    Nuclear Repulsion Energy =            150.3344348494318012
    One-Electron Energy =               -7495.7863151716355787
    Two-Electron Energy =                2200.4996243011819388
    Total Energy =                      -5144.9522560210216398
 Dipole X            :       -293.3459659          285.1974669           -8.1484991
 Dipole Y            :         -0.0000000            0.0000000           -0.0000000
 Dipole Z            :         -0.0000000            0.0000000           -0.0000000
 Magnitude           :                                                    8.1484991
  Basis Set: (AUG-CC-PVTZ AUX)
    Blend: AUG-CC-PVTZ-RI
	 Reference Energy          =   -5144.9522560210216398 [Eh]
	 Singles Energy            =      -0.0000000000000000 [Eh]
	 Same-Spin Energy          =      -0.1747466473528587 [Eh]
	 Opposite-Spin Energy      =      -0.4040931591965963 [Eh]
	 Correlation Energy        =      -0.5788398065494550 [Eh]
	 Total Energy              =   -5145.5310958275713347 [Eh]

	 ================> DF-SCS-MP2 Energies <==================
	-----------------------------------------------------------
	 SCS Same-Spin Scale       =       0.3333333333333333 [-]
	 SCS Opposite-Spin Scale   =       1.2000000000000000 [-]
	 SCS Same-Spin Energy      =      -0.0582488824509529 [Eh]
	 SCS Opposite-Spin Energy  =      -0.4849117910359156 [Eh]
	 SCS Correlation Energy    =      -0.5431606734868685 [Eh]
	 SCS Total Energy          =   -5145.4954166945080942 [Eh]
	-----------------------------------------------------------

*** Psi4 exiting successfully. Buy a developer a beer!
