                               Psi4 1.9 release

  ==> Input File <==

--------------------------------------------------------------------------
MEMORY 60 GB

molecule dimer {
-1 1
Br     0.000000     0.000000     0.000000
--
-1 1
Br     5.096000     0.000000     0.000000

units ang
no_reorient
no_com
symmetry c1
}

set {
basis        aug-cc-pVTZ
scf_type     df
}

energy("mp2", bsse_type="cp")
--------------------------------------------------------------------------

                               Psi4 1.9 release
    Molecular point group: c1
  Charge       = -1
  Multiplicity = 1
  Basis Set: AUG-CC-PVTZ
    Blend: AUG-CC-PVTZ
  Basis Set: (AUG-CC-PVTZ AUX)
    Blend: AUG-CC-PVTZ-JKFIT
  @DF-RHF Final Energy: -2572.53366737365104
    Total Energy =                      -2572.5336673736510420
 Dipole X            :       -346.6816194          337.0515517           -9.6300677
 Dipole Y            :         -0.0000000            0.0000000           -0.0000000
 Dipole Z            :          0.0000000            0.0000000            0.0000000
 Magnitude           :                                                    9.6300677
  Basis Set: (AUG-CC-PVTZ AUX)
    Blend: AUG-CC-PVTZ-RI
	 Reference Energy          =   -2572.5336673736510420 [Eh]
	 Singles Energy            =      -0.0000000000000000 [Eh]
	 Same-Spin Energy          =      -0.0867260578943795 [Eh]
	 Opposite-Spin Energy      =      -0.2010975649813991 [Eh]
	 Correlation Energy        =      -0.2878236228757786 [Eh]
	 Total Energy              =   -2572.8214909965267907 [Eh]
	 SCS Total Energy          =   -2572.8038931375936045 [Eh]
                               Psi4 1.9 release
    Molecular point group: c1
  Multiplicity = 1
  Basis Set: AUG-CC-PVTZ
    Blend: AUG-CC-PVTZ
  Basis Set: (AUG-CC-PVTZ AUX)
    Blend: AUG-CC-PVTZ-JKFIT
  @DF-RHF Final Energy: -2572.53366737374881
    Total Energy =                      -2572.5336673737483579
  Basis Set: (AUG-CC-PVTZ AUX)
	 Singles Energy            =      -0.0000000000000000 [Eh]
	 Same-Spin Energy          =      -0.0867260578940243 [Eh]
	 Opposite-Spin Energy      =      -0.2010975649809937 [Eh]
	 Correlation Energy        =      -0.2878236228750179 [Eh]
	 Total Energy              =   -2572.8214909966236519 [Eh]
	 SCS Total Energy          =   -2572.8038931376904657 [Eh]
                               Psi4 1.9 release
    Molecular point group: c1

    Geometry (in Bohr), charge = -2, multiplicity = 1:

       Center              X                  Y                   Z               Mass
    ------------   -----------------  -----------------  -----------------  -----------------
         BR           0.000000000000     0.000000000000     0.000000000000    78.918337600000
         BR           9.630044335333     0.000000000000     0.000000000000    78.918337600000

  Charge       = -2
  Multiplicity = 1
  Basis Set: AUG-CC-PVTZ
    Blend: AUG-CC-PVTZ
  Basis Set: (AUG-CC-PVTZ AUX)
    Blend: AUG-CC-PVTZ-JKFIT

    Orbital Energies [Eh]
    ---------------------

    Doubly Occupied:

       1A   -489.623294     2A   -489.623294     3A    -64.763317
       4A    -64.763317     5A    -58.117794     6A    -58.117794
       7A    -58.117794     8A    -58.117794     9A    -58.117764
      10A    -58.117764    11A     -9.435659    12A     -9.435659
      13A     -7.043037    14A     -7.043037    15A     -7.043037
      16A     -7.043037    17A     -7.042849    18A     -7.042849
      19A     -2.784800    20A     -2.784800    21A     -2.784800
      22A     -2.784800    23A     -2.784578    24A     -2.784578
      25A     -2.784577    26A     -2.784577    27A     -2.784501
      28A     -2.784499    29A     -0.588396    30A     -0.587996
      31A     -0.043618    32A     -0.042752    33A     -0.042752
      34A     -0.041437    35A     -0.041437    36A     -0.036070

  @DF-RHF Final Energy: -5144.96785952722894

   => Energetics <=

    Nuclear Repulsion Energy =            127.2060602572115329
    One-Electron Energy =               -7448.5877229679708762
    Two-Electron Energy =                2176.4138031835309448
    Total Energy =                      -5144.9678595272280290
 Dipole X            :       -346.6815961          337.0515517           -9.6300443
 Dipole Y            :         -0.0000000            0.0000000           -0.0000000
 Dipole Z            :         -0.0000000            0.0000000           -0.0000000
 Magnitude           :                                                    9.6300443
  Basis Set: (AUG-CC-PVTZ AUX)
    Blend: AUG-CC-PVTZ-RI
	 Reference Energy          =   -5144.9678595272289385 [Eh]
	 Singles Energy            =      -0.0000000000000000 [Eh]
	 Same-Spin Energy          =      -0.1738930751841818 [Eh]
	 Opposite-Spin Energy      =      -0.4028494750483589 [Eh]
	 Correlation Energy        =      -0.5767425502325407 [Eh]
	 Total Energy              =   -5145.5446020774616045 [Eh]

	 ================> DF-SCS-MP2 Energies <==================
	-----------------------------------------------------------
	 SCS Same-Spin Scale       =       0.3333333333333333 [-]
	 SCS Opposite-Spin Scale   =       1.2000000000000000 [-]
	 SCS Same-Spin Energy      =      -0.0579643583947273 [Eh]
	 SCS Opposite-Spin Energy  =      -0.4834193700580307 [Eh]
	 SCS Correlation Energy    =      -0.5413837284527580 [Eh]
	 SCS Total Energy          =   -5145.5092432556821223 [Eh]
	-----------------------------------------------------------

*** Psi4 exiting successfully. Buy a developer a beer!
