                               Psi4 1.9 release

  ==> Input File <==

--------------------------------------------------------------------------
MEMORY 60 GB

molecule dimer {
-1 1
Br     0.000000     0.000000     0.000000
--
-1 1
Br     5.880000     0.000000     0.000000

units ang
no_reorient
no_com
symmetry c1
}

set {
basis        aug-cc-pVTZ
scf_type     df
}

energy("mp2", bsse_type="cp")
--------------------------------------------------------------------------

                               Psi4 1.9 release
    Molecular point group: c1
  Charge       = -1
  Multiplicity = 1
  Basis Set: AUG-CC-PVTZ
    Blend: AUG-CC-PVTZ
  Basis Set: (AUG-CC-PVTZ AUX)
    Blend: AUG-CC-PVTZ-JKFIT
  @DF-RHF Final Energy: -2572.53366655007858
    Total Energy =                      -2572.5336665500785784
 Dipole X            :       -400.0172323          388.9056366          -11.1115957
 Dipole Y            :          0.0000000            0.0000000            0.0000000
 Dipole Z            :          0.0000000            0.0000000            0.0000000
 Magnitude           :                                                   11.1115957
  Basis Set: (AUG-CC-PVTZ AUX)
    Blend: AUG-CC-PVTZ-RI
	 Reference Energy          =   -2572.5336665500785784 [Eh]
	 Singles Energy            =      -0.0000000000000000 [Eh]
	 Same-Spin Energy          =      -0.0866845057004213 [Eh]
	 Opposite-Spin Energy      =      -0.2010106348476728 [Eh]
	 Correlation Energy        =      -0.2876951405480941 [Eh]
	 Total Energy              =   -2572.8213616906268726 [Eh]
	 SCS Total Energy          =   -2572.8037741471293884 [Eh]
                               Psi4 1.9 release
    Molecular point group: c1
  Multiplicity = 1
  Basis Set: AUG-CC-PVTZ
    Blend: AUG-CC-PVTZ
  Basis Set: (AUG-CC-PVTZ AUX)
    Blend: AUG-CC-PVTZ-JKFIT
  @DF-RHF Final Energy: -2572.53366654999672
    Total Energy =                      -2572.5336665499967239
  Basis Set: (AUG-CC-PVTZ AUX)
	 Singles Energy            =      -0.0000000000000000 [Eh]
	 Same-Spin Energy          =      -0.0866845057004037 [Eh]
	 Opposite-Spin Energy      =      -0.2010106348476909 [Eh]
	 Correlation Energy        =      -0.2876951405480946 [Eh]
	 Total Energy              =   -2572.8213616905450181 [Eh]
	 SCS Total Energy          =   -2572.8037741470475339 [Eh]
                               Psi4 1.9 release
    Molecular point group: c1

    Geometry (in Bohr), charge = -2, multiplicity = 1:

       Center              X                  Y                   Z               Mass
    ------------   -----------------  -----------------  -----------------  -----------------
         BR           0.000000000000     0.000000000000     0.000000000000    78.918337600000
         BR          11.111589617692     0.000000000000     0.000000000000    78.918337600000

  Charge       = -2
  Multiplicity = 1
  Basis Set: AUG-CC-PVTZ
    Blend: AUG-CC-PVTZ
  Basis Set: (AUG-CC-PVTZ AUX)
    Blend: AUG-CC-PVTZ-JKFIT

    Orbital Energies [Eh]
    ---------------------

    Doubly Occupied:

       1A   -489.634191     2A   -489.634191     3A    -64.774249
       4A    -64.774249     5A    -58.128723     6A    -58.128723
       7A    -58.128723     8A    -58.128723     9A    -58.128700
      10A    -58.128700    11A     -9.446631    12A     -9.446631
      13A     -7.054004    14A     -7.054004    15A     -7.054004
      16A     -7.054004    17A     -7.053861    18A     -7.053861
      19A     -2.795741    20A     -2.795741    21A     -2.795741
      22A     -2.795741    23A     -2.795573    24A     -2.795573
      25A     -2.795573    26A     -2.795573    27A     -2.795516
      28A     -2.795515    29A     -0.599468    30A     -0.599382
      31A     -0.053392    32A     -0.053392    33A     -0.053073
      34A     -0.052941    35A     -0.052941    36A     -0.050193

  @DF-RHF Final Energy: -5144.97984662606905

   => Energetics <=

    Nuclear Repulsion Energy =            110.2452522229166760
    One-Electron Energy =               -7413.8957094360930569
    Two-Electron Energy =                2158.6706105871071486
    Total Energy =                      -5144.9798466260690475
 Dipole X            :       -400.0172262          388.9056366          -11.1115896
 Dipole Y            :         -0.0000000            0.0000000           -0.0000000
 Dipole Z            :         -0.0000000            0.0000000           -0.0000000
 Magnitude           :                                                   11.1115896
  Basis Set: (AUG-CC-PVTZ AUX)
    Blend: AUG-CC-PVTZ-RI
	 Reference Energy          =   -5144.9798466260690475 [Eh]
	 Singles Energy            =      -0.0000000000000000 [Eh]
	 Same-Spin Energy          =      -0.1735637014036339 [Eh]
	 Opposite-Spin Energy      =      -0.4023386073819556 [Eh]
	 Correlation Energy        =      -0.5759023087855895 [Eh]
	 Total Energy              =   -5145.5557489348548188 [Eh]

	 ================> DF-SCS-MP2 Energies <==================
	-----------------------------------------------------------
	 SCS Same-Spin Scale       =       0.3333333333333333 [-]
	 SCS Opposite-Spin Scale   =       1.2000000000000000 [-]
	 SCS Same-Spin Energy      =      -0.0578545671345446 [Eh]
	 SCS Opposite-Spin Energy  =      -0.4828063288583467 [Eh]
	 SCS Correlation Energy    =      -0.5406608959928914 [Eh]
	 SCS Total Energy          =   -5145.5205075220619619 [Eh]
	-----------------------------------------------------------

*** Psi4 exiting successfully. Buy a developer a beer!
