                               Psi4 1.9 release

  ==> Input File <==

--------------------------------------------------------------------------
MEMORY 60 GB

molecule dimer {
-1 1
Br     0.000000     0.000000     0.000000
--
-1 1
Br     4.704000     0.000000     0.000000

units ang
no_reorient
no_com
symmetry c1
}

set {
basis        aug-cc-pVTZ
scf_type     df
}

energy("mp2", bsse_type="cp")
--------------------------------------------------------------------------

                               Psi4 1.9 release
    Molecular point group: c1
  Charge       = -1
  Multiplicity = 1
  Basis Set: AUG-CC-PVTZ
    Blend: AUG-CC-PVTZ
  Basis Set: (AUG-CC-PVTZ AUX)
    Blend: AUG-CC-PVTZ-JKFIT
  @DF-RHF Final Energy: -2572.53366807879092
    Total Energy =                      -2572.5336680787904697
 Dipole X            :       -320.0139329          311.1245093           -8.8894236
 Dipole Y            :         -0.0000000            0.0000000           -0.0000000
 Dipole Z            :         -0.0000000            0.0000000           -0.0000000
 Magnitude           :                                                    8.8894236
  Basis Set: (AUG-CC-PVTZ AUX)
    Blend: AUG-CC-PVTZ-RI
	 Reference Energy          =   -2572.5336680787909245 [Eh]
	 Singles Energy            =      -0.0000000000000000 [Eh]
	 Same-Spin Energy          =      -0.0867643598006852 [Eh]
	 Opposite-Spin Energy      =      -0.2011785689248690 [Eh]
	 Correlation Energy        =      -0.2879429287255542 [Eh]
	 Total Energy              =   -2572.8216110075163670 [Eh]
	 SCS Total Energy          =   -2572.8040038147678388 [Eh]
                               Psi4 1.9 release
    Molecular point group: c1
  Multiplicity = 1
  Basis Set: AUG-CC-PVTZ
    Blend: AUG-CC-PVTZ
  Basis Set: (AUG-CC-PVTZ AUX)
    Blend: AUG-CC-PVTZ-JKFIT
  @DF-RHF Final Energy: -2572.53366807886459
    Total Energy =                      -2572.5336680788645936
  Basis Set: (AUG-CC-PVTZ AUX)
	 Singles Energy            =      -0.0000000000000000 [Eh]
	 Same-Spin Energy          =      -0.0867643598006309 [Eh]
	 Opposite-Spin Energy      =      -0.2011785689247493 [Eh]
	 Correlation Energy        =      -0.2879429287253802 [Eh]
	 Total Energy              =   -2572.8216110075900360 [Eh]
	 SCS Total Energy          =   -2572.8040038148410531 [Eh]
                               Psi4 1.9 release
    Molecular point group: c1

    Geometry (in Bohr), charge = -2, multiplicity = 1:

       Center              X                  Y                   Z               Mass
    ------------   -----------------  -----------------  -----------------  -----------------
         BR           0.000000000000     0.000000000000     0.000000000000    78.918337600000
         BR           8.889271694154     0.000000000000     0.000000000000    78.918337600000

  Charge       = -2
  Multiplicity = 1
  Basis Set: AUG-CC-PVTZ
    Blend: AUG-CC-PVTZ
  Basis Set: (AUG-CC-PVTZ AUX)
    Blend: AUG-CC-PVTZ-JKFIT

    Orbital Energies [Eh]
    ---------------------

    Doubly Occupied:

       1A   -489.616971     2A   -489.616971     3A    -64.756974
       4A    -64.756974     5A    -58.111452     6A    -58.111452
       7A    -58.111452     8A    -58.111452     9A    -58.111418
      10A    -58.111418    11A     -9.429293    12A     -9.429293
      13A     -7.036673    14A     -7.036673    15A     -7.036673
      16A     -7.036673    17A     -7.036456    18A     -7.036455
      19A     -2.778456    20A     -2.778456    21A     -2.778456
      22A     -2.778456    23A     -2.778196    24A     -2.778196
      25A     -2.778194    26A     -2.778194    27A     -2.778104
      28A     -2.778102    29A     -0.582109    30A     -0.581234
      31A     -0.039123    32A     -0.036808    33A     -0.036808
      34A     -0.034525    35A     -0.034525    36A     -0.026763

  @DF-RHF Final Energy: -5144.96065030487080

   => Energetics <=

    Nuclear Repulsion Energy =            137.8065652786458486
    One-Electron Energy =               -7470.2355841060634702
    Two-Electron Energy =                2187.4683685225459158
    Total Energy =                      -5144.9606503048707964
 Dipole X            :       -320.0137810          311.1245093           -8.8892717
 Dipole Y            :          0.0000000            0.0000000            0.0000000
 Dipole Z            :          0.0000000            0.0000000            0.0000000
 Magnitude           :                                                    8.8892717
  Basis Set: (AUG-CC-PVTZ AUX)
    Blend: AUG-CC-PVTZ-RI
	 Reference Energy          =   -5144.9606503048707964 [Eh]
	 Singles Energy            =      -0.0000000000000000 [Eh]
	 Same-Spin Energy          =      -0.1742173666732885 [Eh]
	 Opposite-Spin Energy      =      -0.4033312438687768 [Eh]
	 Correlation Energy        =      -0.5775486105420654 [Eh]
	 Total Energy              =   -5145.5381989154129769 [Eh]

	 ================> DF-SCS-MP2 Energies <==================
	-----------------------------------------------------------
	 SCS Same-Spin Scale       =       0.3333333333333333 [-]
	 SCS Opposite-Spin Scale   =       1.2000000000000000 [-]
	 SCS Same-Spin Energy      =      -0.0580724555577628 [Eh]
	 SCS Opposite-Spin Energy  =      -0.4839974926425322 [Eh]
	 SCS Correlation Energy    =      -0.5420699482002950 [Eh]
	 SCS Total Energy          =   -5145.5027202530709474 [Eh]
	-----------------------------------------------------------

*** Psi4 exiting successfully. Buy a developer a beer!
