                               Psi4 1.9 release

  ==> Input File <==

--------------------------------------------------------------------------
MEMORY 60 GB

molecule dimer {
0 1
O      0.000000     0.000000     0.000000
H      0.588538     0.756918     0.000000
H      0.588538    -0.756918     0.000000
--
1 1
Li     2.808000     0.000000     0.000000

units ang
no_reorient
no_com
symmetry c1
}

set {
basis        aug-cc-pVTZ
scf_type     df
}

energy("mp2", bsse_type="cp")
--------------------------------------------------------------------------

                               Psi4 1.9 release
    Molecular point group: c1
  Charge       = 1
  Multiplicity = 1
  Basis Set: AUG-CC-PVTZ
    Blend: AUG-CC-PVTZ
  Basis Set: (AUG-CC-PVTZ AUX)
    Blend: AUG-CC-PVTZ-JKFIT + DEF2-UNIVERSAL-JKFIT
  @DF-RHF Final Energy:    -7.23638325002673
    Total Energy =                         -7.2363832500267318
 Dipole X            :        -10.6127862           15.9190529            5.3062667
 Dipole Y            :         -0.0000000            0.0000000           -0.0000000
 Dipole Z            :         -0.0000000            0.0000000           -0.0000000
 Magnitude           :                                                    5.3062667
  Basis Set: (AUG-CC-PVTZ AUX)
    Blend: AUG-CC-PVTZ-RI + DEF2-QZVPP-RI
	 Reference Energy          =      -7.2363832500267318 [Eh]
	 Singles Energy            =      -0.0000000000000000 [Eh]
	 Same-Spin Energy          =       0.0000000000000000 [Eh]
	 Opposite-Spin Energy      =      -0.0119478311021532 [Eh]
	 Correlation Energy        =      -0.0119478311021532 [Eh]
	 Total Energy              =      -7.2483310811288852 [Eh]
	 SCS Total Energy          =      -7.2507206473493158 [Eh]
                               Psi4 1.9 release
    Molecular point group: c1
  Multiplicity = 1
  Basis Set: AUG-CC-PVTZ
    Blend: AUG-CC-PVTZ
  Basis Set: (AUG-CC-PVTZ AUX)
    Blend: AUG-CC-PVTZ-JKFIT + DEF2-UNIVERSAL-JKFIT
  @DF-RHF Final Energy:   -76.06051261543516
    Total Energy =                        -76.0605126154351581
  Basis Set: (AUG-CC-PVTZ AUX)
	 Singles Energy            =      -0.0000000000000000 [Eh]
	 Same-Spin Energy          =      -0.0683927652371327 [Eh]
	 Opposite-Spin Energy      =      -0.2154986945041295 [Eh]
	 Correlation Energy        =      -0.2838914597412623 [Eh]
	 Total Energy              =     -76.3444040751764135 [Eh]
	 SCS Total Energy          =     -76.3419086372524873 [Eh]
                               Psi4 1.9 release
    Molecular point group: c1

    Geometry (in Bohr), charge = 1, multiplicity = 1:

       Center              X                  Y                   Z               Mass
    ------------   -----------------  -----------------  -----------------  -----------------
         O            0.000000000000     0.000000000000     0.000000000000    15.994914619570
         H            1.112175634425     1.430367719429     0.000000000000     1.007825032230
         H            1.112175634425    -1.430367719429     0.000000000000     1.007825032230
         LI           5.306350960286     0.000000000000     0.000000000000     7.016003436600

  Charge       = 1
  Multiplicity = 1
  Basis Set: AUG-CC-PVTZ
    Blend: AUG-CC-PVTZ
  Basis Set: (AUG-CC-PVTZ AUX)
    Blend: AUG-CC-PVTZ-JKFIT + DEF2-UNIVERSAL-JKFIT

    Orbital Energies [Eh]
    ---------------------

    Doubly Occupied:

       1A    -20.778080     2A     -2.800953     3A     -1.560498
       4A     -0.920654     5A     -0.785369     6A     -0.713179

  @DF-RHF Final Energy:   -83.27877693083454

   => Energetics <=

    Nuclear Repulsion Energy =             15.0570624357885094
    One-Electron Energy =                -141.5542104238209618
    Two-Electron Energy =                  43.2183710571979134
    Total Energy =                        -83.2787769308345389
 Dipole X            :        -12.3990336           18.1434041            5.7443706
 Dipole Y            :         -0.0000000            0.0000000           -0.0000000
 Dipole Z            :          0.0000000            0.0000000            0.0000000
 Magnitude           :                                                    5.7443706
  Basis Set: (AUG-CC-PVTZ AUX)
    Blend: AUG-CC-PVTZ-RI + DEF2-QZVPP-RI
	 Reference Energy          =     -83.2787769308345389 [Eh]
	 Singles Energy            =      -0.0000000000000000 [Eh]
	 Same-Spin Energy          =      -0.0691876874914273 [Eh]
	 Opposite-Spin Energy      =      -0.2294089058603279 [Eh]
	 Correlation Energy        =      -0.2985965933517553 [Eh]
	 Total Energy              =     -83.5773735241862994 [Eh]

	 ================> DF-SCS-MP2 Energies <==================
	-----------------------------------------------------------
	 SCS Same-Spin Scale       =       0.3333333333333333 [-]
	 SCS Opposite-Spin Scale   =       1.2000000000000000 [-]
	 SCS Same-Spin Energy      =      -0.0230625624971424 [Eh]
	 SCS Opposite-Spin Energy  =      -0.2752906870323935 [Eh]
	 SCS Correlation Energy    =      -0.2983532495295360 [Eh]
	 SCS Total Energy          =     -83.5771301803640796 [Eh]
	-----------------------------------------------------------

*** Psi4 exiting successfully. Buy a developer a beer!
