                               Psi4 1.9 release

  ==> Input File <==

--------------------------------------------------------------------------
MEMORY 60 GB

molecule dimer {
0 1
O      0.000000     0.000000     0.000000
H      0.588538     0.756918     0.000000
H      0.588538    -0.756918     0.000000
--
1 1
Li     3.024000     0.000000     0.000000

units ang
no_reorient
no_com
symmetry c1
}

set {
basis        aug-cc-pVTZ
scf_type     df
}

energy("mp2", bsse_type="cp")
--------------------------------------------------------------------------

                               Psi4 1.9 release
    Molecular point group: c1
  Charge       = 1
  Multiplicity = 1
  Basis Set: AUG-CC-PVTZ
    Blend: AUG-CC-PVTZ
  Basis Set: (AUG-CC-PVTZ AUX)
    Blend: AUG-CC-PVTZ-JKFIT + DEF2-UNIVERSAL-JKFIT
  @DF-RHF Final Energy:    -7.23638315074464
    Total Energy =                         -7.2363831507446408
 Dipole X            :        -11.4291543           17.1435954            5.7144411
 Dipole Y            :         -0.0000000            0.0000000           -0.0000000
 Dipole Z            :          0.0000000            0.0000000            0.0000000
 Magnitude           :                                                    5.7144411
  Basis Set: (AUG-CC-PVTZ AUX)
    Blend: AUG-CC-PVTZ-RI + DEF2-QZVPP-RI
	 Reference Energy          =      -7.2363831507446408 [Eh]
	 Singles Energy            =      -0.0000000000000000 [Eh]
	 Same-Spin Energy          =       0.0000000000000000 [Eh]
	 Opposite-Spin Energy      =      -0.0116401687972836 [Eh]
	 Correlation Energy        =      -0.0116401687972836 [Eh]
	 Total Energy              =      -7.2480233195419244 [Eh]
	 SCS Total Energy          =      -7.2503513533013813 [Eh]
                               Psi4 1.9 release
    Molecular point group: c1
  Multiplicity = 1
  Basis Set: AUG-CC-PVTZ
    Blend: AUG-CC-PVTZ
  Basis Set: (AUG-CC-PVTZ AUX)
    Blend: AUG-CC-PVTZ-JKFIT + DEF2-UNIVERSAL-JKFIT
  @DF-RHF Final Energy:   -76.06050701572433
    Total Energy =                        -76.0605070157243262
  Basis Set: (AUG-CC-PVTZ AUX)
	 Singles Energy            =      -0.0000000000000000 [Eh]
	 Same-Spin Energy          =      -0.0683893056998671 [Eh]
	 Opposite-Spin Energy      =      -0.2154518122789924 [Eh]
	 Correlation Energy        =      -0.2838411179788595 [Eh]
	 Total Energy              =     -76.3443481337031926 [Eh]
	 SCS Total Energy          =     -76.3418456256924003 [Eh]
                               Psi4 1.9 release
    Molecular point group: c1

    Geometry (in Bohr), charge = 1, multiplicity = 1:

       Center              X                  Y                   Z               Mass
    ------------   -----------------  -----------------  -----------------  -----------------
         O            0.000000000000     0.000000000000     0.000000000000    15.994914619570
         H            1.112175634425     1.430367719429     0.000000000000     1.007825032230
         H            1.112175634425    -1.430367719429     0.000000000000     1.007825032230
         LI           5.714531803384     0.000000000000     0.000000000000     7.016003436600

  Charge       = 1
  Multiplicity = 1
  Basis Set: AUG-CC-PVTZ
    Blend: AUG-CC-PVTZ
  Basis Set: (AUG-CC-PVTZ AUX)
    Blend: AUG-CC-PVTZ-JKFIT + DEF2-UNIVERSAL-JKFIT

    Orbital Energies [Eh]
    ---------------------

    Doubly Occupied:

       1A    -20.762148     2A     -2.801959     3A     -1.544794
       4A     -0.905616     5A     -0.770248     6A     -0.698281

  @DF-RHF Final Energy:   -83.28036463043951

   => Energetics <=

    Nuclear Repulsion Energy =             14.6249579580265454
    One-Electron Energy =                -140.8445544400593974
    Two-Electron Energy =                  42.9392318515933411
    Total Energy =                        -83.2803646304395215
 Dipole X            :        -13.1743159           19.3679467            6.1936308
 Dipole Y            :          0.0000000            0.0000000            0.0000000
 Dipole Z            :          0.0000000            0.0000000            0.0000000
 Magnitude           :                                                    6.1936308
  Basis Set: (AUG-CC-PVTZ AUX)
    Blend: AUG-CC-PVTZ-RI + DEF2-QZVPP-RI
	 Reference Energy          =     -83.2803646304395073 [Eh]
	 Singles Energy            =      -0.0000000000000000 [Eh]
	 Same-Spin Energy          =      -0.0690889906720555 [Eh]
	 Opposite-Spin Energy      =      -0.2288221807664958 [Eh]
	 Correlation Energy        =      -0.2979111714385513 [Eh]
	 Total Energy              =     -83.5782758018780640 [Eh]

	 ================> DF-SCS-MP2 Energies <==================
	-----------------------------------------------------------
	 SCS Same-Spin Scale       =       0.3333333333333333 [-]
	 SCS Opposite-Spin Scale   =       1.2000000000000000 [-]
	 SCS Same-Spin Energy      =      -0.0230296635573518 [Eh]
	 SCS Opposite-Spin Energy  =      -0.2745866169197949 [Eh]
	 SCS Correlation Energy    =      -0.2976162804771468 [Eh]
	 SCS Total Energy          =     -83.5779809109166507 [Eh]
	-----------------------------------------------------------

*** Psi4 exiting successfully. Buy a developer a beer!
