                               Psi4 1.9 release

  ==> Input File <==

--------------------------------------------------------------------------
MEMORY 60 GB

molecule dimer {
0 1
O      0.000000     0.000000     0.000000
H      0.588538     0.756918     0.000000
H      0.588538    -0.756918     0.000000
--
1 1
Na     3.388000     0.000000     0.000000

units ang
no_reorient
no_com
symmetry c1
}

set {
basis        aug-cc-pVTZ
scf_type     df
}

energy("mp2", bsse_type="cp")
--------------------------------------------------------------------------

                               Psi4 1.9 release
    Molecular point group: c1
  Charge       = 1
  Multiplicity = 1
  Basis Set: AUG-CC-PVTZ
    Blend: AUG-CC-PVTZ
  Basis Set: (AUG-CC-PVTZ AUX)
    Blend: AUG-CC-PVTZ-JKFIT + DEF2-UNIVERSAL-JKFIT
  @DF-RHF Final Energy:  -161.67603472722431
    Total Energy =                       -161.6760347272243052
 Dipole X            :        -64.0246483           70.4263132            6.4016649
 Dipole Y            :         -0.0000000            0.0000000           -0.0000000
 Dipole Z            :         -0.0000000            0.0000000           -0.0000000
 Magnitude           :                                                    6.4016649
  Basis Set: (AUG-CC-PVTZ AUX)
    Blend: AUG-CC-PVTZ-RI + DEF2-QZVPP-RI
	 Reference Energy          =    -161.6760347272243052 [Eh]
	 Singles Energy            =      -0.0000000000000000 [Eh]
	 Same-Spin Energy          =      -0.0024005752824519 [Eh]
	 Opposite-Spin Energy      =      -0.0091576414194446 [Eh]
	 Correlation Energy        =      -0.0115582167018965 [Eh]
	 Total Energy              =    -161.6875929439262052 [Eh]
	 SCS Total Energy          =    -161.6878240886884441 [Eh]
                               Psi4 1.9 release
    Molecular point group: c1
  Multiplicity = 1
  Basis Set: AUG-CC-PVTZ
    Blend: AUG-CC-PVTZ
  Basis Set: (AUG-CC-PVTZ AUX)
    Blend: AUG-CC-PVTZ-JKFIT + DEF2-UNIVERSAL-JKFIT
  @DF-RHF Final Energy:   -76.06050103930222
    Total Energy =                        -76.0605010393022241
  Basis Set: (AUG-CC-PVTZ AUX)
	 Singles Energy            =      -0.0000000000000000 [Eh]
	 Same-Spin Energy          =      -0.0683855744931141 [Eh]
	 Opposite-Spin Energy      =      -0.2154016520225753 [Eh]
	 Correlation Energy        =      -0.2837872265156894 [Eh]
	 Total Energy              =     -76.3442882658179087 [Eh]
	 SCS Total Energy          =     -76.3417782132270162 [Eh]
                               Psi4 1.9 release
    Molecular point group: c1

    Geometry (in Bohr), charge = 1, multiplicity = 1:

       Center              X                  Y                   Z               Mass
    ------------   -----------------  -----------------  -----------------  -----------------
         O            0.000000000000     0.000000000000     0.000000000000    15.994914619570
         H            1.112175634425     1.430367719429     0.000000000000     1.007825032230
         H            1.112175634425    -1.430367719429     0.000000000000     1.007825032230
         NA           6.402392113051     0.000000000000     0.000000000000    22.989769282000

  Charge       = 1
  Multiplicity = 1
  Basis Set: AUG-CC-PVTZ
    Blend: AUG-CC-PVTZ
  Basis Set: (AUG-CC-PVTZ AUX)
    Blend: AUG-CC-PVTZ-JKFIT + DEF2-UNIVERSAL-JKFIT

    Orbital Energies [Eh]
    ---------------------

    Doubly Occupied:

       1A    -40.773753     2A    -20.738489     3A     -3.085819
       4A     -1.809238     5A     -1.808988     6A     -1.808779
       7A     -1.521967     8A     -0.883539     9A     -0.748728
      10A     -0.676246

  @DF-RHF Final Energy:  -237.72182116119941

   => Energetics <=

    Nuclear Repulsion Energy =             26.9395291879372074
    One-Electron Energy =                -381.6116080943996280
    Two-Electron Energy =                 116.9502577452630305
    Total Energy =                       -237.7218211611994150
 Dipole X            :        -65.6985606           72.6506645            6.9521040
 Dipole Y            :          0.0000000            0.0000000            0.0000000
 Dipole Z            :         -0.0000000            0.0000000           -0.0000000
 Magnitude           :                                                    6.9521040
  Basis Set: (AUG-CC-PVTZ AUX)
    Blend: AUG-CC-PVTZ-RI + DEF2-QZVPP-RI
	 Reference Energy          =    -237.7218211611994150 [Eh]
	 Singles Energy            =      -0.0000000000000000 [Eh]
	 Same-Spin Energy          =      -0.0712885920899756 [Eh]
	 Opposite-Spin Energy      =      -0.2258368216448821 [Eh]
	 Correlation Energy        =      -0.2971254137348577 [Eh]
	 Total Energy              =    -238.0189465749342617 [Eh]

	 ================> DF-SCS-MP2 Energies <==================
	-----------------------------------------------------------
	 SCS Same-Spin Scale       =       0.3333333333333333 [-]
	 SCS Opposite-Spin Scale   =       1.2000000000000000 [-]
	 SCS Same-Spin Energy      =      -0.0237628640299919 [Eh]
	 SCS Opposite-Spin Energy  =      -0.2710041859738584 [Eh]
	 SCS Correlation Energy    =      -0.2947670500038503 [Eh]
	 SCS Total Energy          =    -238.0165882112032705 [Eh]
	-----------------------------------------------------------

*** Psi4 exiting successfully. Buy a developer a beer!
