                               Psi4 1.9 release

  ==> Input File <==

--------------------------------------------------------------------------
MEMORY 60 GB

molecule dimer {
0 1
O      0.000000     0.000000     0.000000
H      0.588538     0.756918     0.000000
H      0.588538    -0.756918     0.000000
--
1 1
Na     2.420000     0.000000     0.000000

units ang
no_reorient
no_com
symmetry c1
}

set {
basis        aug-cc-pVTZ
scf_type     df
}

energy("mp2", bsse_type="cp")
--------------------------------------------------------------------------

                               Psi4 1.9 release
    Molecular point group: c1
  Charge       = 1
  Multiplicity = 1
  Basis Set: AUG-CC-PVTZ
    Blend: AUG-CC-PVTZ
  Basis Set: (AUG-CC-PVTZ AUX)
    Blend: AUG-CC-PVTZ-JKFIT + DEF2-UNIVERSAL-JKFIT
  @DF-RHF Final Energy:  -161.67604930453845
    Total Energy =                       -161.6760493045384521
 Dipole X            :        -45.7321387           50.3045095            4.5723707
 Dipole Y            :         -0.0000000            0.0000000           -0.0000000
 Dipole Z            :          0.0000000            0.0000000            0.0000000
 Magnitude           :                                                    4.5723707
  Basis Set: (AUG-CC-PVTZ AUX)
    Blend: AUG-CC-PVTZ-RI + DEF2-QZVPP-RI
	 Reference Energy          =    -161.6760493045384521 [Eh]
	 Singles Energy            =      -0.0000000000000000 [Eh]
	 Same-Spin Energy          =      -0.0039450500316222 [Eh]
	 Opposite-Spin Energy      =      -0.0132833507013452 [Eh]
	 Correlation Energy        =      -0.0172284007329674 [Eh]
	 Total Energy              =    -161.6932777052714130 [Eh]
	 SCS Total Energy          =    -161.6933043420572744 [Eh]
                               Psi4 1.9 release
    Molecular point group: c1
  Multiplicity = 1
  Basis Set: AUG-CC-PVTZ
    Blend: AUG-CC-PVTZ
  Basis Set: (AUG-CC-PVTZ AUX)
    Blend: AUG-CC-PVTZ-JKFIT + DEF2-UNIVERSAL-JKFIT
  @DF-RHF Final Energy:   -76.06052506163869
    Total Energy =                        -76.0605250616386854
  Basis Set: (AUG-CC-PVTZ AUX)
	 Singles Energy            =      -0.0000000000000000 [Eh]
	 Same-Spin Energy          =      -0.0684014536588907 [Eh]
	 Opposite-Spin Energy      =      -0.2155848160940177 [Eh]
	 Correlation Energy        =      -0.2839862697529084 [Eh]
	 Total Energy              =     -76.3445113313915869 [Eh]
	 SCS Total Energy          =     -76.3420273255044748 [Eh]
                               Psi4 1.9 release
    Molecular point group: c1

    Geometry (in Bohr), charge = 1, multiplicity = 1:

       Center              X                  Y                   Z               Mass
    ------------   -----------------  -----------------  -----------------  -----------------
         O            0.000000000000     0.000000000000     0.000000000000    15.994914619570
         H            1.112175634425     1.430367719429     0.000000000000     1.007825032230
         H            1.112175634425    -1.430367719429     0.000000000000     1.007825032230
         NA           4.573137223608     0.000000000000     0.000000000000    22.989769282000

  Charge       = 1
  Multiplicity = 1
  Basis Set: AUG-CC-PVTZ
    Blend: AUG-CC-PVTZ
  Basis Set: (AUG-CC-PVTZ AUX)
    Blend: AUG-CC-PVTZ-JKFIT + DEF2-UNIVERSAL-JKFIT

    Orbital Energies [Eh]
    ---------------------

    Doubly Occupied:

       1A    -40.771578     2A    -20.801514     3A     -3.087379
       4A     -1.812946     5A     -1.810677     6A     -1.809370
       7A     -1.587362     8A     -0.946794     9A     -0.812516
      10A     -0.737466

  @DF-RHF Final Energy:  -237.70412173702485

   => Energetics <=

    Nuclear Repulsion Energy =             34.2976761753721107
    One-Electron Energy =                -395.6483959508429962
    Two-Electron Energy =                 123.6465980384460579
    Total Energy =                       -237.7041217370248489
 Dipole X            :        -47.5106936           52.5288607            5.0181671
 Dipole Y            :         -0.0000000            0.0000000           -0.0000000
 Dipole Z            :         -0.0000000            0.0000000           -0.0000000
 Magnitude           :                                                    5.0181671
  Basis Set: (AUG-CC-PVTZ AUX)
    Blend: AUG-CC-PVTZ-RI + DEF2-QZVPP-RI
	 Reference Energy          =    -237.7041217370248489 [Eh]
	 Singles Energy            =      -0.0000000000000000 [Eh]
	 Same-Spin Energy          =      -0.0728086569511536 [Eh]
	 Opposite-Spin Energy      =      -0.2302232972670809 [Eh]
	 Correlation Energy        =      -0.3030319542182345 [Eh]
	 Total Energy              =    -238.0071536912430759 [Eh]

	 ================> DF-SCS-MP2 Energies <==================
	-----------------------------------------------------------
	 SCS Same-Spin Scale       =       0.3333333333333333 [-]
	 SCS Opposite-Spin Scale   =       1.2000000000000000 [-]
	 SCS Same-Spin Energy      =      -0.0242695523170512 [Eh]
	 SCS Opposite-Spin Energy  =      -0.2762679567204971 [Eh]
	 SCS Correlation Energy    =      -0.3005375090375483 [Eh]
	 SCS Total Energy          =    -238.0046592460624026 [Eh]
	-----------------------------------------------------------

*** Psi4 exiting successfully. Buy a developer a beer!
