                               Psi4 1.9 release

  ==> Input File <==

--------------------------------------------------------------------------
MEMORY 60 GB

molecule dimer {
0 1
O      0.000000     0.000000     0.000000
H      0.588538     0.756918     0.000000
H      0.588538    -0.756918     0.000000
--
1 1
Na     4.840000     0.000000     0.000000

units ang
no_reorient
no_com
symmetry c1
}

set {
basis        aug-cc-pVTZ
scf_type     df
}

energy("mp2", bsse_type="cp")
--------------------------------------------------------------------------

                               Psi4 1.9 release
    Molecular point group: c1
  Charge       = 1
  Multiplicity = 1
  Basis Set: AUG-CC-PVTZ
    Blend: AUG-CC-PVTZ
  Basis Set: (AUG-CC-PVTZ AUX)
    Blend: AUG-CC-PVTZ-JKFIT + DEF2-UNIVERSAL-JKFIT
  @DF-RHF Final Energy:  -161.67602522146530
    Total Energy =                       -161.6760252214652951
 Dipole X            :        -91.4628641          100.6090189            9.1461548
 Dipole Y            :          0.0000000            0.0000000            0.0000000
 Dipole Z            :         -0.0000000            0.0000000           -0.0000000
 Magnitude           :                                                    9.1461548
  Basis Set: (AUG-CC-PVTZ AUX)
    Blend: AUG-CC-PVTZ-RI + DEF2-QZVPP-RI
	 Reference Energy          =    -161.6760252214652951 [Eh]
	 Singles Energy            =      -0.0000000000000000 [Eh]
	 Same-Spin Energy          =      -0.0019397858969564 [Eh]
	 Opposite-Spin Energy      =      -0.0078644782190192 [Eh]
	 Correlation Energy        =      -0.0098042641159756 [Eh]
	 Total Energy              =    -161.6858294855812801 [Eh]
	 SCS Total Energy          =    -161.6861091906270929 [Eh]
                               Psi4 1.9 release
    Molecular point group: c1
  Multiplicity = 1
  Basis Set: AUG-CC-PVTZ
    Blend: AUG-CC-PVTZ
  Basis Set: (AUG-CC-PVTZ AUX)
    Blend: AUG-CC-PVTZ-JKFIT + DEF2-UNIVERSAL-JKFIT
  @DF-RHF Final Energy:   -76.06048746005928
    Total Energy =                        -76.0604874600592780
  Basis Set: (AUG-CC-PVTZ AUX)
	 Singles Energy            =      -0.0000000000000000 [Eh]
	 Same-Spin Energy          =      -0.0683752310275012 [Eh]
	 Opposite-Spin Energy      =      -0.2152997722630553 [Eh]
	 Correlation Energy        =      -0.2836750032905566 [Eh]
	 Total Energy              =     -76.3441624633498321 [Eh]
	 SCS Total Energy          =     -76.3416389304507845 [Eh]
                               Psi4 1.9 release
    Molecular point group: c1

    Geometry (in Bohr), charge = 1, multiplicity = 1:

       Center              X                  Y                   Z               Mass
    ------------   -----------------  -----------------  -----------------  -----------------
         O            0.000000000000     0.000000000000     0.000000000000    15.994914619570
         H            1.112175634425     1.430367719429     0.000000000000     1.007825032230
         H            1.112175634425    -1.430367719429     0.000000000000     1.007825032230
         NA           9.146274447216     0.000000000000     0.000000000000    22.989769282000

  Charge       = 1
  Multiplicity = 1
  Basis Set: AUG-CC-PVTZ
    Blend: AUG-CC-PVTZ
  Basis Set: (AUG-CC-PVTZ AUX)
    Blend: AUG-CC-PVTZ-JKFIT + DEF2-UNIVERSAL-JKFIT

    Orbital Energies [Eh]
    ---------------------

    Doubly Occupied:

       1A    -40.771418     2A    -20.683726     3A     -3.082998
       4A     -1.806226     5A     -1.806118     6A     -1.806091
       7A     -1.468308     8A     -0.831099     9A     -0.697615
      10A     -0.624203

  @DF-RHF Final Energy:  -237.72810851026685

   => Energetics <=

    Nuclear Repulsion Energy =             21.4975364703400942
    One-Electron Energy =                -371.2956871343847070
    Two-Electron Energy =                 112.0700421537777629
    Total Energy =                       -237.7281085102668499
 Dipole X            :        -93.0140110          102.8333702            9.8193592
 Dipole Y            :          0.0000000            0.0000000            0.0000000
 Dipole Z            :          0.0000000            0.0000000            0.0000000
 Magnitude           :                                                    9.8193592
  Basis Set: (AUG-CC-PVTZ AUX)
    Blend: AUG-CC-PVTZ-RI + DEF2-QZVPP-RI
	 Reference Energy          =    -237.7281085102668499 [Eh]
	 Singles Energy            =      -0.0000000000000000 [Eh]
	 Same-Spin Energy          =      -0.0705046804356350 [Eh]
	 Opposite-Spin Energy      =      -0.2237131444146510 [Eh]
	 Correlation Energy        =      -0.2942178248502860 [Eh]
	 Total Energy              =    -238.0223263351171283 [Eh]

	 ================> DF-SCS-MP2 Energies <==================
	-----------------------------------------------------------
	 SCS Same-Spin Scale       =       0.3333333333333333 [-]
	 SCS Opposite-Spin Scale   =       1.2000000000000000 [-]
	 SCS Same-Spin Energy      =      -0.0235015601452117 [Eh]
	 SCS Opposite-Spin Energy  =      -0.2684557732975812 [Eh]
	 SCS Correlation Energy    =      -0.2919573334427928 [Eh]
	 SCS Total Energy          =    -238.0200658437096308 [Eh]
	-----------------------------------------------------------

*** Psi4 exiting successfully. Buy a developer a beer!
