                               Psi4 1.9 release

  ==> Input File <==

--------------------------------------------------------------------------
MEMORY 60 GB

molecule dimer {
0 1
O      0.000000     0.000000     0.000000
H      0.588538     0.756918     0.000000
H      0.588538    -0.756918     0.000000
--
1 1
Na     2.662000     0.000000     0.000000

units ang
no_reorient
no_com
symmetry c1
}

set {
basis        aug-cc-pVTZ
scf_type     df
}

energy("mp2", bsse_type="cp")
--------------------------------------------------------------------------

                               Psi4 1.9 release
    Molecular point group: c1
  Charge       = 1
  Multiplicity = 1
  Basis Set: AUG-CC-PVTZ
    Blend: AUG-CC-PVTZ
  Basis Set: (AUG-CC-PVTZ AUX)
    Blend: AUG-CC-PVTZ-JKFIT + DEF2-UNIVERSAL-JKFIT
  @DF-RHF Final Energy:  -161.67604395518512
    Total Energy =                       -161.6760439551851221
 Dipole X            :        -50.3052709           55.3349604            5.0296895
 Dipole Y            :         -0.0000000            0.0000000           -0.0000000
 Dipole Z            :         -0.0000000            0.0000000           -0.0000000
 Magnitude           :                                                    5.0296895
  Basis Set: (AUG-CC-PVTZ AUX)
    Blend: AUG-CC-PVTZ-RI + DEF2-QZVPP-RI
	 Reference Energy          =    -161.6760439551851221 [Eh]
	 Singles Energy            =      -0.0000000000000000 [Eh]
	 Same-Spin Energy          =      -0.0027375161120991 [Eh]
	 Opposite-Spin Energy      =      -0.0100370046624181 [Eh]
	 Correlation Energy        =      -0.0127745207745172 [Eh]
	 Total Energy              =    -161.6888184759596356 [Eh]
	 SCS Total Energy          =    -161.6890008661507352 [Eh]
                               Psi4 1.9 release
    Molecular point group: c1
  Multiplicity = 1
  Basis Set: AUG-CC-PVTZ
    Blend: AUG-CC-PVTZ
  Basis Set: (AUG-CC-PVTZ AUX)
    Blend: AUG-CC-PVTZ-JKFIT + DEF2-UNIVERSAL-JKFIT
  @DF-RHF Final Energy:   -76.06051809026133
    Total Energy =                        -76.0605180902613114
  Basis Set: (AUG-CC-PVTZ AUX)
	 Singles Energy            =      -0.0000000000000000 [Eh]
	 Same-Spin Energy          =      -0.0683968562314746 [Eh]
	 Opposite-Spin Energy      =      -0.2155384684922218 [Eh]
	 Correlation Energy        =      -0.2839353247236964 [Eh]
	 Total Energy              =     -76.3444534149850256 [Eh]
	 SCS Total Energy          =     -76.3419632045291507 [Eh]
                               Psi4 1.9 release
    Molecular point group: c1

    Geometry (in Bohr), charge = 1, multiplicity = 1:

       Center              X                  Y                   Z               Mass
    ------------   -----------------  -----------------  -----------------  -----------------
         O            0.000000000000     0.000000000000     0.000000000000    15.994914619570
         H            1.112175634425     1.430367719429     0.000000000000     1.007825032230
         H            1.112175634425    -1.430367719429     0.000000000000     1.007825032230
         NA           5.030450945969     0.000000000000     0.000000000000    22.989769282000

  Charge       = 1
  Multiplicity = 1
  Basis Set: AUG-CC-PVTZ
    Blend: AUG-CC-PVTZ
  Basis Set: (AUG-CC-PVTZ AUX)
    Blend: AUG-CC-PVTZ-JKFIT + DEF2-UNIVERSAL-JKFIT

    Orbital Energies [Eh]
    ---------------------

    Doubly Occupied:

       1A    -40.772757     2A    -20.784403     3A     -3.086374
       4A     -1.810484     5A     -1.809660     6A     -1.808902
       7A     -1.568586     8A     -0.928423     9A     -0.793970
      10A     -0.720155

  @DF-RHF Final Energy:  -237.71295499572386

   => Energetics <=

    Nuclear Repulsion Energy =             31.9479325121704925
    One-Electron Energy =                -391.1543465918675793
    Two-Electron Energy =                 121.4934590839732209
    Total Energy =                       -237.7129549957238623
 Dipole X            :        -52.0695213           57.5593117            5.4897903
 Dipole Y            :          0.0000000            0.0000000            0.0000000
 Dipole Z            :         -0.0000000            0.0000000           -0.0000000
 Magnitude           :                                                    5.4897903
  Basis Set: (AUG-CC-PVTZ AUX)
    Blend: AUG-CC-PVTZ-RI + DEF2-QZVPP-RI
	 Reference Energy          =    -237.7129549957238623 [Eh]
	 Singles Energy            =      -0.0000000000000000 [Eh]
	 Same-Spin Energy          =      -0.0717247675817243 [Eh]
	 Opposite-Spin Energy      =      -0.2271491834393783 [Eh]
	 Correlation Energy        =      -0.2988739510211027 [Eh]
	 Total Energy              =    -238.0118289467449699 [Eh]

	 ================> DF-SCS-MP2 Energies <==================
	-----------------------------------------------------------
	 SCS Same-Spin Scale       =       0.3333333333333333 [-]
	 SCS Opposite-Spin Scale   =       1.2000000000000000 [-]
	 SCS Same-Spin Energy      =      -0.0239082558605748 [Eh]
	 SCS Opposite-Spin Energy  =      -0.2725790201272540 [Eh]
	 SCS Correlation Energy    =      -0.2964872759878288 [Eh]
	 SCS Total Energy          =    -238.0094422717116913 [Eh]
	-----------------------------------------------------------

*** Psi4 exiting successfully. Buy a developer a beer!
