                               Psi4 1.9 release

  ==> Input File <==

--------------------------------------------------------------------------
MEMORY 60 GB

molecule dimer {
0 1
O      0.000000     0.000000     0.000000
H      0.588538     0.756918     0.000000
H      0.588538    -0.756918     0.000000
--
1 1
Na     2.904000     0.000000     0.000000

units ang
no_reorient
no_com
symmetry c1
}

set {
basis        aug-cc-pVTZ
scf_type     df
}

energy("mp2", bsse_type="cp")
--------------------------------------------------------------------------

                               Psi4 1.9 release
    Molecular point group: c1
  Charge       = 1
  Multiplicity = 1
  Basis Set: AUG-CC-PVTZ
    Blend: AUG-CC-PVTZ
  Basis Set: (AUG-CC-PVTZ AUX)
    Blend: AUG-CC-PVTZ-JKFIT + DEF2-UNIVERSAL-JKFIT
  @DF-RHF Final Energy:  -161.67603948878636
    Total Energy =                       -161.6760394887863299
 Dipole X            :        -54.8783985           60.3654114            5.4870128
 Dipole Y            :         -0.0000000            0.0000000           -0.0000000
 Dipole Z            :         -0.0000000            0.0000000           -0.0000000
 Magnitude           :                                                    5.4870128
  Basis Set: (AUG-CC-PVTZ AUX)
    Blend: AUG-CC-PVTZ-RI + DEF2-QZVPP-RI
	 Reference Energy          =    -161.6760394887863583 [Eh]
	 Singles Energy            =      -0.0000000000000000 [Eh]
	 Same-Spin Energy          =      -0.0025174887574485 [Eh]
	 Opposite-Spin Energy      =      -0.0095091765755538 [Eh]
	 Correlation Energy        =      -0.0120266653330023 [Eh]
	 Total Energy              =    -161.6880661541193547 [Eh]
	 SCS Total Energy          =    -161.6882896635961799 [Eh]
                               Psi4 1.9 release
    Molecular point group: c1
  Multiplicity = 1
  Basis Set: AUG-CC-PVTZ
    Blend: AUG-CC-PVTZ
  Basis Set: (AUG-CC-PVTZ AUX)
    Blend: AUG-CC-PVTZ-JKFIT + DEF2-UNIVERSAL-JKFIT
  @DF-RHF Final Energy:   -76.06050924345089
    Total Energy =                        -76.0605092434508947
  Basis Set: (AUG-CC-PVTZ AUX)
	 Singles Energy            =      -0.0000000000000000 [Eh]
	 Same-Spin Energy          =      -0.0683932697260568 [Eh]
	 Opposite-Spin Energy      =      -0.2154977554159882 [Eh]
	 Correlation Energy        =      -0.2838910251420450 [Eh]
	 Total Energy              =     -76.3444002685929348 [Eh]
	 SCS Total Energy          =     -76.3419043065254357 [Eh]
                               Psi4 1.9 release
    Molecular point group: c1

    Geometry (in Bohr), charge = 1, multiplicity = 1:

       Center              X                  Y                   Z               Mass
    ------------   -----------------  -----------------  -----------------  -----------------
         O            0.000000000000     0.000000000000     0.000000000000    15.994914619570
         H            1.112175634425     1.430367719429     0.000000000000     1.007825032230
         H            1.112175634425    -1.430367719429     0.000000000000     1.007825032230
         NA           5.487764668330     0.000000000000     0.000000000000    22.989769282000

  Charge       = 1
  Multiplicity = 1
  Basis Set: AUG-CC-PVTZ
    Blend: AUG-CC-PVTZ
  Basis Set: (AUG-CC-PVTZ AUX)
    Blend: AUG-CC-PVTZ-JKFIT + DEF2-UNIVERSAL-JKFIT

    Orbital Energies [Eh]
    ---------------------

    Doubly Occupied:

       1A    -40.773462     2A    -20.767747     3A     -3.086122
       4A     -1.809750     5A     -1.809370     6A     -1.808901
       7A     -1.551213     8A     -0.911738     9A     -0.776960
      10A     -0.704016

  @DF-RHF Final Energy:  -237.71739933953671

   => Energetics <=

    Nuclear Repulsion Energy =             29.9948976594891192
    One-Electron Energy =                -387.4260375470408917
    Two-Electron Energy =                 119.7137405480150392
    Total Energy =                       -237.7173993395367120
 Dipole X            :        -56.6158504           62.5897626            5.9739123
 Dipole Y            :          0.0000000            0.0000000            0.0000000
 Dipole Z            :          0.0000000            0.0000000            0.0000000
 Magnitude           :                                                    5.9739123
  Basis Set: (AUG-CC-PVTZ AUX)
    Blend: AUG-CC-PVTZ-RI + DEF2-QZVPP-RI
	 Reference Energy          =    -237.7173993395367120 [Eh]
	 Singles Energy            =      -0.0000000000000000 [Eh]
	 Same-Spin Energy          =      -0.0715242341656292 [Eh]
	 Opposite-Spin Energy      =      -0.2265761799232660 [Eh]
	 Correlation Energy        =      -0.2981004140888951 [Eh]
	 Total Energy              =    -238.0154997536256190 [Eh]

	 ================> DF-SCS-MP2 Energies <==================
	-----------------------------------------------------------
	 SCS Same-Spin Scale       =       0.3333333333333333 [-]
	 SCS Opposite-Spin Scale   =       1.2000000000000000 [-]
	 SCS Same-Spin Energy      =      -0.0238414113885431 [Eh]
	 SCS Opposite-Spin Energy  =      -0.2718914159079192 [Eh]
	 SCS Correlation Energy    =      -0.2957328272964622 [Eh]
	 SCS Total Energy          =    -238.0131321668331736 [Eh]
	-----------------------------------------------------------

*** Psi4 exiting successfully. Buy a developer a beer!
