                               Psi4 1.9 release

  ==> Input File <==

--------------------------------------------------------------------------
MEMORY 60 GB

molecule dimer {
0 1
O      0.000000     0.000000     0.000000
H      0.588538     0.756918     0.000000
H      0.588538    -0.756918     0.000000
--
1 1
Na     3.630000     0.000000     0.000000

units ang
no_reorient
no_com
symmetry c1
}

set {
basis        aug-cc-pVTZ
scf_type     df
}

energy("mp2", bsse_type="cp")
--------------------------------------------------------------------------

                               Psi4 1.9 release
    Molecular point group: c1
  Charge       = 1
  Multiplicity = 1
  Basis Set: AUG-CC-PVTZ
    Blend: AUG-CC-PVTZ
  Basis Set: (AUG-CC-PVTZ AUX)
    Blend: AUG-CC-PVTZ-JKFIT + DEF2-UNIVERSAL-JKFIT
  @DF-RHF Final Energy:  -161.67603348053052
    Total Energy =                       -161.6760334805305206
 Dipole X            :        -68.5976931           75.4567642            6.8590710
 Dipole Y            :         -0.0000000            0.0000000           -0.0000000
 Dipole Z            :          0.0000000            0.0000000            0.0000000
 Magnitude           :                                                    6.8590710
  Basis Set: (AUG-CC-PVTZ AUX)
    Blend: AUG-CC-PVTZ-RI + DEF2-QZVPP-RI
	 Reference Energy          =    -161.6760334805305206 [Eh]
	 Singles Energy            =      -0.0000000000000000 [Eh]
	 Same-Spin Energy          =      -0.0022396386318185 [Eh]
	 Opposite-Spin Energy      =      -0.0086989952121081 [Eh]
	 Correlation Energy        =      -0.0109386338439266 [Eh]
	 Total Energy              =    -161.6869721143744414 [Eh]
	 SCS Total Energy          =    -161.6872188209956676 [Eh]
                               Psi4 1.9 release
    Molecular point group: c1
  Multiplicity = 1
  Basis Set: AUG-CC-PVTZ
    Blend: AUG-CC-PVTZ
  Basis Set: (AUG-CC-PVTZ AUX)
    Blend: AUG-CC-PVTZ-JKFIT + DEF2-UNIVERSAL-JKFIT
  @DF-RHF Final Energy:   -76.06049753948156
    Total Energy =                        -76.0604975394815597
  Basis Set: (AUG-CC-PVTZ AUX)
	 Singles Energy            =      -0.0000000000000000 [Eh]
	 Same-Spin Energy          =      -0.0683826920172087 [Eh]
	 Opposite-Spin Energy      =      -0.2153680722985913 [Eh]
	 Correlation Energy        =      -0.2837507643158000 [Eh]
	 Total Energy              =     -76.3442483037973574 [Eh]
	 SCS Total Energy          =     -76.3417334569122659 [Eh]
                               Psi4 1.9 release
    Molecular point group: c1

    Geometry (in Bohr), charge = 1, multiplicity = 1:

       Center              X                  Y                   Z               Mass
    ------------   -----------------  -----------------  -----------------  -----------------
         O            0.000000000000     0.000000000000     0.000000000000    15.994914619570
         H            1.112175634425     1.430367719429     0.000000000000     1.007825032230
         H            1.112175634425    -1.430367719429     0.000000000000     1.007825032230
         NA           6.859705835412     0.000000000000     0.000000000000    22.989769282000

  Charge       = 1
  Multiplicity = 1
  Basis Set: AUG-CC-PVTZ
    Blend: AUG-CC-PVTZ
  Basis Set: (AUG-CC-PVTZ AUX)
    Blend: AUG-CC-PVTZ-JKFIT + DEF2-UNIVERSAL-JKFIT

    Orbital Energies [Eh]
    ---------------------

    Doubly Occupied:

       1A    -40.773553     2A    -20.726241     3A     -3.085504
       4A     -1.808893     5A     -1.808647     6A     -1.808501
       7A     -1.509950     8A     -0.871867     9A     -0.737257
      10A     -0.664670

  @DF-RHF Final Energy:  -237.72325258549617

   => Energetics <=

    Nuclear Repulsion Energy =             25.7231694387164573
    One-Electron Energy =                -379.3026766013560405
    Two-Electron Energy =                 115.8562545771434174
    Total Energy =                       -237.7232525854961409
 Dipole X            :        -70.2424579           77.6811155            7.4386575
 Dipole Y            :          0.0000000            0.0000000            0.0000000
 Dipole Z            :         -0.0000000            0.0000000           -0.0000000
 Magnitude           :                                                    7.4386575
  Basis Set: (AUG-CC-PVTZ AUX)
    Blend: AUG-CC-PVTZ-RI + DEF2-QZVPP-RI
	 Reference Energy          =    -237.7232525854961693 [Eh]
	 Singles Energy            =      -0.0000000000000000 [Eh]
	 Same-Spin Energy          =      -0.0710493589147344 [Eh]
	 Opposite-Spin Energy      =      -0.2251705099325515 [Eh]
	 Correlation Energy        =      -0.2962198688472860 [Eh]
	 Total Energy              =    -238.0194724543434575 [Eh]

	 ================> DF-SCS-MP2 Energies <==================
	-----------------------------------------------------------
	 SCS Same-Spin Scale       =       0.3333333333333333 [-]
	 SCS Opposite-Spin Scale   =       1.2000000000000000 [-]
	 SCS Same-Spin Energy      =      -0.0236831196382448 [Eh]
	 SCS Opposite-Spin Energy  =      -0.2702046119190618 [Eh]
	 SCS Correlation Energy    =      -0.2938877315573066 [Eh]
	 SCS Total Energy          =    -238.0171403170534745 [Eh]
	-----------------------------------------------------------

*** Psi4 exiting successfully. Buy a developer a beer!
