                               Psi4 1.9 release

  ==> Input File <==

--------------------------------------------------------------------------
MEMORY 60 GB

molecule dimer {
0 1
O      0.000000     0.000000     0.000000
H      0.588538     0.756918     0.000000
H      0.588538    -0.756918     0.000000
--
1 1
Na     3.146000     0.000000     0.000000

units ang
no_reorient
no_com
symmetry c1
}

set {
basis        aug-cc-pVTZ
scf_type     df
}

energy("mp2", bsse_type="cp")
--------------------------------------------------------------------------

                               Psi4 1.9 release
    Molecular point group: c1
  Charge       = 1
  Multiplicity = 1
  Basis Set: AUG-CC-PVTZ
    Blend: AUG-CC-PVTZ
  Basis Set: (AUG-CC-PVTZ AUX)
    Blend: AUG-CC-PVTZ-JKFIT + DEF2-UNIVERSAL-JKFIT
  @DF-RHF Final Energy:  -161.67603656199387
    Total Energy =                       -161.6760365619938398
 Dipole X            :        -59.4515305           65.3958623            5.9443318
 Dipole Y            :         -0.0000000            0.0000000           -0.0000000
 Dipole Z            :         -0.0000000            0.0000000           -0.0000000
 Magnitude           :                                                    5.9443318
  Basis Set: (AUG-CC-PVTZ AUX)
    Blend: AUG-CC-PVTZ-RI + DEF2-QZVPP-RI
	 Reference Energy          =    -161.6760365619938682 [Eh]
	 Singles Energy            =      -0.0000000000000000 [Eh]
	 Same-Spin Energy          =      -0.0025201524287565 [Eh]
	 Opposite-Spin Energy      =      -0.0095096469801479 [Eh]
	 Correlation Energy        =      -0.0120297994089044 [Eh]
	 Total Energy              =    -161.6880663614027753 [Eh]
	 SCS Total Energy          =    -161.6882881891796444 [Eh]
                               Psi4 1.9 release
    Molecular point group: c1
  Multiplicity = 1
  Basis Set: AUG-CC-PVTZ
    Blend: AUG-CC-PVTZ
  Basis Set: (AUG-CC-PVTZ AUX)
    Blend: AUG-CC-PVTZ-JKFIT + DEF2-UNIVERSAL-JKFIT
  @DF-RHF Final Energy:   -76.06050454863990
    Total Energy =                        -76.0605045486398978
  Basis Set: (AUG-CC-PVTZ AUX)
	 Singles Energy            =      -0.0000000000000000 [Eh]
	 Same-Spin Energy          =      -0.0683892438939902 [Eh]
	 Opposite-Spin Energy      =      -0.2154469119011028 [Eh]
	 Correlation Energy        =      -0.2838361557950931 [Eh]
	 Total Energy              =     -76.3443407044349840 [Eh]
	 SCS Total Energy          =     -76.3418372575525552 [Eh]
                               Psi4 1.9 release
    Molecular point group: c1

    Geometry (in Bohr), charge = 1, multiplicity = 1:

       Center              X                  Y                   Z               Mass
    ------------   -----------------  -----------------  -----------------  -----------------
         O            0.000000000000     0.000000000000     0.000000000000    15.994914619570
         H            1.112175634425     1.430367719429     0.000000000000     1.007825032230
         H            1.112175634425    -1.430367719429     0.000000000000     1.007825032230
         NA           5.945078390690     0.000000000000     0.000000000000    22.989769282000

  Charge       = 1
  Multiplicity = 1
  Basis Set: AUG-CC-PVTZ
    Blend: AUG-CC-PVTZ
  Basis Set: (AUG-CC-PVTZ AUX)
    Blend: AUG-CC-PVTZ-JKFIT + DEF2-UNIVERSAL-JKFIT

    Orbital Energies [Eh]
    ---------------------

    Doubly Occupied:

       1A    -40.773778     2A    -20.752336     3A     -3.086018
       4A     -1.809486     5A     -1.809224     6A     -1.808918
       7A     -1.535673     8A     -0.896789     9A     -0.761893
      10A     -0.689345

  @DF-RHF Final Energy:  -237.72000943577331

   => Energetics <=

    Nuclear Repulsion Energy =             28.3473251843071807
    One-Electron Energy =                -384.2877509240863674
    Two-Electron Energy =                 118.2204163040058802
    Total Energy =                       -237.7200094357733064
 Dipole X            :        -61.1572255           67.6202136            6.4629881
 Dipole Y            :         -0.0000000            0.0000000           -0.0000000
 Dipole Z            :          0.0000000            0.0000000            0.0000000
 Magnitude           :                                                    6.4629881
  Basis Set: (AUG-CC-PVTZ AUX)
    Blend: AUG-CC-PVTZ-RI + DEF2-QZVPP-RI
	 Reference Energy          =    -237.7200094357733064 [Eh]
	 Singles Energy            =      -0.0000000000000000 [Eh]
	 Same-Spin Energy          =      -0.0714820971332655 [Eh]
	 Opposite-Spin Energy      =      -0.2264042461321035 [Eh]
	 Correlation Energy        =      -0.2978863432653690 [Eh]
	 Total Energy              =    -238.0178957790386676 [Eh]

	 ================> DF-SCS-MP2 Energies <==================
	-----------------------------------------------------------
	 SCS Same-Spin Scale       =       0.3333333333333333 [-]
	 SCS Opposite-Spin Scale   =       1.2000000000000000 [-]
	 SCS Same-Spin Energy      =      -0.0238273657110885 [Eh]
	 SCS Opposite-Spin Energy  =      -0.2716850953585242 [Eh]
	 SCS Correlation Energy    =      -0.2955124610696127 [Eh]
	 SCS Total Energy          =    -238.0155218968429267 [Eh]
	-----------------------------------------------------------

*** Psi4 exiting successfully. Buy a developer a beer!
