                               Psi4 1.9 release

  ==> Input File <==

--------------------------------------------------------------------------
MEMORY 60 GB

molecule dimer {
0 1
O      0.000000     0.000000     0.000000
H      0.588538     0.756918     0.000000
H      0.588538    -0.756918     0.000000
--
1 1
K      5.560000     0.000000     0.000000

units ang
no_reorient
no_com
symmetry c1
}

set {
basis        aug-cc-pVTZ
scf_type     df
}

energy("mp2", bsse_type="cp")
--------------------------------------------------------------------------

                               Psi4 1.9 release
    Molecular point group: c1
  Charge       = 1
  Multiplicity = 1
  Basis Set: AUG-CC-PVTZ
    Blend: AUG-CC-PVTZ
  Basis Set: (AUG-CC-PVTZ AUX)
    Blend: AUG-CC-PVTZ-JKFIT + DEF2-UNIVERSAL-JKFIT
  @DF-RHF Final Energy:  -599.01750603821608
    Total Energy =                       -599.0175060382160837
 Dipole X            :       -189.1238222          199.6306679           10.5068457
 Dipole Y            :         -0.0000000            0.0000000           -0.0000000
 Dipole Z            :         -0.0000000            0.0000000           -0.0000000
 Magnitude           :                                                   10.5068457
  Basis Set: (AUG-CC-PVTZ AUX)
    Blend: AUG-CC-PVTZ-RI + DEF2-QZVPP-RI
	 Reference Energy          =    -599.0175060382160837 [Eh]
	 Singles Energy            =      -0.0000000000000000 [Eh]
	 Same-Spin Energy          =      -0.0254397056661415 [Eh]
	 Opposite-Spin Energy      =      -0.0580851349162042 [Eh]
	 Correlation Energy        =      -0.0835248405823457 [Eh]
	 Total Energy              =    -599.1010308787983831 [Eh]
	 SCS Total Energy          =    -599.0956881020042601 [Eh]
                               Psi4 1.9 release
    Molecular point group: c1
  Multiplicity = 1
  Basis Set: AUG-CC-PVTZ
    Blend: AUG-CC-PVTZ
  Basis Set: (AUG-CC-PVTZ AUX)
    Blend: AUG-CC-PVTZ-JKFIT + DEF2-UNIVERSAL-JKFIT
  @DF-RHF Final Energy:   -76.06048587219186
    Total Energy =                        -76.0604858721918617
  Basis Set: (AUG-CC-PVTZ AUX)
	 Singles Energy            =      -0.0000000000000000 [Eh]
	 Same-Spin Energy          =      -0.0683736513445447 [Eh]
	 Opposite-Spin Energy      =      -0.2152855276135536 [Eh]
	 Correlation Energy        =      -0.2836591789580983 [Eh]
	 Total Energy              =     -76.3441450511499653 [Eh]
	 SCS Total Energy          =     -76.3416197224429709 [Eh]
                               Psi4 1.9 release
    Molecular point group: c1

    Geometry (in Bohr), charge = 1, multiplicity = 1:

       Center              X                  Y                   Z               Mass
    ------------   -----------------  -----------------  -----------------  -----------------
         O            0.000000000000     0.000000000000     0.000000000000    15.994914619570
         H            1.112175634425     1.430367719429     0.000000000000     1.007825032230
         H            1.112175634425    -1.430367719429     0.000000000000     1.007825032230
         K           10.506877257546     0.000000000000     0.000000000000    38.963706486400

  Charge       = 1
  Multiplicity = 1
  Basis Set: AUG-CC-PVTZ
    Blend: AUG-CC-PVTZ
  Basis Set: (AUG-CC-PVTZ AUX)
    Blend: AUG-CC-PVTZ-JKFIT + DEF2-UNIVERSAL-JKFIT

    Orbital Energies [Eh]
    ---------------------

    Doubly Occupied:

       1A   -133.760133     2A    -20.667739     3A    -14.715545
       4A    -11.745611     5A    -11.745603     6A    -11.745601
       7A     -1.970621     8A     -1.452555     9A     -1.177316
      10A     -1.177126    11A     -1.177087    12A     -0.815572
      13A     -0.682523    14A     -0.608809

  @DF-RHF Final Energy:  -675.07141610847907

   => Energetics <=

    Nuclear Repulsion Energy =             27.6456643391115051
    One-Electron Energy =                -978.5504732983799840
    Two-Electron Energy =                 275.8333928507894370
    Total Energy =                       -675.0714161084790703
 Dipole X            :       -190.6415470          201.8550192           11.2134722
 Dipole Y            :          0.0000000            0.0000000            0.0000000
 Dipole Z            :          0.0000000            0.0000000            0.0000000
 Magnitude           :                                                   11.2134722
  Basis Set: (AUG-CC-PVTZ AUX)
    Blend: AUG-CC-PVTZ-RI + DEF2-QZVPP-RI
	 Reference Energy          =    -675.0714161084790703 [Eh]
	 Singles Energy            =      -0.0000000000000000 [Eh]
	 Same-Spin Energy          =      -0.0939576140636190 [Eh]
	 Opposite-Spin Energy      =      -0.2737781251945608 [Eh]
	 Correlation Energy        =      -0.3677357392581798 [Eh]
	 Total Energy              =    -675.4391518477372074 [Eh]

	 ================> DF-SCS-MP2 Energies <==================
	-----------------------------------------------------------
	 SCS Same-Spin Scale       =       0.3333333333333333 [-]
	 SCS Opposite-Spin Scale   =       1.2000000000000000 [-]
	 SCS Same-Spin Energy      =      -0.0313192046878730 [Eh]
	 SCS Opposite-Spin Energy  =      -0.3285337502334729 [Eh]
	 SCS Correlation Energy    =      -0.3598529549213459 [Eh]
	 SCS Total Energy          =    -675.4312690634004639 [Eh]
	-----------------------------------------------------------

*** Psi4 exiting successfully. Buy a developer a beer!
