                               Psi4 1.9 release

  ==> Input File <==

--------------------------------------------------------------------------
MEMORY 60 GB

molecule dimer {
0 1
O      0.000000     0.000000     0.000000
H      0.588538     0.756918     0.000000
H      0.588538    -0.756918     0.000000
--
1 1
K      3.892000     0.000000     0.000000

units ang
no_reorient
no_com
symmetry c1
}

set {
basis        aug-cc-pVTZ
scf_type     df
}

energy("mp2", bsse_type="cp")
--------------------------------------------------------------------------

                               Psi4 1.9 release
    Molecular point group: c1
  Charge       = 1
  Multiplicity = 1
  Basis Set: AUG-CC-PVTZ
    Blend: AUG-CC-PVTZ
  Basis Set: (AUG-CC-PVTZ AUX)
    Blend: AUG-CC-PVTZ-JKFIT + DEF2-UNIVERSAL-JKFIT
  @DF-RHF Final Energy:  -599.01750732803555
    Total Energy =                       -599.0175073280356628
 Dipole X            :       -132.3870397          139.7414675            7.3544278
 Dipole Y            :          0.0000000            0.0000000            0.0000000
 Dipole Z            :          0.0000000            0.0000000            0.0000000
 Magnitude           :                                                    7.3544278
  Basis Set: (AUG-CC-PVTZ AUX)
    Blend: AUG-CC-PVTZ-RI + DEF2-QZVPP-RI
	 Reference Energy          =    -599.0175073280355491 [Eh]
	 Singles Energy            =      -0.0000000000000000 [Eh]
	 Same-Spin Energy          =      -0.0263865198835589 [Eh]
	 Opposite-Spin Energy      =      -0.0608159539007455 [Eh]
	 Correlation Energy        =      -0.0872024737843044 [Eh]
	 Total Energy              =    -599.1047098018198085 [Eh]
	 SCS Total Energy          =    -599.0992819793442550 [Eh]
                               Psi4 1.9 release
    Molecular point group: c1
  Multiplicity = 1
  Basis Set: AUG-CC-PVTZ
    Blend: AUG-CC-PVTZ
  Basis Set: (AUG-CC-PVTZ AUX)
    Blend: AUG-CC-PVTZ-JKFIT + DEF2-UNIVERSAL-JKFIT
  @DF-RHF Final Energy:   -76.06049501056359
    Total Energy =                        -76.0604950105635851
  Basis Set: (AUG-CC-PVTZ AUX)
	 Singles Energy            =      -0.0000000000000000 [Eh]
	 Same-Spin Energy          =      -0.0683825998387314 [Eh]
	 Opposite-Spin Energy      =      -0.2153514247859806 [Eh]
	 Correlation Energy        =      -0.2837340246247121 [Eh]
	 Total Energy              =     -76.3442290351882917 [Eh]
	 SCS Total Energy          =     -76.3417109202530071 [Eh]
                               Psi4 1.9 release
    Molecular point group: c1

    Geometry (in Bohr), charge = 1, multiplicity = 1:

       Center              X                  Y                   Z               Mass
    ------------   -----------------  -----------------  -----------------  -----------------
         O            0.000000000000     0.000000000000     0.000000000000    15.994914619570
         H            1.112175634425     1.430367719429     0.000000000000     1.007825032230
         H            1.112175634425    -1.430367719429     0.000000000000     1.007825032230
         K            7.354814080282     0.000000000000     0.000000000000    38.963706486400

  Charge       = 1
  Multiplicity = 1
  Basis Set: AUG-CC-PVTZ
    Blend: AUG-CC-PVTZ
  Basis Set: (AUG-CC-PVTZ AUX)
    Blend: AUG-CC-PVTZ-JKFIT + DEF2-UNIVERSAL-JKFIT

    Orbital Energies [Eh]
    ---------------------

    Doubly Occupied:

       1A   -133.763835     2A    -20.713939     3A    -14.719288
       4A    -11.749364     5A    -11.749345     6A    -11.749335
       7A     -1.974475     8A     -1.498056     9A     -1.181492
      10A     -1.180989    11A     -1.180720    12A     -0.860250
      13A     -0.726046    14A     -0.653085

  @DF-RHF Final Energy:  -675.06586834809764

   => Energetics <=

    Nuclear Repulsion Energy =             35.7803438469263071
    One-Electron Energy =                -994.2919813262078605
    Two-Electron Energy =                 283.4457691311840790
    Total Energy =                       -675.0658683480975242
 Dipole X            :       -133.9882284          141.9658188            7.9775904
 Dipole Y            :          0.0000000            0.0000000            0.0000000
 Dipole Z            :         -0.0000000            0.0000000           -0.0000000
 Magnitude           :                                                    7.9775904
  Basis Set: (AUG-CC-PVTZ AUX)
    Blend: AUG-CC-PVTZ-RI + DEF2-QZVPP-RI
	 Reference Energy          =    -675.0658683480976379 [Eh]
	 Singles Energy            =      -0.0000000000000000 [Eh]
	 Same-Spin Energy          =      -0.0952525056345641 [Eh]
	 Opposite-Spin Energy      =      -0.2772051992203541 [Eh]
	 Correlation Energy        =      -0.3724577048549181 [Eh]
	 Total Energy              =    -675.4383260529525614 [Eh]

	 ================> DF-SCS-MP2 Energies <==================
	-----------------------------------------------------------
	 SCS Same-Spin Scale       =       0.3333333333333333 [-]
	 SCS Opposite-Spin Scale   =       1.2000000000000000 [-]
	 SCS Same-Spin Energy      =      -0.0317508352115213 [Eh]
	 SCS Opposite-Spin Energy  =      -0.3326462390644249 [Eh]
	 SCS Correlation Energy    =      -0.3643970742759462 [Eh]
	 SCS Total Energy          =    -675.4302654223736226 [Eh]
	-----------------------------------------------------------

*** Psi4 exiting successfully. Buy a developer a beer!
