                               Psi4 1.9 release

  ==> Input File <==

--------------------------------------------------------------------------
MEMORY 60 GB

molecule dimer {
0 1
O      0.000000     0.000000     0.000000
H      0.588538     0.756918     0.000000
H      0.588538    -0.756918     0.000000
--
1 1
K      3.336000     0.000000     0.000000

units ang
no_reorient
no_com
symmetry c1
}

set {
basis        aug-cc-pVTZ
scf_type     df
}

energy("mp2", bsse_type="cp")
--------------------------------------------------------------------------

                               Psi4 1.9 release
    Molecular point group: c1
  Charge       = 1
  Multiplicity = 1
  Basis Set: AUG-CC-PVTZ
    Blend: AUG-CC-PVTZ
  Basis Set: (AUG-CC-PVTZ AUX)
    Blend: AUG-CC-PVTZ-JKFIT + DEF2-UNIVERSAL-JKFIT
  @DF-RHF Final Energy:  -599.01750783233956
    Total Energy =                       -599.0175078323394473
 Dipole X            :       -113.4746845          119.7784007            6.3037162
 Dipole Y            :         -0.0000000            0.0000000           -0.0000000
 Dipole Z            :          0.0000000            0.0000000            0.0000000
 Magnitude           :                                                    6.3037162
  Basis Set: (AUG-CC-PVTZ AUX)
    Blend: AUG-CC-PVTZ-RI + DEF2-QZVPP-RI
	 Reference Energy          =    -599.0175078323395610 [Eh]
	 Singles Energy            =      -0.0000000000000000 [Eh]
	 Same-Spin Energy          =      -0.0277994899367639 [Eh]
	 Opposite-Spin Energy      =      -0.0644030251548683 [Eh]
	 Correlation Energy        =      -0.0922025150916322 [Eh]
	 Total Energy              =    -599.1097103474312462 [Eh]
	 SCS Total Energy          =    -599.1040579591709729 [Eh]
                               Psi4 1.9 release
    Molecular point group: c1
  Multiplicity = 1
  Basis Set: AUG-CC-PVTZ
    Blend: AUG-CC-PVTZ
  Basis Set: (AUG-CC-PVTZ AUX)
    Blend: AUG-CC-PVTZ-JKFIT + DEF2-UNIVERSAL-JKFIT
  @DF-RHF Final Energy:   -76.06050198187731
    Total Energy =                        -76.0605019818773087
  Basis Set: (AUG-CC-PVTZ AUX)
	 Singles Energy            =      -0.0000000000000000 [Eh]
	 Same-Spin Energy          =      -0.0683889416082208 [Eh]
	 Opposite-Spin Energy      =      -0.2154015263199222 [Eh]
	 Correlation Energy        =      -0.2837904679281430 [Eh]
	 Total Energy              =     -76.3442924498054509 [Eh]
	 SCS Total Energy          =     -76.3417801273306225 [Eh]
                               Psi4 1.9 release
    Molecular point group: c1

    Geometry (in Bohr), charge = 1, multiplicity = 1:

       Center              X                  Y                   Z               Mass
    ------------   -----------------  -----------------  -----------------  -----------------
         O            0.000000000000     0.000000000000     0.000000000000    15.994914619570
         H            1.112175634425     1.430367719429     0.000000000000     1.007825032230
         H            1.112175634425    -1.430367719429     0.000000000000     1.007825032230
         K            6.304126354527     0.000000000000     0.000000000000    38.963706486400

  Charge       = 1
  Multiplicity = 1
  Basis Set: AUG-CC-PVTZ
    Blend: AUG-CC-PVTZ
  Basis Set: (AUG-CC-PVTZ AUX)
    Blend: AUG-CC-PVTZ-JKFIT + DEF2-UNIVERSAL-JKFIT

    Orbital Energies [Eh]
    ---------------------

    Doubly Occupied:

       1A   -133.764761     2A    -20.738894     3A    -14.720366
       4A    -11.750435     5A    -11.750410     6A    -11.750385
       7A     -1.975993     8A     -1.523139     9A     -1.183468
      10A     -1.182617    11A     -1.181981    12A     -0.884519
      13A     -0.749977    14A     -0.676962

  @DF-RHF Final Energy:  -675.06169451288235

   => Energetics <=

    Nuclear Repulsion Energy =             40.3475322468274982
    One-Electron Energy =               -1003.1506379620517464
    Two-Electron Energy =                 287.7414112023417943
    Total Energy =                       -675.0616945128824682
 Dipole X            :       -115.1232988          122.0027520            6.8794532
 Dipole Y            :         -0.0000000            0.0000000           -0.0000000
 Dipole Z            :         -0.0000000            0.0000000           -0.0000000
 Magnitude           :                                                    6.8794532
  Basis Set: (AUG-CC-PVTZ AUX)
    Blend: AUG-CC-PVTZ-RI + DEF2-QZVPP-RI
	 Reference Energy          =    -675.0616945128823545 [Eh]
	 Singles Energy            =      -0.0000000000000000 [Eh]
	 Same-Spin Energy          =      -0.0970129055129175 [Eh]
	 Opposite-Spin Energy      =      -0.2813240539130372 [Eh]
	 Correlation Energy        =      -0.3783369594259547 [Eh]
	 Total Energy              =    -675.4400314723083056 [Eh]

	 ================> DF-SCS-MP2 Energies <==================
	-----------------------------------------------------------
	 SCS Same-Spin Scale       =       0.3333333333333333 [-]
	 SCS Opposite-Spin Scale   =       1.2000000000000000 [-]
	 SCS Same-Spin Energy      =      -0.0323376351709725 [Eh]
	 SCS Opposite-Spin Energy  =      -0.3375888646956446 [Eh]
	 SCS Correlation Energy    =      -0.3699264998666171 [Eh]
	 SCS Total Energy          =    -675.4316210127490194 [Eh]
	-----------------------------------------------------------

*** Psi4 exiting successfully. Buy a developer a beer!
