                               Psi4 1.9 release

  ==> Input File <==

--------------------------------------------------------------------------
MEMORY 60 GB

molecule dimer {
0 1
O      0.000000     0.000000     0.000000
H      0.588538     0.756918     0.000000
H      0.588538    -0.756918     0.000000
--
1 1
K      4.170000     0.000000     0.000000

units ang
no_reorient
no_com
symmetry c1
}

set {
basis        aug-cc-pVTZ
scf_type     df
}

energy("mp2", bsse_type="cp")
--------------------------------------------------------------------------

                               Psi4 1.9 release
    Molecular point group: c1
  Charge       = 1
  Multiplicity = 1
  Basis Set: AUG-CC-PVTZ
    Blend: AUG-CC-PVTZ
  Basis Set: (AUG-CC-PVTZ AUX)
    Blend: AUG-CC-PVTZ-JKFIT + DEF2-UNIVERSAL-JKFIT
  @DF-RHF Final Energy:  -599.01750718585231
    Total Energy =                       -599.0175071858523097
 Dipole X            :       -141.8431986          149.7230009            7.8798023
 Dipole Y            :          0.0000000            0.0000000            0.0000000
 Dipole Z            :          0.0000000            0.0000000            0.0000000
 Magnitude           :                                                    7.8798023
  Basis Set: (AUG-CC-PVTZ AUX)
    Blend: AUG-CC-PVTZ-RI + DEF2-QZVPP-RI
	 Reference Energy          =    -599.0175071858523097 [Eh]
	 Singles Energy            =      -0.0000000000000000 [Eh]
	 Same-Spin Energy          =      -0.0260697954005656 [Eh]
	 Opposite-Spin Energy      =      -0.0599841693720994 [Eh]
	 Correlation Energy        =      -0.0860539647726650 [Eh]
	 Total Energy              =    -599.1035611506249552 [Eh]
	 SCS Total Energy          =    -599.0981781208989787 [Eh]
                               Psi4 1.9 release
    Molecular point group: c1
  Multiplicity = 1
  Basis Set: AUG-CC-PVTZ
    Blend: AUG-CC-PVTZ
  Basis Set: (AUG-CC-PVTZ AUX)
    Blend: AUG-CC-PVTZ-JKFIT + DEF2-UNIVERSAL-JKFIT
  @DF-RHF Final Energy:   -76.06049169756261
    Total Energy =                        -76.0604916975626111
  Basis Set: (AUG-CC-PVTZ AUX)
	 Singles Energy            =      -0.0000000000000000 [Eh]
	 Same-Spin Energy          =      -0.0683803685138782 [Eh]
	 Opposite-Spin Energy      =      -0.2153332121836060 [Eh]
	 Correlation Energy        =      -0.2837135806974842 [Eh]
	 Total Energy              =     -76.3442052782600911 [Eh]
	 SCS Total Energy          =     -76.3416850083542329 [Eh]
                               Psi4 1.9 release
    Molecular point group: c1

    Geometry (in Bohr), charge = 1, multiplicity = 1:

       Center              X                  Y                   Z               Mass
    ------------   -----------------  -----------------  -----------------  -----------------
         O            0.000000000000     0.000000000000     0.000000000000    15.994914619570
         H            1.112175634425     1.430367719429     0.000000000000     1.007825032230
         H            1.112175634425    -1.430367719429     0.000000000000     1.007825032230
         K            7.880157943159     0.000000000000     0.000000000000    38.963706486400

  Charge       = 1
  Multiplicity = 1
  Basis Set: AUG-CC-PVTZ
    Blend: AUG-CC-PVTZ
  Basis Set: (AUG-CC-PVTZ AUX)
    Blend: AUG-CC-PVTZ-JKFIT + DEF2-UNIVERSAL-JKFIT

    Orbital Energies [Eh]
    ---------------------

    Doubly Occupied:

       1A   -133.763177     2A    -20.703612     3A    -14.718610
       4A    -11.748685     5A    -11.748668     6A    -11.748661
       7A     -1.973742     8A     -1.487871     9A     -1.180665
      10A     -1.180239    11A     -1.180054    12A     -0.850300
      13A     -0.716314    14A     -0.643234

  @DF-RHF Final Energy:  -675.06719167695428

   => Energetics <=

    Nuclear Repulsion Energy =             33.9624808813857513
    One-Electron Energy =                -990.7716838122634044
    Two-Electron Energy =                 281.7420112539232946
    Total Energy =                       -675.0671916769542804
 Dipole X            :       -143.4239450          151.9473522            8.5234072
 Dipole Y            :         -0.0000000            0.0000000           -0.0000000
 Dipole Z            :          0.0000000            0.0000000            0.0000000
 Magnitude           :                                                    8.5234072
  Basis Set: (AUG-CC-PVTZ AUX)
    Blend: AUG-CC-PVTZ-RI + DEF2-QZVPP-RI
	 Reference Energy          =    -675.0671916769542804 [Eh]
	 Singles Energy            =      -0.0000000000000000 [Eh]
	 Same-Spin Energy          =      -0.0948269436310699 [Eh]
	 Opposite-Spin Energy      =      -0.2761781941157027 [Eh]
	 Correlation Energy        =      -0.3710051377467725 [Eh]
	 Total Energy              =    -675.4381968147010866 [Eh]

	 ================> DF-SCS-MP2 Energies <==================
	-----------------------------------------------------------
	 SCS Same-Spin Scale       =       0.3333333333333333 [-]
	 SCS Opposite-Spin Scale   =       1.2000000000000000 [-]
	 SCS Same-Spin Energy      =      -0.0316089812103566 [Eh]
	 SCS Opposite-Spin Energy  =      -0.3314138329388432 [Eh]
	 SCS Correlation Energy    =      -0.3630228141491998 [Eh]
	 SCS Total Energy          =    -675.4302144911034702 [Eh]
	-----------------------------------------------------------

*** Psi4 exiting successfully. Buy a developer a beer!
