                               Psi4 1.9 release

  ==> Input File <==

--------------------------------------------------------------------------
MEMORY 60 GB

molecule dimer {
0 1
O      0.000000     0.000000     0.000000
H      0.588538     0.756918     0.000000
H      0.588538    -0.756918     0.000000
--
1 1
K      3.614000     0.000000     0.000000

units ang
no_reorient
no_com
symmetry c1
}

set {
basis        aug-cc-pVTZ
scf_type     df
}

energy("mp2", bsse_type="cp")
--------------------------------------------------------------------------

                               Psi4 1.9 release
    Molecular point group: c1
  Charge       = 1
  Multiplicity = 1
  Basis Set: AUG-CC-PVTZ
    Blend: AUG-CC-PVTZ
  Basis Set: (AUG-CC-PVTZ AUX)
    Blend: AUG-CC-PVTZ-JKFIT + DEF2-UNIVERSAL-JKFIT
  @DF-RHF Final Energy:  -599.01750751449742
    Total Energy =                       -599.0175075144974244
 Dipole X            :       -122.9308520          129.7599341            6.8290822
 Dipole Y            :          0.0000000            0.0000000            0.0000000
 Dipole Z            :          0.0000000            0.0000000            0.0000000
 Magnitude           :                                                    6.8290822
  Basis Set: (AUG-CC-PVTZ AUX)
    Blend: AUG-CC-PVTZ-RI + DEF2-QZVPP-RI
	 Reference Energy          =    -599.0175075144974244 [Eh]
	 Singles Energy            =      -0.0000000000000000 [Eh]
	 Same-Spin Energy          =      -0.0269406263083059 [Eh]
	 Opposite-Spin Energy      =      -0.0621926020879271 [Eh]
	 Correlation Energy        =      -0.0891332283962329 [Eh]
	 Total Energy              =    -599.1066407428936600 [Eh]
	 SCS Total Energy          =    -599.1011188457723620 [Eh]
                               Psi4 1.9 release
    Molecular point group: c1
  Multiplicity = 1
  Basis Set: AUG-CC-PVTZ
    Blend: AUG-CC-PVTZ
  Basis Set: (AUG-CC-PVTZ AUX)
    Blend: AUG-CC-PVTZ-JKFIT + DEF2-UNIVERSAL-JKFIT
  @DF-RHF Final Energy:   -76.06049888232272
    Total Energy =                        -76.0604988823227188
  Basis Set: (AUG-CC-PVTZ AUX)
	 Singles Energy            =      -0.0000000000000000 [Eh]
	 Same-Spin Energy          =      -0.0683854949133338 [Eh]
	 Opposite-Spin Energy      =      -0.2153750080049710 [Eh]
	 Correlation Energy        =      -0.2837605029183048 [Eh]
	 Total Energy              =     -76.3442593852410170 [Eh]
	 SCS Total Energy          =     -76.3417440568997989 [Eh]
                               Psi4 1.9 release
    Molecular point group: c1

    Geometry (in Bohr), charge = 1, multiplicity = 1:

       Center              X                  Y                   Z               Mass
    ------------   -----------------  -----------------  -----------------  -----------------
         O            0.000000000000     0.000000000000     0.000000000000    15.994914619570
         H            1.112175634425     1.430367719429     0.000000000000     1.007825032230
         H            1.112175634425    -1.430367719429     0.000000000000     1.007825032230
         K            6.829470217405     0.000000000000     0.000000000000    38.963706486400

  Charge       = 1
  Multiplicity = 1
  Basis Set: AUG-CC-PVTZ
    Blend: AUG-CC-PVTZ
  Basis Set: (AUG-CC-PVTZ AUX)
    Blend: AUG-CC-PVTZ-JKFIT + DEF2-UNIVERSAL-JKFIT

    Orbital Energies [Eh]
    ---------------------

    Doubly Occupied:

       1A   -133.764398     2A    -20.725685     3A    -14.719898
       4A    -11.749972     5A    -11.749952     6A    -11.749936
       7A     -1.975218     8A     -1.509736     9A     -1.182392
      10A     -1.181769    11A     -1.181363    12A     -0.871604
      13A     -0.737214    14A     -0.664293

  @DF-RHF Final Energy:  -675.06416753647204

   => Energetics <=

    Nuclear Repulsion Energy =             37.8844578789290622
    One-Electron Energy =                -998.3703918124647316
    Two-Electron Energy =                 285.4217663970636067
    Total Energy =                       -675.0641675364720413
 Dipole X            :       -124.5551565          131.9842854            7.4291289
 Dipole Y            :          0.0000000            0.0000000            0.0000000
 Dipole Z            :          0.0000000            0.0000000            0.0000000
 Magnitude           :                                                    7.4291289
  Basis Set: (AUG-CC-PVTZ AUX)
    Blend: AUG-CC-PVTZ-RI + DEF2-QZVPP-RI
	 Reference Energy          =    -675.0641675364720413 [Eh]
	 Singles Energy            =      -0.0000000000000000 [Eh]
	 Same-Spin Energy          =      -0.0959535986127621 [Eh]
	 Opposite-Spin Energy      =      -0.2788236591163269 [Eh]
	 Correlation Energy        =      -0.3747772577290890 [Eh]
	 Total Energy              =    -675.4389447942011202 [Eh]

	 ================> DF-SCS-MP2 Energies <==================
	-----------------------------------------------------------
	 SCS Same-Spin Scale       =       0.3333333333333333 [-]
	 SCS Opposite-Spin Scale   =       1.2000000000000000 [-]
	 SCS Same-Spin Energy      =      -0.0319845328709207 [Eh]
	 SCS Opposite-Spin Energy  =      -0.3345883909395923 [Eh]
	 SCS Correlation Energy    =      -0.3665729238105130 [Eh]
	 SCS Total Energy          =    -675.4307404602825500 [Eh]
	-----------------------------------------------------------

*** Psi4 exiting successfully. Buy a developer a beer!
