                               Psi4 1.9 release

  ==> Input File <==

--------------------------------------------------------------------------
MEMORY 60 GB

molecule dimer {
0 1
O      0.000000     0.000000     0.000000
H      0.588538     0.756918     0.000000
H      0.588538    -0.756918     0.000000
--
1 1
K      3.058000     0.000000     0.000000

units ang
no_reorient
no_com
symmetry c1
}

set {
basis        aug-cc-pVTZ
scf_type     df
}

energy("mp2", bsse_type="cp")
--------------------------------------------------------------------------

                               Psi4 1.9 release
    Molecular point group: c1
  Charge       = 1
  Multiplicity = 1
  Basis Set: AUG-CC-PVTZ
    Blend: AUG-CC-PVTZ
  Basis Set: (AUG-CC-PVTZ AUX)
    Blend: AUG-CC-PVTZ-JKFIT + DEF2-UNIVERSAL-JKFIT
  @DF-RHF Final Energy:  -599.01750852237421
    Total Energy =                       -599.0175085223742144
 Dipole X            :       -104.0185868          109.7968673            5.7782805
 Dipole Y            :         -0.0000000            0.0000000           -0.0000000
 Dipole Z            :          0.0000000            0.0000000            0.0000000
 Magnitude           :                                                    5.7782805
  Basis Set: (AUG-CC-PVTZ AUX)
    Blend: AUG-CC-PVTZ-RI + DEF2-QZVPP-RI
	 Reference Energy          =    -599.0175085223742144 [Eh]
	 Singles Energy            =      -0.0000000000000000 [Eh]
	 Same-Spin Energy          =      -0.0288923694766181 [Eh]
	 Opposite-Spin Energy      =      -0.0677243405424896 [Eh]
	 Correlation Energy        =      -0.0966167100191077 [Eh]
	 Total Energy              =    -599.1141252323933486 [Eh]
	 SCS Total Energy          =    -599.1084085208507304 [Eh]
                               Psi4 1.9 release
    Molecular point group: c1
  Multiplicity = 1
  Basis Set: AUG-CC-PVTZ
    Blend: AUG-CC-PVTZ
  Basis Set: (AUG-CC-PVTZ AUX)
    Blend: AUG-CC-PVTZ-JKFIT + DEF2-UNIVERSAL-JKFIT
  @DF-RHF Final Energy:   -76.06050195976910
    Total Energy =                        -76.0605019597690841
  Basis Set: (AUG-CC-PVTZ AUX)
	 Singles Energy            =      -0.0000000000000000 [Eh]
	 Same-Spin Energy          =      -0.0683908801923091 [Eh]
	 Opposite-Spin Energy      =      -0.2154204110294511 [Eh]
	 Correlation Energy        =      -0.2838112912217602 [Eh]
	 Total Energy              =     -76.3443132509908651 [Eh]
	 SCS Total Energy          =     -76.3418034130685470 [Eh]
                               Psi4 1.9 release
    Molecular point group: c1

    Geometry (in Bohr), charge = 1, multiplicity = 1:

       Center              X                  Y                   Z               Mass
    ------------   -----------------  -----------------  -----------------  -----------------
         O            0.000000000000     0.000000000000     0.000000000000    15.994914619570
         H            1.112175634425     1.430367719429     0.000000000000     1.007825032230
         H            1.112175634425    -1.430367719429     0.000000000000     1.007825032230
         K            5.778782491650     0.000000000000     0.000000000000    38.963706486400

  Charge       = 1
  Multiplicity = 1
  Basis Set: AUG-CC-PVTZ
    Blend: AUG-CC-PVTZ
  Basis Set: (AUG-CC-PVTZ AUX)
    Blend: AUG-CC-PVTZ-JKFIT + DEF2-UNIVERSAL-JKFIT

    Orbital Energies [Eh]
    ---------------------

    Doubly Occupied:

       1A   -133.764821     2A    -20.753367     3A    -14.720636
       4A    -11.750699     5A    -11.750664     6A    -11.750621
       7A     -1.976927     8A     -1.538531     9A     -1.185026
      10A     -1.183707    11A     -1.182636    12A     -0.899081
      13A     -0.764277    14A     -0.691072

  @DF-RHF Final Energy:  -675.05742024078086

   => Energetics <=

    Nuclear Repulsion Energy =             43.2687678335836523
    One-Electron Energy =               -1008.8282433160258051
    Two-Electron Energy =                 290.5020552416613100
    Total Energy =                       -675.0574202407808571
 Dipole X            :       -105.6897761          112.0212186            6.3314425
 Dipole Y            :          0.0000000            0.0000000            0.0000000
 Dipole Z            :         -0.0000000            0.0000000           -0.0000000
 Magnitude           :                                                    6.3314425
  Basis Set: (AUG-CC-PVTZ AUX)
    Blend: AUG-CC-PVTZ-RI + DEF2-QZVPP-RI
	 Reference Energy          =    -675.0574202407808571 [Eh]
	 Singles Energy            =      -0.0000000000000000 [Eh]
	 Same-Spin Energy          =      -0.0983983660678302 [Eh]
	 Opposite-Spin Energy      =      -0.2849867530945920 [Eh]
	 Correlation Energy        =      -0.3833851191624222 [Eh]
	 Total Energy              =    -675.4408053599432833 [Eh]

	 ================> DF-SCS-MP2 Energies <==================
	-----------------------------------------------------------
	 SCS Same-Spin Scale       =       0.3333333333333333 [-]
	 SCS Opposite-Spin Scale   =       1.2000000000000000 [-]
	 SCS Same-Spin Energy      =      -0.0327994553559434 [Eh]
	 SCS Opposite-Spin Energy  =      -0.3419841037135103 [Eh]
	 SCS Correlation Energy    =      -0.3747835590694538 [Eh]
	 SCS Total Energy          =    -675.4322037998502992 [Eh]
	-----------------------------------------------------------

*** Psi4 exiting successfully. Buy a developer a beer!
