                               Psi4 1.9 release

  ==> Input File <==

--------------------------------------------------------------------------
MEMORY 60 GB

molecule dimer {
0 1
O      0.000000     0.000000     0.000000
H     -0.588538     0.756918     0.000000
H     -0.588538    -0.756918     0.000000
--
-1 1
F      3.822000     0.000000     0.000000

units ang
no_reorient
no_com
symmetry c1
}

set {
basis        aug-cc-pVTZ
scf_type     df
}

energy("mp2", bsse_type="cp")
--------------------------------------------------------------------------

                               Psi4 1.9 release
    Molecular point group: c1
  Charge       = -1
  Multiplicity = 1
  Basis Set: AUG-CC-PVTZ
    Blend: AUG-CC-PVTZ
  Basis Set: (AUG-CC-PVTZ AUX)
    Blend: AUG-CC-PVTZ-JKFIT
  @DF-RHF Final Energy:   -99.45081642522373
    Total Energy =                        -99.4508164252237350
 Dipole X            :        -72.2249662           65.0027993           -7.2221670
 Dipole Y            :          0.0000000            0.0000000            0.0000000
 Dipole Z            :         -0.0000000            0.0000000           -0.0000000
 Magnitude           :                                                    7.2221670
  Basis Set: (AUG-CC-PVTZ AUX)
    Blend: AUG-CC-PVTZ-RI
	 Reference Energy          =     -99.4508164252237350 [Eh]
	 Singles Energy            =      -0.0000000000000000 [Eh]
	 Same-Spin Energy          =      -0.0815696973572959 [Eh]
	 Opposite-Spin Energy      =      -0.2262759295071903 [Eh]
	 Correlation Energy        =      -0.3078456268644861 [Eh]
	 Total Energy              =     -99.7586620520882263 [Eh]
	 SCS Total Energy          =     -99.7495374397514638 [Eh]
                               Psi4 1.9 release
    Molecular point group: c1
  Multiplicity = 1
  Basis Set: AUG-CC-PVTZ
    Blend: AUG-CC-PVTZ
  Basis Set: (AUG-CC-PVTZ AUX)
    Blend: AUG-CC-PVTZ-JKFIT
  @DF-RHF Final Energy:   -76.06048250902293
    Total Energy =                        -76.0604825090229326
  Basis Set: (AUG-CC-PVTZ AUX)
	 Singles Energy            =      -0.0000000000000000 [Eh]
	 Same-Spin Energy          =      -0.0683677407921826 [Eh]
	 Opposite-Spin Energy      =      -0.2152552652298730 [Eh]
	 Correlation Energy        =      -0.2836230060220556 [Eh]
	 Total Energy              =     -76.3441055150449870 [Eh]
	 SCS Total Energy          =     -76.3415780742295027 [Eh]
                               Psi4 1.9 release
    Molecular point group: c1

    Geometry (in Bohr), charge = -1, multiplicity = 1:

       Center              X                  Y                   Z               Mass
    ------------   -----------------  -----------------  -----------------  -----------------
         O            0.000000000000     0.000000000000     0.000000000000    15.994914619570
         H           -1.112175634425     1.430367719429     0.000000000000     1.007825032230
         H           -1.112175634425    -1.430367719429     0.000000000000     1.007825032230
         F            7.222533251500     0.000000000000     0.000000000000    18.998403162730

  Charge       = -1
  Multiplicity = 1
  Basis Set: AUG-CC-PVTZ
    Blend: AUG-CC-PVTZ
  Basis Set: (AUG-CC-PVTZ AUX)
    Blend: AUG-CC-PVTZ-JKFIT

    Orbital Energies [Eh]
    ---------------------

    Doubly Occupied:

       1A    -25.822117     2A    -20.440165     3A     -1.224464
       4A     -1.064457     5A     -0.588070     6A     -0.449995
       7A     -0.380217     8A     -0.169528     9A     -0.169345
      10A     -0.169317

  @DF-RHF Final Energy:  -175.49845098631380

   => Energetics <=

    Nuclear Repulsion Energy =             21.2775256141658851
    One-Electron Energy =                -292.5966051664325960
    Two-Electron Energy =                  95.8206285659529016
    Total Energy =                       -175.4984509863137987
 Dipole X            :        -70.6658715           62.7784480           -7.8874235
 Dipole Y            :         -0.0000000            0.0000000           -0.0000000
 Dipole Z            :         -0.0000000            0.0000000           -0.0000000
 Magnitude           :                                                    7.8874235
  Basis Set: (AUG-CC-PVTZ AUX)
    Blend: AUG-CC-PVTZ-RI
	 Reference Energy          =    -175.4984509863137987 [Eh]
	 Singles Energy            =      -0.0000000000000000 [Eh]
	 Same-Spin Energy          =      -0.1503124714914747 [Eh]
	 Opposite-Spin Energy      =      -0.4424510513039654 [Eh]
	 Correlation Energy        =      -0.5927635227954401 [Eh]
	 Total Energy              =    -176.0912145091092498 [Eh]

	 ================> DF-SCS-MP2 Energies <==================
	-----------------------------------------------------------
	 SCS Same-Spin Scale       =       0.3333333333333333 [-]
	 SCS Opposite-Spin Scale   =       1.2000000000000000 [-]
	 SCS Same-Spin Energy      =      -0.0501041571638249 [Eh]
	 SCS Opposite-Spin Energy  =      -0.5309412615647584 [Eh]
	 SCS Correlation Energy    =      -0.5810454187285833 [Eh]
	 SCS Total Energy          =    -176.0794964050423914 [Eh]
	-----------------------------------------------------------

*** Psi4 exiting successfully. Buy a developer a beer!
