                               Psi4 1.9 release

  ==> Input File <==

--------------------------------------------------------------------------
MEMORY 60 GB

molecule dimer {
0 1
O      0.000000     0.000000     0.000000
H     -0.588538     0.756918     0.000000
H     -0.588538    -0.756918     0.000000
--
-1 1
F      3.276000     0.000000     0.000000

units ang
no_reorient
no_com
symmetry c1
}

set {
basis        aug-cc-pVTZ
scf_type     df
}

energy("mp2", bsse_type="cp")
--------------------------------------------------------------------------

                               Psi4 1.9 release
    Molecular point group: c1
  Charge       = -1
  Multiplicity = 1
  Basis Set: AUG-CC-PVTZ
    Blend: AUG-CC-PVTZ
  Basis Set: (AUG-CC-PVTZ AUX)
    Blend: AUG-CC-PVTZ-JKFIT
  @DF-RHF Final Energy:   -99.45082333268093
    Total Energy =                        -99.4508233326809261
 Dipole X            :        -61.9064548           55.7166851           -6.1897697
 Dipole Y            :          0.0000000            0.0000000            0.0000000
 Dipole Z            :         -0.0000000            0.0000000           -0.0000000
 Magnitude           :                                                    6.1897697
  Basis Set: (AUG-CC-PVTZ AUX)
    Blend: AUG-CC-PVTZ-RI
	 Reference Energy          =     -99.4508233326809261 [Eh]
	 Singles Energy            =      -0.0000000000000000 [Eh]
	 Same-Spin Energy          =      -0.0815797335593139 [Eh]
	 Opposite-Spin Energy      =      -0.2263675949827858 [Eh]
	 Correlation Energy        =      -0.3079473285420997 [Eh]
	 Total Energy              =     -99.7587706612230249 [Eh]
	 SCS Total Energy          =     -99.7496576911800332 [Eh]
                               Psi4 1.9 release
    Molecular point group: c1
  Multiplicity = 1
  Basis Set: AUG-CC-PVTZ
    Blend: AUG-CC-PVTZ
  Basis Set: (AUG-CC-PVTZ AUX)
    Blend: AUG-CC-PVTZ-JKFIT
  @DF-RHF Final Energy:   -76.06048390335165
    Total Energy =                        -76.0604839033516527
  Basis Set: (AUG-CC-PVTZ AUX)
	 Singles Energy            =      -0.0000000000000000 [Eh]
	 Same-Spin Energy          =      -0.0683701701190671 [Eh]
	 Opposite-Spin Energy      =      -0.2152710863829078 [Eh]
	 Correlation Energy        =      -0.2836412565019749 [Eh]
	 Total Energy              =     -76.3441251598536326 [Eh]
	 SCS Total Energy          =     -76.3415992637174980 [Eh]
                               Psi4 1.9 release
    Molecular point group: c1

    Geometry (in Bohr), charge = -1, multiplicity = 1:

       Center              X                  Y                   Z               Mass
    ------------   -----------------  -----------------  -----------------  -----------------
         O            0.000000000000     0.000000000000     0.000000000000    15.994914619570
         H           -1.112175634425     1.430367719429     0.000000000000     1.007825032230
         H           -1.112175634425    -1.430367719429     0.000000000000     1.007825032230
         F            6.190742787000     0.000000000000     0.000000000000    18.998403162730

  Charge       = -1
  Multiplicity = 1
  Basis Set: AUG-CC-PVTZ
    Blend: AUG-CC-PVTZ
  Basis Set: (AUG-CC-PVTZ AUX)
    Blend: AUG-CC-PVTZ-JKFIT

    Orbital Energies [Eh]
    ---------------------

    Doubly Occupied:

       1A    -25.818958     2A    -20.421809     3A     -1.205755
       4A     -1.061514     5A     -0.569457     6A     -0.428944
       7A     -0.361050     8A     -0.166653     9A     -0.166311
      10A     -0.166255

  @DF-RHF Final Energy:  -175.49438463078150

   => Energetics <=

    Nuclear Repulsion Energy =             23.2292755679353888
    One-Electron Energy =                -296.7139103692376239
    Two-Electron Energy =                  97.9902501705207385
    Total Energy =                       -175.4943846307815249
 Dipole X            :        -60.3170939           53.4923338           -6.8247601
 Dipole Y            :         -0.0000000            0.0000000           -0.0000000
 Dipole Z            :         -0.0000000            0.0000000           -0.0000000
 Magnitude           :                                                    6.8247601
  Basis Set: (AUG-CC-PVTZ AUX)
    Blend: AUG-CC-PVTZ-RI
	 Reference Energy          =    -175.4943846307814965 [Eh]
	 Singles Energy            =      -0.0000000000000000 [Eh]
	 Same-Spin Energy          =      -0.1506062381694356 [Eh]
	 Opposite-Spin Energy      =      -0.4430171928744269 [Eh]
	 Correlation Energy        =      -0.5936234310438625 [Eh]
	 Total Energy              =    -176.0880080618253487 [Eh]

	 ================> DF-SCS-MP2 Energies <==================
	-----------------------------------------------------------
	 SCS Same-Spin Scale       =       0.3333333333333333 [-]
	 SCS Opposite-Spin Scale   =       1.2000000000000000 [-]
	 SCS Same-Spin Energy      =      -0.0502020793898118 [Eh]
	 SCS Opposite-Spin Energy  =      -0.5316206314493123 [Eh]
	 SCS Correlation Energy    =      -0.5818227108391241 [Eh]
	 SCS Total Energy          =    -176.0762073416206306 [Eh]
	-----------------------------------------------------------

*** Psi4 exiting successfully. Buy a developer a beer!
