                               Psi4 1.9 release

  ==> Input File <==

--------------------------------------------------------------------------
MEMORY 60 GB

molecule dimer {
0 1
O      0.000000     0.000000     0.000000
H     -0.588538     0.756918     0.000000
H     -0.588538    -0.756918     0.000000
--
-1 1
F      4.095000     0.000000     0.000000

units ang
no_reorient
no_com
symmetry c1
}

set {
basis        aug-cc-pVTZ
scf_type     df
}

energy("mp2", bsse_type="cp")
--------------------------------------------------------------------------

                               Psi4 1.9 release
    Molecular point group: c1
  Charge       = -1
  Multiplicity = 1
  Basis Set: AUG-CC-PVTZ
    Blend: AUG-CC-PVTZ
  Basis Set: (AUG-CC-PVTZ AUX)
    Blend: AUG-CC-PVTZ-JKFIT
  @DF-RHF Final Energy:   -99.45081295911002
    Total Energy =                        -99.4508129591100385
 Dipole X            :        -77.3840288           69.6458564           -7.7381724
 Dipole Y            :          0.0000000            0.0000000            0.0000000
 Dipole Z            :          0.0000000            0.0000000            0.0000000
 Magnitude           :                                                    7.7381724
  Basis Set: (AUG-CC-PVTZ AUX)
    Blend: AUG-CC-PVTZ-RI
	 Reference Energy          =     -99.4508129591100243 [Eh]
	 Singles Energy            =      -0.0000000000000000 [Eh]
	 Same-Spin Energy          =      -0.0815677040135684 [Eh]
	 Opposite-Spin Energy      =      -0.2262486278299494 [Eh]
	 Correlation Energy        =      -0.3078163318435178 [Eh]
	 Total Energy              =     -99.7586292909535359 [Eh]
	 SCS Total Energy          =     -99.7495005471771492 [Eh]
                               Psi4 1.9 release
    Molecular point group: c1
  Multiplicity = 1
  Basis Set: AUG-CC-PVTZ
    Blend: AUG-CC-PVTZ
  Basis Set: (AUG-CC-PVTZ AUX)
    Blend: AUG-CC-PVTZ-JKFIT
  @DF-RHF Final Energy:   -76.06048132686685
    Total Energy =                        -76.0604813268668494
  Basis Set: (AUG-CC-PVTZ AUX)
	 Singles Energy            =      -0.0000000000000000 [Eh]
	 Same-Spin Energy          =      -0.0683675916799491 [Eh]
	 Opposite-Spin Energy      =      -0.2152542605285972 [Eh]
	 Correlation Energy        =      -0.2836218522085462 [Eh]
	 Total Energy              =     -76.3441031790753897 [Eh]
	 SCS Total Energy          =     -76.3415756367278107 [Eh]
                               Psi4 1.9 release
    Molecular point group: c1

    Geometry (in Bohr), charge = -1, multiplicity = 1:

       Center              X                  Y                   Z               Mass
    ------------   -----------------  -----------------  -----------------  -----------------
         O            0.000000000000     0.000000000000     0.000000000000    15.994914619570
         H           -1.112175634425     1.430367719429     0.000000000000     1.007825032230
         H           -1.112175634425    -1.430367719429     0.000000000000     1.007825032230
         F            7.738428483750     0.000000000000     0.000000000000    18.998403162730

  Charge       = -1
  Multiplicity = 1
  Basis Set: AUG-CC-PVTZ
    Blend: AUG-CC-PVTZ
  Basis Set: (AUG-CC-PVTZ AUX)
    Blend: AUG-CC-PVTZ-JKFIT

    Orbital Energies [Eh]
    ---------------------

    Doubly Occupied:

       1A    -25.823320     2A    -20.447803     3A     -1.232249
       4A     -1.065636     5A     -0.595820     6A     -0.458674
       7A     -0.388177     8A     -0.170665     9A     -0.170539
      10A     -0.170519

  @DF-RHF Final Energy:  -175.49991960507640

   => Energetics <=

    Nuclear Repulsion Energy =             20.4921217627983374
    One-Electron Energy =                -290.9372819140153297
    Two-Electron Energy =                  94.9452405461405817
    Total Energy =                       -175.4999196050764283
 Dipole X            :        -75.8369462           67.4215051           -8.4154411
 Dipole Y            :          0.0000000            0.0000000            0.0000000
 Dipole Z            :          0.0000000            0.0000000            0.0000000
 Magnitude           :                                                    8.4154411
  Basis Set: (AUG-CC-PVTZ AUX)
    Blend: AUG-CC-PVTZ-RI
	 Reference Energy          =    -175.4999196050763999 [Eh]
	 Singles Energy            =      -0.0000000000000000 [Eh]
	 Same-Spin Energy          =      -0.1502322688120603 [Eh]
	 Opposite-Spin Energy      =      -0.4422753726475824 [Eh]
	 Correlation Energy        =      -0.5925076414596426 [Eh]
	 Total Energy              =    -176.0924272465360332 [Eh]

	 ================> DF-SCS-MP2 Energies <==================
	-----------------------------------------------------------
	 SCS Same-Spin Scale       =       0.3333333333333333 [-]
	 SCS Opposite-Spin Scale   =       1.2000000000000000 [-]
	 SCS Same-Spin Energy      =      -0.0500774229373534 [Eh]
	 SCS Opposite-Spin Energy  =      -0.5307304471770988 [Eh]
	 SCS Correlation Energy    =      -0.5808078701144522 [Eh]
	 SCS Total Energy          =    -176.0807274751908551 [Eh]
	-----------------------------------------------------------

*** Psi4 exiting successfully. Buy a developer a beer!
