                               Psi4 1.9 release

  ==> Input File <==

--------------------------------------------------------------------------
MEMORY 60 GB

molecule dimer {
0 1
O      0.000000     0.000000     0.000000
H     -0.588538     0.756918     0.000000
H     -0.588538    -0.756918     0.000000
--
-1 1
F      2.730000     0.000000     0.000000

units ang
no_reorient
no_com
symmetry c1
}

set {
basis        aug-cc-pVTZ
scf_type     df
}

energy("mp2", bsse_type="cp")
--------------------------------------------------------------------------

                               Psi4 1.9 release
    Molecular point group: c1
  Charge       = -1
  Multiplicity = 1
  Basis Set: AUG-CC-PVTZ
    Blend: AUG-CC-PVTZ
  Basis Set: (AUG-CC-PVTZ AUX)
    Blend: AUG-CC-PVTZ-JKFIT
  @DF-RHF Final Energy:   -99.45083810979821
    Total Energy =                        -99.4508381097982124
 Dipole X            :        -51.5891253           46.4305709           -5.1585544
 Dipole Y            :          0.0000000            0.0000000            0.0000000
 Dipole Z            :         -0.0000000            0.0000000           -0.0000000
 Magnitude           :                                                    5.1585544
  Basis Set: (AUG-CC-PVTZ AUX)
    Blend: AUG-CC-PVTZ-RI
	 Reference Energy          =     -99.4508381097982124 [Eh]
	 Singles Energy            =      -0.0000000000000000 [Eh]
	 Same-Spin Energy          =      -0.0816085761125255 [Eh]
	 Opposite-Spin Energy      =      -0.2265645079365123 [Eh]
	 Correlation Energy        =      -0.3081730840490379 [Eh]
	 Total Energy              =     -99.7590111938472432 [Eh]
	 SCS Total Energy          =     -99.7499183780262086 [Eh]
                               Psi4 1.9 release
    Molecular point group: c1
  Multiplicity = 1
  Basis Set: AUG-CC-PVTZ
    Blend: AUG-CC-PVTZ
  Basis Set: (AUG-CC-PVTZ AUX)
    Blend: AUG-CC-PVTZ-JKFIT
  @DF-RHF Final Energy:   -76.06049376717291
    Total Energy =                        -76.0604937671729004
  Basis Set: (AUG-CC-PVTZ AUX)
	 Singles Energy            =      -0.0000000000000000 [Eh]
	 Same-Spin Energy          =      -0.0683752477217336 [Eh]
	 Opposite-Spin Energy      =      -0.2153256542745385 [Eh]
	 Correlation Energy        =      -0.2837009019962721 [Eh]
	 Total Energy              =     -76.3441946691691840 [Eh]
	 SCS Total Energy          =     -76.3416763015429325 [Eh]
                               Psi4 1.9 release
    Molecular point group: c1

    Geometry (in Bohr), charge = -1, multiplicity = 1:

       Center              X                  Y                   Z               Mass
    ------------   -----------------  -----------------  -----------------  -----------------
         O            0.000000000000     0.000000000000     0.000000000000    15.994914619570
         H           -1.112175634425     1.430367719429     0.000000000000     1.007825032230
         H           -1.112175634425    -1.430367719429     0.000000000000     1.007825032230
         F            5.158952322500     0.000000000000     0.000000000000    18.998403162730

  Charge       = -1
  Multiplicity = 1
  Basis Set: AUG-CC-PVTZ
    Blend: AUG-CC-PVTZ
  Basis Set: (AUG-CC-PVTZ AUX)
    Blend: AUG-CC-PVTZ-JKFIT

    Orbital Energies [Eh]
    ---------------------

    Doubly Occupied:

       1A    -25.813932     2A    -20.397947     3A     -1.181789
       4A     -1.057691     5A     -0.545552     6A     -0.402372
       7A     -0.336439     8A     -0.162063     9A     -0.161990
      10A     -0.161868

  @DF-RHF Final Energy:  -175.48675817233064

   => Energetics <=

    Nuclear Repulsion Energy =             25.9349470706761629
    One-Electron Energy =                -302.4001238599222461
    Two-Electron Energy =                 100.9784186169154339
    Total Energy =                       -175.4867581723306387
 Dipole X            :        -49.9563943           44.2062196           -5.7501747
 Dipole Y            :         -0.0000000            0.0000000           -0.0000000
 Dipole Z            :          0.0000000            0.0000000            0.0000000
 Magnitude           :                                                    5.7501747
  Basis Set: (AUG-CC-PVTZ AUX)
    Blend: AUG-CC-PVTZ-RI
	 Reference Energy          =    -175.4867581723306387 [Eh]
	 Singles Energy            =      -0.0000000000000000 [Eh]
	 Same-Spin Energy          =      -0.1513116894658116 [Eh]
	 Opposite-Spin Energy      =      -0.4441711144339636 [Eh]
	 Correlation Energy        =      -0.5954828038997751 [Eh]
	 Total Energy              =    -176.0822409762304233 [Eh]

	 ================> DF-SCS-MP2 Energies <==================
	-----------------------------------------------------------
	 SCS Same-Spin Scale       =       0.3333333333333333 [-]
	 SCS Opposite-Spin Scale   =       1.2000000000000000 [-]
	 SCS Same-Spin Energy      =      -0.0504372298219372 [Eh]
	 SCS Opposite-Spin Energy  =      -0.5330053373207563 [Eh]
	 SCS Correlation Energy    =      -0.5834425671426935 [Eh]
	 SCS Total Energy          =    -176.0702007394733357 [Eh]
	-----------------------------------------------------------

*** Psi4 exiting successfully. Buy a developer a beer!
