                               Psi4 1.9 release

  ==> Input File <==

--------------------------------------------------------------------------
MEMORY 60 GB

molecule dimer {
0 1
O      0.000000     0.000000     0.000000
H     -0.588538     0.756918     0.000000
H     -0.588538    -0.756918     0.000000
--
-1 1
F      3.549000     0.000000     0.000000

units ang
no_reorient
no_com
symmetry c1
}

set {
basis        aug-cc-pVTZ
scf_type     df
}

energy("mp2", bsse_type="cp")
--------------------------------------------------------------------------

                               Psi4 1.9 release
    Molecular point group: c1
  Charge       = -1
  Multiplicity = 1
  Basis Set: AUG-CC-PVTZ
    Blend: AUG-CC-PVTZ
  Basis Set: (AUG-CC-PVTZ AUX)
    Blend: AUG-CC-PVTZ-JKFIT
  @DF-RHF Final Energy:   -99.45082100933989
    Total Energy =                        -99.4508210093399043
 Dipole X            :        -67.0656873           60.3597422           -6.7059451
 Dipole Y            :          0.0000000            0.0000000            0.0000000
 Dipole Z            :          0.0000000            0.0000000            0.0000000
 Magnitude           :                                                    6.7059451
  Basis Set: (AUG-CC-PVTZ AUX)
    Blend: AUG-CC-PVTZ-RI
	 Reference Energy          =     -99.4508210093398901 [Eh]
	 Singles Energy            =      -0.0000000000000000 [Eh]
	 Same-Spin Energy          =      -0.0815729477189130 [Eh]
	 Opposite-Spin Energy      =      -0.2263129213791392 [Eh]
	 Correlation Energy        =      -0.3078858690980522 [Eh]
	 Total Energy              =     -99.7587068784379483 [Eh]
	 SCS Total Energy          =     -99.7495874975678305 [Eh]
                               Psi4 1.9 release
    Molecular point group: c1
  Multiplicity = 1
  Basis Set: AUG-CC-PVTZ
    Blend: AUG-CC-PVTZ
  Basis Set: (AUG-CC-PVTZ AUX)
    Blend: AUG-CC-PVTZ-JKFIT
  @DF-RHF Final Energy:   -76.06048381958972
    Total Energy =                        -76.0604838195897059
  Basis Set: (AUG-CC-PVTZ AUX)
	 Singles Energy            =      -0.0000000000000000 [Eh]
	 Same-Spin Energy          =      -0.0683683985503612 [Eh]
	 Opposite-Spin Energy      =      -0.2152595069699481 [Eh]
	 Correlation Energy        =      -0.2836279055203093 [Eh]
	 Total Energy              =     -76.3441117251100252 [Eh]
	 SCS Total Energy          =     -76.3415846941371115 [Eh]
                               Psi4 1.9 release
    Molecular point group: c1

    Geometry (in Bohr), charge = -1, multiplicity = 1:

       Center              X                  Y                   Z               Mass
    ------------   -----------------  -----------------  -----------------  -----------------
         O            0.000000000000     0.000000000000     0.000000000000    15.994914619570
         H           -1.112175634425     1.430367719429     0.000000000000     1.007825032230
         H           -1.112175634425    -1.430367719429     0.000000000000     1.007825032230
         F            6.706638019250     0.000000000000     0.000000000000    18.998403162730

  Charge       = -1
  Multiplicity = 1
  Basis Set: AUG-CC-PVTZ
    Blend: AUG-CC-PVTZ
  Basis Set: (AUG-CC-PVTZ AUX)
    Blend: AUG-CC-PVTZ-JKFIT

    Orbital Energies [Eh]
    ---------------------

    Doubly Occupied:

       1A    -25.820689     2A    -20.431556     3A     -1.215684
       4A     -1.063091     5A     -0.579333     6A     -0.440137
       7A     -0.371228     8A     -0.168210     9A     -0.167950
      10A     -0.167911

  @DF-RHF Final Energy:  -175.49665636076156

   => Energetics <=

    Nuclear Repulsion Energy =             22.1803878608621332
    One-Electron Energy =                -294.5025080619473101
    Two-Electron Energy =                  96.8254638403236356
    Total Energy =                       -175.4966563607615342
 Dipole X            :        -65.4926390           58.1353909           -7.3572481
 Dipole Y            :         -0.0000000            0.0000000           -0.0000000
 Dipole Z            :          0.0000000            0.0000000            0.0000000
 Magnitude           :                                                    7.3572481
  Basis Set: (AUG-CC-PVTZ AUX)
    Blend: AUG-CC-PVTZ-RI
	 Reference Energy          =    -175.4966563607615626 [Eh]
	 Singles Energy            =      -0.0000000000000000 [Eh]
	 Same-Spin Energy          =      -0.1504295203676758 [Eh]
	 Opposite-Spin Energy      =      -0.4426874666202400 [Eh]
	 Correlation Energy        =      -0.5931169869879158 [Eh]
	 Total Energy              =    -176.0897733477494853 [Eh]

	 ================> DF-SCS-MP2 Energies <==================
	-----------------------------------------------------------
	 SCS Same-Spin Scale       =       0.3333333333333333 [-]
	 SCS Opposite-Spin Scale   =       1.2000000000000000 [-]
	 SCS Same-Spin Energy      =      -0.0501431734558919 [Eh]
	 SCS Opposite-Spin Energy  =      -0.5312249599442880 [Eh]
	 SCS Correlation Energy    =      -0.5813681334001799 [Eh]
	 SCS Total Energy          =    -176.0780244941617525 [Eh]
	-----------------------------------------------------------

*** Psi4 exiting successfully. Buy a developer a beer!
