                               Psi4 1.9 release

  ==> Input File <==

--------------------------------------------------------------------------
MEMORY 60 GB

molecule dimer {
0 1
O      0.000000     0.000000     0.000000
H     -0.588538     0.756918     0.000000
H     -0.588538    -0.756918     0.000000
--
-1 1
F      5.460000     0.000000     0.000000

units ang
no_reorient
no_com
symmetry c1
}

set {
basis        aug-cc-pVTZ
scf_type     df
}

energy("mp2", bsse_type="cp")
--------------------------------------------------------------------------

                               Psi4 1.9 release
    Molecular point group: c1
  Charge       = -1
  Multiplicity = 1
  Basis Set: AUG-CC-PVTZ
    Blend: AUG-CC-PVTZ
  Basis Set: (AUG-CC-PVTZ AUX)
    Blend: AUG-CC-PVTZ-JKFIT
  @DF-RHF Final Energy:   -99.45080825767133
    Total Energy =                        -99.4508082576713122
 Dipole X            :       -103.1787454           92.8611418          -10.3176036
 Dipole Y            :          0.0000000            0.0000000            0.0000000
 Dipole Z            :         -0.0000000            0.0000000           -0.0000000
 Magnitude           :                                                   10.3176036
  Basis Set: (AUG-CC-PVTZ AUX)
    Blend: AUG-CC-PVTZ-RI
	 Reference Energy          =     -99.4508082576713264 [Eh]
	 Singles Energy            =      -0.0000000000000000 [Eh]
	 Same-Spin Energy          =      -0.0815584578032278 [Eh]
	 Opposite-Spin Energy      =      -0.2261643638582941 [Eh]
	 Correlation Energy        =      -0.3077228216615219 [Eh]
	 Total Energy              =     -99.7585310793328546 [Eh]
	 SCS Total Energy          =     -99.7493916469023532 [Eh]
                               Psi4 1.9 release
    Molecular point group: c1
  Multiplicity = 1
  Basis Set: AUG-CC-PVTZ
    Blend: AUG-CC-PVTZ
  Basis Set: (AUG-CC-PVTZ AUX)
    Blend: AUG-CC-PVTZ-JKFIT
  @DF-RHF Final Energy:   -76.06048080962137
    Total Energy =                        -76.0604808096213674
  Basis Set: (AUG-CC-PVTZ AUX)
	 Singles Energy            =      -0.0000000000000000 [Eh]
	 Same-Spin Energy          =      -0.0683669165598307 [Eh]
	 Opposite-Spin Energy      =      -0.2152487860347194 [Eh]
	 Correlation Energy        =      -0.2836157025945501 [Eh]
	 Total Energy              =     -76.3440965122159128 [Eh]
	 SCS Total Energy          =     -76.3415683250496357 [Eh]
                               Psi4 1.9 release
    Molecular point group: c1

    Geometry (in Bohr), charge = -1, multiplicity = 1:

       Center              X                  Y                   Z               Mass
    ------------   -----------------  -----------------  -----------------  -----------------
         O            0.000000000000     0.000000000000     0.000000000000    15.994914619570
         H           -1.112175634425     1.430367719429     0.000000000000     1.007825032230
         H           -1.112175634425    -1.430367719429     0.000000000000     1.007825032230
         F           10.317904645000     0.000000000000     0.000000000000    18.998403162730

  Charge       = -1
  Multiplicity = 1
  Basis Set: AUG-CC-PVTZ
    Blend: AUG-CC-PVTZ
  Basis Set: (AUG-CC-PVTZ AUX)
    Blend: AUG-CC-PVTZ-JKFIT

    Orbital Energies [Eh]
    ---------------------

    Doubly Occupied:

       1A    -25.827264     2A    -20.475696     3A     -1.260585
       4A     -1.069589     5A     -0.624081     6A     -0.489653
       7A     -0.417070     8A     -0.174544     9A     -0.174509
      10A     -0.174505

  @DF-RHF Final Energy:  -175.50452139081631

   => Energetics <=

    Nuclear Repulsion Energy =             17.7209631524289435
    One-Electron Energy =                -285.0759782559837276
    Two-Electron Energy =                  91.8504937127384693
    Total Energy =                       -175.5045213908163078
 Dipole X            :       -101.6715604           90.6367905          -11.0347698
 Dipole Y            :          0.0000000            0.0000000            0.0000000
 Dipole Z            :          0.0000000            0.0000000            0.0000000
 Magnitude           :                                                   11.0347698
  Basis Set: (AUG-CC-PVTZ AUX)
    Blend: AUG-CC-PVTZ-RI
	 Reference Energy          =    -175.5045213908163078 [Eh]
	 Singles Energy            =      -0.0000000000000000 [Eh]
	 Same-Spin Energy          =      -0.1500533717695437 [Eh]
	 Opposite-Spin Energy      =      -0.4418058967455202 [Eh]
	 Correlation Energy        =      -0.5918592685150639 [Eh]
	 Total Energy              =    -176.0963806593313734 [Eh]

	 ================> DF-SCS-MP2 Energies <==================
	-----------------------------------------------------------
	 SCS Same-Spin Scale       =       0.3333333333333333 [-]
	 SCS Opposite-Spin Scale   =       1.2000000000000000 [-]
	 SCS Same-Spin Energy      =      -0.0500177905898479 [Eh]
	 SCS Opposite-Spin Energy  =      -0.5301670760946242 [Eh]
	 SCS Correlation Energy    =      -0.5801848666844721 [Eh]
	 SCS Total Energy          =    -176.0847062575007840 [Eh]
	-----------------------------------------------------------

*** Psi4 exiting successfully. Buy a developer a beer!
