                               Psi4 1.9 release

  ==> Input File <==

--------------------------------------------------------------------------
MEMORY 60 GB

molecule dimer {
0 1
O      0.000000     0.000000     0.000000
H     -0.588538     0.756918     0.000000
H     -0.588538    -0.756918     0.000000
--
-1 1
Cl     3.210000     0.000000     0.000000

units ang
no_reorient
no_com
symmetry c1
}

set {
basis        aug-cc-pVTZ
scf_type     df
}

energy("mp2", bsse_type="cp")
--------------------------------------------------------------------------

                               Psi4 1.9 release
    Molecular point group: c1
  Charge       = -1
  Multiplicity = 1
  Basis Set: AUG-CC-PVTZ
    Blend: AUG-CC-PVTZ
  Basis Set: (AUG-CC-PVTZ AUX)
    Blend: AUG-CC-PVTZ-JKFIT
  @DF-RHF Final Energy:  -459.57349194657638
    Total Energy =                       -459.5734919465763824
 Dipole X            :       -109.1882746          103.1223547           -6.0659199
 Dipole Y            :          0.0000000            0.0000000            0.0000000
 Dipole Z            :         -0.0000000            0.0000000           -0.0000000
 Magnitude           :                                                    6.0659199
  Basis Set: (AUG-CC-PVTZ AUX)
    Blend: AUG-CC-PVTZ-RI
	 Reference Energy          =    -459.5734919465763824 [Eh]
	 Singles Energy            =      -0.0000000000000000 [Eh]
	 Same-Spin Energy          =      -0.0623780068346803 [Eh]
	 Opposite-Spin Energy      =      -0.1790345900955943 [Eh]
	 Correlation Energy        =      -0.2414125969302746 [Eh]
	 Total Energy              =    -459.8149045435066569 [Eh]
	 SCS Total Energy          =    -459.8091261236359628 [Eh]
                               Psi4 1.9 release
    Molecular point group: c1
  Multiplicity = 1
  Basis Set: AUG-CC-PVTZ
    Blend: AUG-CC-PVTZ
  Basis Set: (AUG-CC-PVTZ AUX)
    Blend: AUG-CC-PVTZ-JKFIT
  @DF-RHF Final Energy:   -76.06049025893762
    Total Energy =                        -76.0604902589376195
  Basis Set: (AUG-CC-PVTZ AUX)
	 Singles Energy            =      -0.0000000000000000 [Eh]
	 Same-Spin Energy          =      -0.0683759434375882 [Eh]
	 Opposite-Spin Energy      =      -0.2153259449683103 [Eh]
	 Correlation Energy        =      -0.2837018884058986 [Eh]
	 Total Energy              =     -76.3441921473435201 [Eh]
	 SCS Total Energy          =     -76.3416733740454561 [Eh]
                               Psi4 1.9 release
    Molecular point group: c1

    Geometry (in Bohr), charge = -1, multiplicity = 1:

       Center              X                  Y                   Z               Mass
    ------------   -----------------  -----------------  -----------------  -----------------
         O            0.000000000000     0.000000000000     0.000000000000    15.994914619570
         H           -1.112175634425     1.430367719429     0.000000000000     1.007825032230
         H           -1.112175634425    -1.430367719429     0.000000000000     1.007825032230
         CL           6.066020862720     0.000000000000     0.000000000000    34.968852682000

  Charge       = -1
  Multiplicity = 1
  Basis Set: AUG-CC-PVTZ
    Blend: AUG-CC-PVTZ
  Basis Set: (AUG-CC-PVTZ AUX)
    Blend: AUG-CC-PVTZ-JKFIT

    Orbital Energies [Eh]
    ---------------------

    Doubly Occupied:

       1A   -104.489810     2A    -20.422372     3A    -10.213682
       4A     -7.679730     5A     -7.679721     6A     -7.679658
       7A     -1.207117     8A     -0.718362     9A     -0.570602
      10A     -0.431813    11A     -0.362379    12A     -0.135542
      13A     -0.135285    14A     -0.132937

  @DF-RHF Final Energy:  -535.61461876229612

   => Energetics <=

    Nuclear Repulsion Energy =             36.2454066676755460
    One-Electron Energy =                -820.0020288299992899
    Two-Electron Energy =                 248.1420034000276189
    Total Energy =                       -535.6146187622961179
 Dipole X            :       -107.7161958          100.8980034           -6.8181924
 Dipole Y            :          0.0000000            0.0000000            0.0000000
 Dipole Z            :         -0.0000000            0.0000000           -0.0000000
 Magnitude           :                                                    6.8181924
  Basis Set: (AUG-CC-PVTZ AUX)
    Blend: AUG-CC-PVTZ-RI
	 Reference Energy          =    -535.6146187622961179 [Eh]
	 Singles Energy            =      -0.0000000000000000 [Eh]
	 Same-Spin Energy          =      -0.1322074208113653 [Eh]
	 Opposite-Spin Energy      =      -0.3965548711838875 [Eh]
	 Correlation Energy        =      -0.5287622919952528 [Eh]
	 Total Energy              =    -536.1433810542913534 [Eh]

	 ================> DF-SCS-MP2 Energies <==================
	-----------------------------------------------------------
	 SCS Same-Spin Scale       =       0.3333333333333333 [-]
	 SCS Opposite-Spin Scale   =       1.2000000000000000 [-]
	 SCS Same-Spin Energy      =      -0.0440691402704551 [Eh]
	 SCS Opposite-Spin Energy  =      -0.4758658454206650 [Eh]
	 SCS Correlation Energy    =      -0.5199349856911201 [Eh]
	 SCS Total Energy          =    -536.1345537479871837 [Eh]
	-----------------------------------------------------------

*** Psi4 exiting successfully. Buy a developer a beer!
