                               Psi4 1.9 release

  ==> Input File <==

--------------------------------------------------------------------------
MEMORY 60 GB

molecule dimer {
0 1
O      0.000000     0.000000     0.000000
H     -0.588538     0.756918     0.000000
H     -0.588538    -0.756918     0.000000
--
-1 1
Cl     4.173000     0.000000     0.000000

units ang
no_reorient
no_com
symmetry c1
}

set {
basis        aug-cc-pVTZ
scf_type     df
}

energy("mp2", bsse_type="cp")
--------------------------------------------------------------------------

                               Psi4 1.9 release
    Molecular point group: c1
  Charge       = -1
  Multiplicity = 1
  Basis Set: AUG-CC-PVTZ
    Blend: AUG-CC-PVTZ
  Basis Set: (AUG-CC-PVTZ AUX)
    Blend: AUG-CC-PVTZ-JKFIT
  @DF-RHF Final Energy:  -459.57348489544933
    Total Energy =                       -459.5734848954493827
 Dipole X            :       -141.9446676          134.0590611           -7.8856066
 Dipole Y            :         -0.0000000            0.0000000           -0.0000000
 Dipole Z            :          0.0000000            0.0000000            0.0000000
 Magnitude           :                                                    7.8856066
  Basis Set: (AUG-CC-PVTZ AUX)
    Blend: AUG-CC-PVTZ-RI
	 Reference Energy          =    -459.5734848954493259 [Eh]
	 Singles Energy            =      -0.0000000000000000 [Eh]
	 Same-Spin Energy          =      -0.0622987468314335 [Eh]
	 Opposite-Spin Energy      =      -0.1787408051300902 [Eh]
	 Correlation Energy        =      -0.2410395519615237 [Eh]
	 Total Energy              =    -459.8145244474108608 [Eh]
	 SCS Total Energy          =    -459.8087401105492518 [Eh]
                               Psi4 1.9 release
    Molecular point group: c1
  Multiplicity = 1
  Basis Set: AUG-CC-PVTZ
    Blend: AUG-CC-PVTZ
  Basis Set: (AUG-CC-PVTZ AUX)
    Blend: AUG-CC-PVTZ-JKFIT
  @DF-RHF Final Energy:   -76.06048323634236
    Total Energy =                        -76.0604832363423782
  Basis Set: (AUG-CC-PVTZ AUX)
	 Singles Energy            =      -0.0000000000000000 [Eh]
	 Same-Spin Energy          =      -0.0683681521795053 [Eh]
	 Opposite-Spin Energy      =      -0.2152595171104034 [Eh]
	 Correlation Energy        =      -0.2836276692899087 [Eh]
	 Total Energy              =     -76.3441109056322773 [Eh]
	 SCS Total Energy          =     -76.3415840409346771 [Eh]
                               Psi4 1.9 release
    Molecular point group: c1

    Geometry (in Bohr), charge = -1, multiplicity = 1:

       Center              X                  Y                   Z               Mass
    ------------   -----------------  -----------------  -----------------  -----------------
         O            0.000000000000     0.000000000000     0.000000000000    15.994914619570
         H           -1.112175634425     1.430367719429     0.000000000000     1.007825032230
         H           -1.112175634425    -1.430367719429     0.000000000000     1.007825032230
         CL           7.885827121536     0.000000000000     0.000000000000    34.968852682000

  Charge       = -1
  Multiplicity = 1
  Basis Set: AUG-CC-PVTZ
    Blend: AUG-CC-PVTZ
  Basis Set: (AUG-CC-PVTZ AUX)
    Blend: AUG-CC-PVTZ-JKFIT

    Orbital Energies [Eh]
    ---------------------

    Doubly Occupied:

       1A   -104.495868     2A    -20.450776     3A    -10.219612
       4A     -7.685656     5A     -7.685653     6A     -7.685622
       7A     -1.235335     8A     -0.723404     9A     -0.598877
      10A     -0.462207    11A     -0.391320    12A     -0.140446
      13A     -0.140383    14A     -0.139807

  @DF-RHF Final Energy:  -535.62291540481635

   => Energetics <=

    Nuclear Repulsion Energy =             30.1580878065522278
    One-Electron Energy =                -807.4520644474857818
    Two-Electron Energy =                 241.6710612361171968
    Total Energy =                       -535.6229154048163537
 Dipole X            :       -140.4576491          131.8347098           -8.6229393
 Dipole Y            :         -0.0000000            0.0000000           -0.0000000
 Dipole Z            :          0.0000000            0.0000000            0.0000000
 Magnitude           :                                                    8.6229393
  Basis Set: (AUG-CC-PVTZ AUX)
    Blend: AUG-CC-PVTZ-RI
	 Reference Energy          =    -535.6229154048163537 [Eh]
	 Singles Energy            =      -0.0000000000000000 [Eh]
	 Same-Spin Energy          =      -0.1311166310416731 [Eh]
	 Opposite-Spin Energy      =      -0.3949050870307953 [Eh]
	 Correlation Energy        =      -0.5260217180724684 [Eh]
	 Total Energy              =    -536.1489371228888103 [Eh]

	 ================> DF-SCS-MP2 Energies <==================
	-----------------------------------------------------------
	 SCS Same-Spin Scale       =       0.3333333333333333 [-]
	 SCS Opposite-Spin Scale   =       1.2000000000000000 [-]
	 SCS Same-Spin Energy      =      -0.0437055436805577 [Eh]
	 SCS Opposite-Spin Energy  =      -0.4738861044369543 [Eh]
	 SCS Correlation Energy    =      -0.5175916481175120 [Eh]
	 SCS Total Energy          =    -536.1405070529339127 [Eh]
	-----------------------------------------------------------

*** Psi4 exiting successfully. Buy a developer a beer!
