                               Psi4 1.9 release

  ==> Input File <==

--------------------------------------------------------------------------
MEMORY 60 GB

molecule dimer {
0 1
O      0.000000     0.000000     0.000000
H     -0.588538     0.756918     0.000000
H     -0.588538    -0.756918     0.000000
--
-1 1
Cl     6.420000     0.000000     0.000000

units ang
no_reorient
no_com
symmetry c1
}

set {
basis        aug-cc-pVTZ
scf_type     df
}

energy("mp2", bsse_type="cp")
--------------------------------------------------------------------------

                               Psi4 1.9 release
    Molecular point group: c1
  Charge       = -1
  Multiplicity = 1
  Basis Set: AUG-CC-PVTZ
    Blend: AUG-CC-PVTZ
  Basis Set: (AUG-CC-PVTZ AUX)
    Blend: AUG-CC-PVTZ-JKFIT
  @DF-RHF Final Energy:  -459.57348262582752
    Total Energy =                       -459.5734826258275234
 Dipole X            :       -218.3770122          206.2447093          -12.1323029
 Dipole Y            :         -0.0000000            0.0000000           -0.0000000
 Dipole Z            :          0.0000000            0.0000000            0.0000000
 Magnitude           :                                                   12.1323029
  Basis Set: (AUG-CC-PVTZ AUX)
    Blend: AUG-CC-PVTZ-RI
	 Reference Energy          =    -459.5734826258275234 [Eh]
	 Singles Energy            =      -0.0000000000000000 [Eh]
	 Same-Spin Energy          =      -0.0622634944417930 [Eh]
	 Opposite-Spin Energy      =      -0.1786241020513329 [Eh]
	 Correlation Energy        =      -0.2408875964931258 [Eh]
	 Total Energy              =    -459.8143702223206333 [Eh]
	 SCS Total Energy          =    -459.8085860464364032 [Eh]
                               Psi4 1.9 release
    Molecular point group: c1
  Multiplicity = 1
  Basis Set: AUG-CC-PVTZ
    Blend: AUG-CC-PVTZ
  Basis Set: (AUG-CC-PVTZ AUX)
    Blend: AUG-CC-PVTZ-JKFIT
  @DF-RHF Final Energy:   -76.06048076117382
    Total Energy =                        -76.0604807611738067
  Basis Set: (AUG-CC-PVTZ AUX)
	 Singles Energy            =      -0.0000000000000000 [Eh]
	 Same-Spin Energy          =      -0.0683669208457209 [Eh]
	 Opposite-Spin Energy      =      -0.2152478284934100 [Eh]
	 Correlation Energy        =      -0.2836147493391309 [Eh]
	 Total Energy              =     -76.3440955105129575 [Eh]
	 SCS Total Energy          =     -76.3415671289811542 [Eh]
                               Psi4 1.9 release
    Molecular point group: c1

    Geometry (in Bohr), charge = -1, multiplicity = 1:

       Center              X                  Y                   Z               Mass
    ------------   -----------------  -----------------  -----------------  -----------------
         O            0.000000000000     0.000000000000     0.000000000000    15.994914619570
         H           -1.112175634425     1.430367719429     0.000000000000     1.007825032230
         H           -1.112175634425    -1.430367719429     0.000000000000     1.007825032230
         CL          12.132041725439     0.000000000000     0.000000000000    34.968852682000

  Charge       = -1
  Multiplicity = 1
  Basis Set: AUG-CC-PVTZ
    Blend: AUG-CC-PVTZ
  Basis Set: (AUG-CC-PVTZ AUX)
    Blend: AUG-CC-PVTZ-JKFIT

    Orbital Energies [Eh]
    ---------------------

    Doubly Occupied:

       1A   -104.501159     2A    -20.488845     3A    -10.224931
       4A     -7.690963     5A     -7.690963     6A     -7.690955
       7A     -1.273884     8A     -0.728694     9A     -0.637369
      10A     -0.503867    11A     -0.430587    12A     -0.145566
      13A     -0.145557    14A     -0.145434

  @DF-RHF Final Energy:  -535.62897175507226

   => Energetics <=

    Nuclear Repulsion Energy =             22.9424986879724884
    One-Electron Energy =                -792.5453893804900645
    Two-Electron Energy =                 233.9739189374453190
    Total Energy =                       -535.6289717550722571
 Dipole X            :       -216.9014274          204.0203581          -12.8810693
 Dipole Y            :          0.0000000            0.0000000            0.0000000
 Dipole Z            :          0.0000000            0.0000000            0.0000000
 Magnitude           :                                                   12.8810693
  Basis Set: (AUG-CC-PVTZ AUX)
    Blend: AUG-CC-PVTZ-RI
	 Reference Energy          =    -535.6289717550722571 [Eh]
	 Singles Energy            =      -0.0000000000000000 [Eh]
	 Same-Spin Energy          =      -0.1307284902131814 [Eh]
	 Opposite-Spin Energy      =      -0.3941609184850643 [Eh]
	 Correlation Energy        =      -0.5248894086982456 [Eh]
	 Total Energy              =    -536.1538611637705571 [Eh]

	 ================> DF-SCS-MP2 Energies <==================
	-----------------------------------------------------------
	 SCS Same-Spin Scale       =       0.3333333333333333 [-]
	 SCS Opposite-Spin Scale   =       1.2000000000000000 [-]
	 SCS Same-Spin Energy      =      -0.0435761634043938 [Eh]
	 SCS Opposite-Spin Energy  =      -0.4729931021820771 [Eh]
	 SCS Correlation Energy    =      -0.5165692655864709 [Eh]
	 SCS Total Energy          =    -536.1455410206586976 [Eh]
	-----------------------------------------------------------

*** Psi4 exiting successfully. Buy a developer a beer!
