                               Psi4 1.9 release

  ==> Input File <==

--------------------------------------------------------------------------
MEMORY 60 GB

molecule dimer {
0 1
O      0.000000     0.000000     0.000000
H     -0.588538     0.756918     0.000000
H     -0.588538    -0.756918     0.000000
--
-1 1
Cl     3.531000     0.000000     0.000000

units ang
no_reorient
no_com
symmetry c1
}

set {
basis        aug-cc-pVTZ
scf_type     df
}

energy("mp2", bsse_type="cp")
--------------------------------------------------------------------------

                               Psi4 1.9 release
    Molecular point group: c1
  Charge       = -1
  Multiplicity = 1
  Basis Set: AUG-CC-PVTZ
    Blend: AUG-CC-PVTZ
  Basis Set: (AUG-CC-PVTZ AUX)
    Blend: AUG-CC-PVTZ-JKFIT
  @DF-RHF Final Energy:  -459.57348984866360
    Total Energy =                       -459.5734898486635984
 Dipole X            :       -120.1069109          113.4345901           -6.6723208
 Dipole Y            :         -0.0000000            0.0000000           -0.0000000
 Dipole Z            :         -0.0000000            0.0000000           -0.0000000
 Magnitude           :                                                    6.6723208
  Basis Set: (AUG-CC-PVTZ AUX)
    Blend: AUG-CC-PVTZ-RI
	 Reference Energy          =    -459.5734898486635984 [Eh]
	 Singles Energy            =      -0.0000000000000000 [Eh]
	 Same-Spin Energy          =      -0.0623421386282556 [Eh]
	 Opposite-Spin Energy      =      -0.1788909438267752 [Eh]
	 Correlation Energy        =      -0.2412330824550308 [Eh]
	 Total Energy              =    -459.8147229311186379 [Eh]
	 SCS Total Energy          =    -459.8089396941318228 [Eh]
                               Psi4 1.9 release
    Molecular point group: c1
  Multiplicity = 1
  Basis Set: AUG-CC-PVTZ
    Blend: AUG-CC-PVTZ
  Basis Set: (AUG-CC-PVTZ AUX)
    Blend: AUG-CC-PVTZ-JKFIT
  @DF-RHF Final Energy:   -76.06048537338239
    Total Energy =                        -76.0604853733823916
  Basis Set: (AUG-CC-PVTZ AUX)
	 Singles Energy            =      -0.0000000000000000 [Eh]
	 Same-Spin Energy          =      -0.0683722054482099 [Eh]
	 Opposite-Spin Energy      =      -0.2152894796429240 [Eh]
	 Correlation Energy        =      -0.2836616850911339 [Eh]
	 Total Energy              =     -76.3441470584735242 [Eh]
	 SCS Total Energy          =     -76.3416234841033088 [Eh]
                               Psi4 1.9 release
    Molecular point group: c1

    Geometry (in Bohr), charge = -1, multiplicity = 1:

       Center              X                  Y                   Z               Mass
    ------------   -----------------  -----------------  -----------------  -----------------
         O            0.000000000000     0.000000000000     0.000000000000    15.994914619570
         H           -1.112175634425     1.430367719429     0.000000000000     1.007825032230
         H           -1.112175634425    -1.430367719429     0.000000000000     1.007825032230
         CL           6.672622948992     0.000000000000     0.000000000000    34.968852682000

  Charge       = -1
  Multiplicity = 1
  Basis Set: AUG-CC-PVTZ
    Blend: AUG-CC-PVTZ
  Basis Set: (AUG-CC-PVTZ AUX)
    Blend: AUG-CC-PVTZ-JKFIT

    Orbital Energies [Eh]
    ---------------------

    Doubly Occupied:

       1A   -104.492445     2A    -20.433036     3A    -10.216219
       4A     -7.682271     5A     -7.682265     6A     -7.682211
       7A     -1.217520     8A     -0.720326     9A     -0.581070
      10A     -0.442789    11A     -0.373071    12A     -0.137486
      13A     -0.137338    14A     -0.136092

  @DF-RHF Final Energy:  -535.61857772679809

   => Energetics <=

    Nuclear Repulsion Energy =             33.8575668290690999
    One-Electron Energy =                -815.0840090081771905
    Two-Electron Energy =                 245.6078644523099115
    Total Energy =                       -535.6185777267980939
 Dipole X            :       -118.6254134          111.2102389           -7.4151745
 Dipole Y            :         -0.0000000            0.0000000           -0.0000000
 Dipole Z            :         -0.0000000            0.0000000           -0.0000000
 Magnitude           :                                                    7.4151745
  Basis Set: (AUG-CC-PVTZ AUX)
    Blend: AUG-CC-PVTZ-RI
	 Reference Energy          =    -535.6185777267980939 [Eh]
	 Singles Energy            =      -0.0000000000000000 [Eh]
	 Same-Spin Energy          =      -0.1316569308107840 [Eh]
	 Opposite-Spin Energy      =      -0.3957467506120927 [Eh]
	 Correlation Energy        =      -0.5274036814228766 [Eh]
	 Total Energy              =    -536.1459814082210187 [Eh]

	 ================> DF-SCS-MP2 Energies <==================
	-----------------------------------------------------------
	 SCS Same-Spin Scale       =       0.3333333333333333 [-]
	 SCS Opposite-Spin Scale   =       1.2000000000000000 [-]
	 SCS Same-Spin Energy      =      -0.0438856436035947 [Eh]
	 SCS Opposite-Spin Energy  =      -0.4748961007345112 [Eh]
	 SCS Correlation Energy    =      -0.5187817443381059 [Eh]
	 SCS Total Energy          =    -536.1373594711361648 [Eh]
	-----------------------------------------------------------

*** Psi4 exiting successfully. Buy a developer a beer!
