                               Psi4 1.9 release

  ==> Input File <==

--------------------------------------------------------------------------
MEMORY 60 GB

molecule dimer {
0 1
O      0.000000     0.000000     0.000000
H     -0.588538     0.756918     0.000000
H     -0.588538    -0.756918     0.000000
--
-1 1
Cl     4.494000     0.000000     0.000000

units ang
no_reorient
no_com
symmetry c1
}

set {
basis        aug-cc-pVTZ
scf_type     df
}

energy("mp2", bsse_type="cp")
--------------------------------------------------------------------------

                               Psi4 1.9 release
    Molecular point group: c1
  Charge       = -1
  Multiplicity = 1
  Basis Set: AUG-CC-PVTZ
    Blend: AUG-CC-PVTZ
  Basis Set: (AUG-CC-PVTZ AUX)
    Blend: AUG-CC-PVTZ-JKFIT
  @DF-RHF Final Energy:  -459.57348448695245
    Total Energy =                       -459.5734844869524522
 Dipole X            :       -152.8635701          144.3712965           -8.4922736
 Dipole Y            :          0.0000000            0.0000000            0.0000000
 Dipole Z            :         -0.0000000            0.0000000           -0.0000000
 Magnitude           :                                                    8.4922736
  Basis Set: (AUG-CC-PVTZ AUX)
    Blend: AUG-CC-PVTZ-RI
	 Reference Energy          =    -459.5734844869524522 [Eh]
	 Singles Energy            =      -0.0000000000000000 [Eh]
	 Same-Spin Energy          =      -0.0622888246047944 [Eh]
	 Opposite-Spin Energy      =      -0.1787089191276373 [Eh]
	 Correlation Energy        =      -0.2409977437324317 [Eh]
	 Total Energy              =    -459.8144822306848596 [Eh]
	 SCS Total Energy          =    -459.8086981314405648 [Eh]
                               Psi4 1.9 release
    Molecular point group: c1
  Multiplicity = 1
  Basis Set: AUG-CC-PVTZ
    Blend: AUG-CC-PVTZ
  Basis Set: (AUG-CC-PVTZ AUX)
    Blend: AUG-CC-PVTZ-JKFIT
  @DF-RHF Final Energy:   -76.06048174475507
    Total Energy =                        -76.0604817447550516
  Basis Set: (AUG-CC-PVTZ AUX)
	 Singles Energy            =      -0.0000000000000000 [Eh]
	 Same-Spin Energy          =      -0.0683678314539103 [Eh]
	 Opposite-Spin Energy      =      -0.2152571669840574 [Eh]
	 Correlation Energy        =      -0.2836249984379677 [Eh]
	 Total Energy              =     -76.3441067431930378 [Eh]
	 SCS Total Energy          =     -76.3415796222872416 [Eh]
                               Psi4 1.9 release
    Molecular point group: c1

    Geometry (in Bohr), charge = -1, multiplicity = 1:

       Center              X                  Y                   Z               Mass
    ------------   -----------------  -----------------  -----------------  -----------------
         O            0.000000000000     0.000000000000     0.000000000000    15.994914619570
         H           -1.112175634425     1.430367719429     0.000000000000     1.007825032230
         H           -1.112175634425    -1.430367719429     0.000000000000     1.007825032230
         CL           8.492429207807     0.000000000000     0.000000000000    34.968852682000

  Charge       = -1
  Multiplicity = 1
  Basis Set: AUG-CC-PVTZ
    Blend: AUG-CC-PVTZ
  Basis Set: (AUG-CC-PVTZ AUX)
    Blend: AUG-CC-PVTZ-JKFIT

    Orbital Energies [Eh]
    ---------------------

    Doubly Occupied:

       1A   -104.497057     2A    -20.458170     3A    -10.220805
       4A     -7.686846     5A     -7.686844     6A     -7.686820
       7A     -1.242825     8A     -0.724566     9A     -0.606351
      10A     -0.470402    11A     -0.398971    12A     -0.141562
      13A     -0.141518    14A     -0.141077

  @DF-RHF Final Energy:  -535.62432411112241

   => Energetics <=

    Nuclear Repulsion Energy =             28.6958152683012706
    One-Electron Energy =                -804.4326487490648105
    Two-Electron Energy =                 240.1125093696411454
    Total Energy =                       -535.6243241111224052
 Dipole X            :       -151.3769444          142.1469453           -9.2299991
 Dipole Y            :          0.0000000            0.0000000            0.0000000
 Dipole Z            :          0.0000000            0.0000000            0.0000000
 Magnitude           :                                                    9.2299991
  Basis Set: (AUG-CC-PVTZ AUX)
    Blend: AUG-CC-PVTZ-RI
	 Reference Energy          =    -535.6243241111224052 [Eh]
	 Singles Energy            =      -0.0000000000000000 [Eh]
	 Same-Spin Energy          =      -0.1309871024238178 [Eh]
	 Opposite-Spin Energy      =      -0.3946895719145876 [Eh]
	 Correlation Energy        =      -0.5256766743384054 [Eh]
	 Total Energy              =    -536.1500007854608612 [Eh]

	 ================> DF-SCS-MP2 Energies <==================
	-----------------------------------------------------------
	 SCS Same-Spin Scale       =       0.3333333333333333 [-]
	 SCS Opposite-Spin Scale   =       1.2000000000000000 [-]
	 SCS Same-Spin Energy      =      -0.0436623674746059 [Eh]
	 SCS Opposite-Spin Energy  =      -0.4736274862975051 [Eh]
	 SCS Correlation Energy    =      -0.5172898537721110 [Eh]
	 SCS Total Energy          =    -536.1416139648945318 [Eh]
	-----------------------------------------------------------

*** Psi4 exiting successfully. Buy a developer a beer!
