                               Psi4 1.9 release

  ==> Input File <==

--------------------------------------------------------------------------
MEMORY 60 GB

molecule dimer {
0 1
O      0.000000     0.000000     0.000000
H     -0.588538     0.756918     0.000000
H     -0.588538    -0.756918     0.000000
--
-1 1
Cl     3.852000     0.000000     0.000000

units ang
no_reorient
no_com
symmetry c1
}

set {
basis        aug-cc-pVTZ
scf_type     df
}

energy("mp2", bsse_type="cp")
--------------------------------------------------------------------------

                               Psi4 1.9 release
    Molecular point group: c1
  Charge       = -1
  Multiplicity = 1
  Basis Set: AUG-CC-PVTZ
    Blend: AUG-CC-PVTZ
  Basis Set: (AUG-CC-PVTZ AUX)
    Blend: AUG-CC-PVTZ-JKFIT
  @DF-RHF Final Energy:  -459.57348673517214
    Total Energy =                       -459.5734867351721391
 Dipole X            :       -131.0257265          123.7468256           -7.2789009
 Dipole Y            :          0.0000000            0.0000000            0.0000000
 Dipole Z            :         -0.0000000            0.0000000           -0.0000000
 Magnitude           :                                                    7.2789009
  Basis Set: (AUG-CC-PVTZ AUX)
    Blend: AUG-CC-PVTZ-RI
	 Reference Energy          =    -459.5734867351721391 [Eh]
	 Singles Energy            =      -0.0000000000000000 [Eh]
	 Same-Spin Energy          =      -0.0623155003704418 [Eh]
	 Opposite-Spin Energy      =      -0.1787961454505862 [Eh]
	 Correlation Energy        =      -0.2411116458210280 [Eh]
	 Total Energy              =    -459.8145983809931749 [Eh]
	 SCS Total Energy          =    -459.8088139431696391 [Eh]
                               Psi4 1.9 release
    Molecular point group: c1
  Multiplicity = 1
  Basis Set: AUG-CC-PVTZ
    Blend: AUG-CC-PVTZ
  Basis Set: (AUG-CC-PVTZ AUX)
    Blend: AUG-CC-PVTZ-JKFIT
  @DF-RHF Final Energy:   -76.06048451817125
    Total Energy =                        -76.0604845181712506
  Basis Set: (AUG-CC-PVTZ AUX)
	 Singles Energy            =      -0.0000000000000000 [Eh]
	 Same-Spin Energy          =      -0.0683694278355269 [Eh]
	 Opposite-Spin Energy      =      -0.2152684312614575 [Eh]
	 Correlation Energy        =      -0.2836378590969844 [Eh]
	 Total Energy              =     -76.3441223772682349 [Eh]
	 SCS Total Energy          =     -76.3415964449635140 [Eh]
                               Psi4 1.9 release
    Molecular point group: c1

    Geometry (in Bohr), charge = -1, multiplicity = 1:

       Center              X                  Y                   Z               Mass
    ------------   -----------------  -----------------  -----------------  -----------------
         O            0.000000000000     0.000000000000     0.000000000000    15.994914619570
         H           -1.112175634425     1.430367719429     0.000000000000     1.007825032230
         H           -1.112175634425    -1.430367719429     0.000000000000     1.007825032230
         CL           7.279225035264     0.000000000000     0.000000000000    34.968852682000

  Charge       = -1
  Multiplicity = 1
  Basis Set: AUG-CC-PVTZ
    Blend: AUG-CC-PVTZ
  Basis Set: (AUG-CC-PVTZ AUX)
    Blend: AUG-CC-PVTZ-JKFIT

    Orbital Energies [Eh]
    ---------------------

    Doubly Occupied:

       1A   -104.494381     2A    -20.442447     3A    -10.218127
       4A     -7.684176     5A     -7.684172     6A     -7.684130
       7A     -1.226928     8A     -0.722006     9A     -0.590482
      10A     -0.453003    11A     -0.382718    12A     -0.139106
      13A     -0.139012    14A     -0.138216

  @DF-RHF Final Energy:  -535.62110058851624

   => Energetics <=

    Nuclear Repulsion Energy =             31.8576619698567569
    One-Electron Energy =                -810.9597189864487063
    Two-Electron Energy =                 243.4809564280757286
    Total Energy =                       -535.6211005885162422
 Dipole X            :       -129.5399741          121.5224743           -8.0174997
 Dipole Y            :          0.0000000            0.0000000            0.0000000
 Dipole Z            :         -0.0000000            0.0000000           -0.0000000
 Magnitude           :                                                    8.0174997
  Basis Set: (AUG-CC-PVTZ AUX)
    Blend: AUG-CC-PVTZ-RI
	 Reference Energy          =    -535.6211005885162422 [Eh]
	 Singles Energy            =      -0.0000000000000000 [Eh]
	 Same-Spin Energy          =      -0.1313225091951473 [Eh]
	 Opposite-Spin Energy      =      -0.3952328852418472 [Eh]
	 Correlation Energy        =      -0.5265553944369945 [Eh]
	 Total Energy              =    -536.1476559829532107 [Eh]

	 ================> DF-SCS-MP2 Energies <==================
	-----------------------------------------------------------
	 SCS Same-Spin Scale       =       0.3333333333333333 [-]
	 SCS Opposite-Spin Scale   =       1.2000000000000000 [-]
	 SCS Same-Spin Energy      =      -0.0437741697317158 [Eh]
	 SCS Opposite-Spin Energy  =      -0.4742794622902167 [Eh]
	 SCS Correlation Energy    =      -0.5180536320219324 [Eh]
	 SCS Total Energy          =    -536.1391542205382166 [Eh]
	-----------------------------------------------------------

*** Psi4 exiting successfully. Buy a developer a beer!
