                               Psi4 1.9 release

  ==> Input File <==

--------------------------------------------------------------------------
MEMORY 60 GB

molecule dimer {
0 1
O      0.000000     0.000000     0.000000
H     -0.588538     0.756918     0.000000
H     -0.588538    -0.756918     0.000000
--
-1 1
Cl     4.815000     0.000000     0.000000

units ang
no_reorient
no_com
symmetry c1
}

set {
basis        aug-cc-pVTZ
scf_type     df
}

energy("mp2", bsse_type="cp")
--------------------------------------------------------------------------

                               Psi4 1.9 release
    Molecular point group: c1
  Charge       = -1
  Multiplicity = 1
  Basis Set: AUG-CC-PVTZ
    Blend: AUG-CC-PVTZ
  Basis Set: (AUG-CC-PVTZ AUX)
    Blend: AUG-CC-PVTZ-JKFIT
  @DF-RHF Final Energy:  -459.57348393079377
    Total Energy =                       -459.5734839307937705
 Dipole X            :       -163.7824340          154.6835320           -9.0989020
 Dipole Y            :          0.0000000            0.0000000            0.0000000
 Dipole Z            :          0.0000000            0.0000000            0.0000000
 Magnitude           :                                                    9.0989020
  Basis Set: (AUG-CC-PVTZ AUX)
    Blend: AUG-CC-PVTZ-RI
	 Reference Energy          =    -459.5734839307937705 [Eh]
	 Singles Energy            =      -0.0000000000000000 [Eh]
	 Same-Spin Energy          =      -0.0622821074714263 [Eh]
	 Opposite-Spin Energy      =      -0.1786869338600323 [Eh]
	 Correlation Energy        =      -0.2409690413314586 [Eh]
	 Total Energy              =    -459.8144529721252525 [Eh]
	 SCS Total Energy          =    -459.8086689539163103 [Eh]
                               Psi4 1.9 release
    Molecular point group: c1
  Multiplicity = 1
  Basis Set: AUG-CC-PVTZ
    Blend: AUG-CC-PVTZ
  Basis Set: (AUG-CC-PVTZ AUX)
    Blend: AUG-CC-PVTZ-JKFIT
  @DF-RHF Final Energy:   -76.06048115414488
    Total Energy =                        -76.0604811541448953
  Basis Set: (AUG-CC-PVTZ AUX)
	 Singles Energy            =      -0.0000000000000000 [Eh]
	 Same-Spin Energy          =      -0.0683676440518757 [Eh]
	 Opposite-Spin Energy      =      -0.2152561041080289 [Eh]
	 Correlation Energy        =      -0.2836237481599046 [Eh]
	 Total Energy              =     -76.3441049023047924 [Eh]
	 SCS Total Energy          =     -76.3415776937584809 [Eh]
                               Psi4 1.9 release
    Molecular point group: c1

    Geometry (in Bohr), charge = -1, multiplicity = 1:

       Center              X                  Y                   Z               Mass
    ------------   -----------------  -----------------  -----------------  -----------------
         O            0.000000000000     0.000000000000     0.000000000000    15.994914619570
         H           -1.112175634425     1.430367719429     0.000000000000     1.007825032230
         H           -1.112175634425    -1.430367719429     0.000000000000     1.007825032230
         CL           9.099031294079     0.000000000000     0.000000000000    34.968852682000

  Charge       = -1
  Multiplicity = 1
  Basis Set: AUG-CC-PVTZ
    Blend: AUG-CC-PVTZ
  Basis Set: (AUG-CC-PVTZ AUX)
    Blend: AUG-CC-PVTZ-JKFIT

    Orbital Energies [Eh]
    ---------------------

    Doubly Occupied:

       1A   -104.498037     2A    -20.464751     3A    -10.221790
       4A     -7.687828     5A     -7.687827     6A     -7.687808
       7A     -1.249498     8A     -0.725542     9A     -0.613010
      10A     -0.477672    11A     -0.405778    12A     -0.142502
      13A     -0.142469    14A     -0.142123

  @DF-RHF Final Energy:  -535.62546411486289

   => Energetics <=

    Nuclear Repulsion Energy =             27.4243245681930006
    One-Electron Energy =                -801.8063044706178744
    Two-Electron Energy =                 238.7565157875619377
    Total Energy =                       -535.6254641148628934
 Dipole X            :       -162.2971041          152.4591807           -9.8379234
 Dipole Y            :         -0.0000000            0.0000000           -0.0000000
 Dipole Z            :          0.0000000            0.0000000            0.0000000
 Magnitude           :                                                    9.8379234
  Basis Set: (AUG-CC-PVTZ AUX)
    Blend: AUG-CC-PVTZ-RI
	 Reference Energy          =    -535.6254641148628934 [Eh]
	 Singles Energy            =      -0.0000000000000000 [Eh]
	 Same-Spin Energy          =      -0.1309019398110855 [Eh]
	 Opposite-Spin Energy      =      -0.3945374208989701 [Eh]
	 Correlation Energy        =      -0.5254393607100556 [Eh]
	 Total Energy              =    -536.1509034755729317 [Eh]

	 ================> DF-SCS-MP2 Energies <==================
	-----------------------------------------------------------
	 SCS Same-Spin Scale       =       0.3333333333333333 [-]
	 SCS Opposite-Spin Scale   =       1.2000000000000000 [-]
	 SCS Same-Spin Energy      =      -0.0436339799370285 [Eh]
	 SCS Opposite-Spin Energy  =      -0.4734449050787641 [Eh]
	 SCS Correlation Energy    =      -0.5170788850157926 [Eh]
	 SCS Total Energy          =    -536.1425429998787422 [Eh]
	-----------------------------------------------------------

*** Psi4 exiting successfully. Buy a developer a beer!
