                               Psi4 1.9 release

  ==> Input File <==

--------------------------------------------------------------------------
MEMORY 60 GB

molecule dimer {
0 1
O      0.000000     0.000000     0.000000
H     -0.588538     0.756918     0.000000
H     -0.588538    -0.756918     0.000000
--
-1 1
Br     4.704000     0.000000     0.000000

units ang
no_reorient
no_com
symmetry c1
}

set {
basis        aug-cc-pVTZ
scf_type     df
}

energy("mp2", bsse_type="cp")
--------------------------------------------------------------------------

                               Psi4 1.9 release
    Molecular point group: c1
  Charge       = -1
  Multiplicity = 1
  Basis Set: AUG-CC-PVTZ
    Blend: AUG-CC-PVTZ
  Basis Set: (AUG-CC-PVTZ AUX)
    Blend: AUG-CC-PVTZ-JKFIT
  @DF-RHF Final Energy: -2572.53366796056798
    Total Energy =                      -2572.5336679605679819
 Dipole X            :       -320.0136448          311.1245093           -8.8891355
 Dipole Y            :         -0.0000000            0.0000000           -0.0000000
 Dipole Z            :         -0.0000000            0.0000000           -0.0000000
 Magnitude           :                                                    8.8891355
  Basis Set: (AUG-CC-PVTZ AUX)
    Blend: AUG-CC-PVTZ-RI
	 Reference Energy          =   -2572.5336679605679819 [Eh]
	 Singles Energy            =      -0.0000000000000000 [Eh]
	 Same-Spin Energy          =      -0.0867605902294798 [Eh]
	 Opposite-Spin Energy      =      -0.2011692710959618 [Eh]
	 Correlation Energy        =      -0.2879298613254416 [Eh]
	 Total Energy              =   -2572.8215978218936471 [Eh]
	 SCS Total Energy          =   -2572.8039912826261570 [Eh]
                               Psi4 1.9 release
    Molecular point group: c1
  Multiplicity = 1
  Basis Set: AUG-CC-PVTZ
    Blend: AUG-CC-PVTZ
  Basis Set: (AUG-CC-PVTZ AUX)
    Blend: AUG-CC-PVTZ-JKFIT
  @DF-RHF Final Energy:   -76.06048169720586
    Total Energy =                        -76.0604816972058728
  Basis Set: (AUG-CC-PVTZ AUX)
	 Singles Energy            =      -0.0000000000000000 [Eh]
	 Same-Spin Energy          =      -0.0683679409782338 [Eh]
	 Opposite-Spin Energy      =      -0.2152583759707501 [Eh]
	 Correlation Energy        =      -0.2836263169489839 [Eh]
	 Total Energy              =     -76.3441080141548412 [Eh]
	 SCS Total Energy          =     -76.3415810620301727 [Eh]
                               Psi4 1.9 release
    Molecular point group: c1

    Geometry (in Bohr), charge = -1, multiplicity = 1:

       Center              X                  Y                   Z               Mass
    ------------   -----------------  -----------------  -----------------  -----------------
         O            0.000000000000     0.000000000000     0.000000000000    15.994914619570
         H           -1.112175634425     1.430367719429     0.000000000000     1.007825032230
         H           -1.112175634425    -1.430367719429     0.000000000000     1.007825032230
         BR           8.889271694154     0.000000000000     0.000000000000    78.918337600000

  Charge       = -1
  Multiplicity = 1
  Basis Set: AUG-CC-PVTZ
    Blend: AUG-CC-PVTZ
  Basis Set: (AUG-CC-PVTZ AUX)
    Blend: AUG-CC-PVTZ-JKFIT

    Orbital Energies [Eh]
    ---------------------

    Doubly Occupied:

       1A   -489.712092     2A    -64.852180     3A    -58.206655
       4A    -58.206653     5A    -58.206636     6A    -20.462880
       7A     -9.524578     8A     -7.131951     9A     -7.131943
      10A     -7.131856    11A     -2.873658    12A     -2.873658
      13A     -2.873551    14A     -2.873541    15A     -2.873503
      16A     -1.247612    17A     -0.677718    18A     -0.611124
      19A     -0.475646    20A     -0.403853    21A     -0.131268
      22A     -0.131213    23A     -0.130656

  @DF-RHF Final Energy: -2648.58528186206604

   => Energetics <=

    Nuclear Repulsion Energy =             47.6073307491477777
    One-Electron Energy =               -3794.8963736073524160
    Two-Electron Energy =                1098.7037609961384987
    Total Energy =                      -2648.5852818620660400
 Dipole X            :       -318.5502223          308.9001580           -9.6500643
 Dipole Y            :         -0.0000000            0.0000000           -0.0000000
 Dipole Z            :          0.0000000            0.0000000            0.0000000
 Magnitude           :                                                    9.6500643
  Basis Set: (AUG-CC-PVTZ AUX)
    Blend: AUG-CC-PVTZ-RI
	 Reference Energy          =   -2648.5852818620660400 [Eh]
	 Singles Energy            =      -0.0000000000000000 [Eh]
	 Same-Spin Energy          =      -0.1554449349222964 [Eh]
	 Opposite-Spin Energy      =      -0.4171008934127132 [Eh]
	 Correlation Energy        =      -0.5725458283350096 [Eh]
	 Total Energy              =   -2649.1578276904010636 [Eh]

	 ================> DF-SCS-MP2 Energies <==================
	-----------------------------------------------------------
	 SCS Same-Spin Scale       =       0.3333333333333333 [-]
	 SCS Opposite-Spin Scale   =       1.2000000000000000 [-]
	 SCS Same-Spin Energy      =      -0.0518149783074321 [Eh]
	 SCS Opposite-Spin Energy  =      -0.5005210720952559 [Eh]
	 SCS Correlation Energy    =      -0.5523360504026880 [Eh]
	 SCS Total Energy          =   -2649.1376179124686132 [Eh]
	-----------------------------------------------------------

*** Psi4 exiting successfully. Buy a developer a beer!
