                               Psi4 1.9 release

  ==> Input File <==

--------------------------------------------------------------------------
MEMORY 60 GB

molecule dimer {
0 1
O      0.000000     0.000000     0.000000
H     -0.588538     0.756918     0.000000
H     -0.588538    -0.756918     0.000000
--
-1 1
Br     3.696000     0.000000     0.000000

units ang
no_reorient
no_com
symmetry c1
}

set {
basis        aug-cc-pVTZ
scf_type     df
}

energy("mp2", bsse_type="cp")
--------------------------------------------------------------------------

                               Psi4 1.9 release
    Molecular point group: c1
  Charge       = -1
  Multiplicity = 1
  Basis Set: AUG-CC-PVTZ
    Blend: AUG-CC-PVTZ
  Basis Set: (AUG-CC-PVTZ AUX)
    Blend: AUG-CC-PVTZ-JKFIT
  @DF-RHF Final Energy: -2572.53367105215648
    Total Energy =                      -2572.5336710521560235
 Dipole X            :       -251.4391776          244.4549716           -6.9842061
 Dipole Y            :         -0.0000000            0.0000000           -0.0000000
 Dipole Z            :          0.0000000            0.0000000            0.0000000
 Magnitude           :                                                    6.9842061
  Basis Set: (AUG-CC-PVTZ AUX)
    Blend: AUG-CC-PVTZ-RI
	 Reference Energy          =   -2572.5336710521564783 [Eh]
	 Singles Energy            =      -0.0000000000000000 [Eh]
	 Same-Spin Energy          =      -0.0869206100736817 [Eh]
	 Opposite-Spin Energy      =      -0.2015294932477991 [Eh]
	 Correlation Energy        =      -0.2884501033214808 [Eh]
	 Total Energy              =   -2572.8221211554778165 [Eh]
	 SCS Total Energy          =   -2572.8044799807448726 [Eh]
                               Psi4 1.9 release
    Molecular point group: c1
  Multiplicity = 1
  Basis Set: AUG-CC-PVTZ
    Blend: AUG-CC-PVTZ
  Basis Set: (AUG-CC-PVTZ AUX)
    Blend: AUG-CC-PVTZ-JKFIT
  @DF-RHF Final Energy:   -76.06048573647264
    Total Energy =                        -76.0604857364726570
  Basis Set: (AUG-CC-PVTZ AUX)
	 Singles Energy            =      -0.0000000000000000 [Eh]
	 Same-Spin Energy          =      -0.0683718677541617 [Eh]
	 Opposite-Spin Energy      =      -0.2152873007352596 [Eh]
	 Correlation Energy        =      -0.2836591684894214 [Eh]
	 Total Energy              =     -76.3441449049620644 [Eh]
	 SCS Total Energy          =     -76.3416211199396741 [Eh]
                               Psi4 1.9 release
    Molecular point group: c1

    Geometry (in Bohr), charge = -1, multiplicity = 1:

       Center              X                  Y                   Z               Mass
    ------------   -----------------  -----------------  -----------------  -----------------
         O            0.000000000000     0.000000000000     0.000000000000    15.994914619570
         H           -1.112175634425     1.430367719429     0.000000000000     1.007825032230
         H           -1.112175634425    -1.430367719429     0.000000000000     1.007825032230
         BR           6.984427759692     0.000000000000     0.000000000000    78.918337600000

  Charge       = -1
  Multiplicity = 1
  Basis Set: AUG-CC-PVTZ
    Blend: AUG-CC-PVTZ
  Basis Set: (AUG-CC-PVTZ AUX)
    Blend: AUG-CC-PVTZ-JKFIT

    Orbital Energies [Eh]
    ---------------------

    Doubly Occupied:

       1A   -489.707829     2A    -64.847921     3A    -58.202406
       4A    -58.202401     5A    -58.202358     6A    -20.439047
       7A     -9.520304     8A     -7.127733     9A     -7.127707
      10A     -7.127493    11A     -2.869503    12A     -2.869502
      13A     -2.869231    14A     -2.869198    15A     -2.869110
      16A     -1.223670    17A     -0.673701    18A     -0.587178
      19A     -0.449721    20A     -0.379361    21A     -0.127493
      22A     -0.127316    23A     -0.125757

  @DF-RHF Final Energy: -2648.57992191299036

   => Energetics <=

    Nuclear Repulsion Energy =             57.7831458558771232
    One-Electron Energy =               -3815.6342538463877645
    Two-Electron Energy =                1109.2711860775204968
    Total Energy =                      -2648.5799219129903577
 Dipole X            :       -249.9990815          242.2306203           -7.7684612
 Dipole Y            :         -0.0000000            0.0000000           -0.0000000
 Dipole Z            :         -0.0000000            0.0000000           -0.0000000
 Magnitude           :                                                    7.7684612
  Basis Set: (AUG-CC-PVTZ AUX)
    Blend: AUG-CC-PVTZ-RI
	 Reference Energy          =   -2648.5799219129903577 [Eh]
	 Singles Energy            =      -0.0000000000000000 [Eh]
	 Same-Spin Energy          =      -0.1562263708649531 [Eh]
	 Opposite-Spin Energy      =      -0.4183154594988567 [Eh]
	 Correlation Energy        =      -0.5745418303638098 [Eh]
	 Total Energy              =   -2649.1544637433539719 [Eh]

	 ================> DF-SCS-MP2 Energies <==================
	-----------------------------------------------------------
	 SCS Same-Spin Scale       =       0.3333333333333333 [-]
	 SCS Opposite-Spin Scale   =       1.2000000000000000 [-]
	 SCS Same-Spin Energy      =      -0.0520754569549844 [Eh]
	 SCS Opposite-Spin Energy  =      -0.5019785513986280 [Eh]
	 SCS Correlation Energy    =      -0.5540540083536124 [Eh]
	 SCS Total Energy          =   -2649.1339759213437901 [Eh]
	-----------------------------------------------------------

*** Psi4 exiting successfully. Buy a developer a beer!
