                               Psi4 1.9 release

  ==> Input File <==

--------------------------------------------------------------------------
MEMORY 60 GB

molecule dimer {
0 1
O      0.000000     0.000000     0.000000
H     -0.588538     0.756918     0.000000
H     -0.588538    -0.756918     0.000000
--
-1 1
Br     5.040000     0.000000     0.000000

units ang
no_reorient
no_com
symmetry c1
}

set {
basis        aug-cc-pVTZ
scf_type     df
}

energy("mp2", bsse_type="cp")
--------------------------------------------------------------------------

                               Psi4 1.9 release
    Molecular point group: c1
  Charge       = -1
  Multiplicity = 1
  Basis Set: AUG-CC-PVTZ
    Blend: AUG-CC-PVTZ
  Basis Set: (AUG-CC-PVTZ AUX)
    Blend: AUG-CC-PVTZ-JKFIT
  @DF-RHF Final Energy: -2572.53366754213312
    Total Energy =                      -2572.5336675421331165
 Dipole X            :       -342.8717875          333.3476885           -9.5240990
 Dipole Y            :         -0.0000000            0.0000000           -0.0000000
 Dipole Z            :         -0.0000000            0.0000000           -0.0000000
 Magnitude           :                                                    9.5240990
  Basis Set: (AUG-CC-PVTZ AUX)
    Blend: AUG-CC-PVTZ-RI
	 Reference Energy          =   -2572.5336675421331165 [Eh]
	 Singles Energy            =      -0.0000000000000000 [Eh]
	 Same-Spin Energy          =      -0.0867344901165675 [Eh]
	 Opposite-Spin Energy      =      -0.2011147959166543 [Eh]
	 Correlation Energy        =      -0.2878492860332218 [Eh]
	 Total Energy              =   -2572.8215168281662955 [Eh]
	 SCS Total Energy          =   -2572.8039167939386971 [Eh]
                               Psi4 1.9 release
    Molecular point group: c1
  Multiplicity = 1
  Basis Set: AUG-CC-PVTZ
    Blend: AUG-CC-PVTZ
  Basis Set: (AUG-CC-PVTZ AUX)
    Blend: AUG-CC-PVTZ-JKFIT
  @DF-RHF Final Energy:   -76.06048126078787
    Total Energy =                        -76.0604812607878671
  Basis Set: (AUG-CC-PVTZ AUX)
	 Singles Energy            =      -0.0000000000000000 [Eh]
	 Same-Spin Energy          =      -0.0683676766992900 [Eh]
	 Opposite-Spin Energy      =      -0.2152568881739808 [Eh]
	 Correlation Energy        =      -0.2836245648732707 [Eh]
	 Total Energy              =     -76.3441058256611313 [Eh]
	 SCS Total Energy          =     -76.3415787521630733 [Eh]
                               Psi4 1.9 release
    Molecular point group: c1

    Geometry (in Bohr), charge = -1, multiplicity = 1:

       Center              X                  Y                   Z               Mass
    ------------   -----------------  -----------------  -----------------  -----------------
         O            0.000000000000     0.000000000000     0.000000000000    15.994914619570
         H           -1.112175634425     1.430367719429     0.000000000000     1.007825032230
         H           -1.112175634425    -1.430367719429     0.000000000000     1.007825032230
         BR           9.524219672307     0.000000000000     0.000000000000    78.918337600000

  Charge       = -1
  Multiplicity = 1
  Basis Set: AUG-CC-PVTZ
    Blend: AUG-CC-PVTZ
  Basis Set: (AUG-CC-PVTZ AUX)
    Blend: AUG-CC-PVTZ-JKFIT

    Orbital Energies [Eh]
    ---------------------

    Doubly Occupied:

       1A   -489.712999     2A    -64.853092     3A    -58.207564
       4A    -58.207563     5A    -58.207549     6A    -20.469165
       7A     -9.525497     8A     -7.132862     9A     -7.132856
      10A     -7.132788    11A     -2.874560    12A     -2.874559
      13A     -2.874477    14A     -2.874469    15A     -2.874440
      16A     -1.253976    17A     -0.678635    18A     -0.617479
      19A     -0.482540    20A     -0.410340    21A     -0.132138
      22A     -0.132098    23A     -0.131662

  @DF-RHF Final Energy: -2648.58633589685678

   => Energetics <=

    Nuclear Repulsion Energy =             45.1013952813529357
    One-Electron Energy =               -3789.7888458135157634
    Two-Electron Energy =                1096.1011146353062031
    Total Energy =                      -2648.5863358968567809
 Dipole X            :       -341.4062016          331.1233373          -10.2828643
 Dipole Y            :         -0.0000000            0.0000000           -0.0000000
 Dipole Z            :          0.0000000            0.0000000            0.0000000
 Magnitude           :                                                   10.2828643
  Basis Set: (AUG-CC-PVTZ AUX)
    Blend: AUG-CC-PVTZ-RI
	 Reference Energy          =   -2648.5863358968567809 [Eh]
	 Singles Energy            =      -0.0000000000000000 [Eh]
	 Same-Spin Energy          =      -0.1553416368712063 [Eh]
	 Opposite-Spin Energy      =      -0.4169220111215573 [Eh]
	 Correlation Energy        =      -0.5722636479927636 [Eh]
	 Total Energy              =   -2649.1585995448494941 [Eh]

	 ================> DF-SCS-MP2 Energies <==================
	-----------------------------------------------------------
	 SCS Same-Spin Scale       =       0.3333333333333333 [-]
	 SCS Opposite-Spin Scale   =       1.2000000000000000 [-]
	 SCS Same-Spin Energy      =      -0.0517805456237354 [Eh]
	 SCS Opposite-Spin Energy  =      -0.5003064133458688 [Eh]
	 SCS Correlation Energy    =      -0.5520869589696042 [Eh]
	 SCS Total Energy          =   -2649.1384228558263203 [Eh]
	-----------------------------------------------------------

*** Psi4 exiting successfully. Buy a developer a beer!
