                               Psi4 1.9 release

  ==> Input File <==

--------------------------------------------------------------------------
MEMORY 60 GB

molecule dimer {
0 1
O      0.000000     0.000000     0.000000
H     -0.588538     0.756918     0.000000
H     -0.588538    -0.756918     0.000000
--
-1 1
Br     3.360000     0.000000     0.000000

units ang
no_reorient
no_com
symmetry c1
}

set {
basis        aug-cc-pVTZ
scf_type     df
}

energy("mp2", bsse_type="cp")
--------------------------------------------------------------------------

                               Psi4 1.9 release
    Molecular point group: c1
  Charge       = -1
  Multiplicity = 1
  Basis Set: AUG-CC-PVTZ
    Blend: AUG-CC-PVTZ
  Basis Set: (AUG-CC-PVTZ AUX)
    Blend: AUG-CC-PVTZ-JKFIT
  @DF-RHF Final Energy: -2572.53367253287070
    Total Energy =                      -2572.5336725328702414
 Dipole X            :       -228.5812112          222.2317924           -6.3494189
 Dipole Y            :         -0.0000000            0.0000000           -0.0000000
 Dipole Z            :          0.0000000            0.0000000            0.0000000
 Magnitude           :                                                    6.3494189
  Basis Set: (AUG-CC-PVTZ AUX)
    Blend: AUG-CC-PVTZ-RI
	 Reference Energy          =   -2572.5336725328706962 [Eh]
	 Singles Energy            =      -0.0000000000000000 [Eh]
	 Same-Spin Energy          =      -0.0870269411640261 [Eh]
	 Opposite-Spin Energy      =      -0.2018023364576285 [Eh]
	 Correlation Energy        =      -0.2888292776216546 [Eh]
	 Total Energy              =   -2572.8225018104922128 [Eh]
	 SCS Total Energy          =   -2572.8048443170077917 [Eh]
                               Psi4 1.9 release
    Molecular point group: c1
  Multiplicity = 1
  Basis Set: AUG-CC-PVTZ
    Blend: AUG-CC-PVTZ
  Basis Set: (AUG-CC-PVTZ AUX)
    Blend: AUG-CC-PVTZ-JKFIT
  @DF-RHF Final Energy:   -76.06048943018270
    Total Energy =                        -76.0604894301826846
  Basis Set: (AUG-CC-PVTZ AUX)
	 Singles Energy            =      -0.0000000000000000 [Eh]
	 Same-Spin Energy          =      -0.0683757359128153 [Eh]
	 Opposite-Spin Energy      =      -0.2153218182473869 [Eh]
	 Correlation Energy        =      -0.2836975541602023 [Eh]
	 Total Energy              =     -76.3441869843428975 [Eh]
	 SCS Total Energy          =     -76.3416675240505072 [Eh]
                               Psi4 1.9 release
    Molecular point group: c1

    Geometry (in Bohr), charge = -1, multiplicity = 1:

       Center              X                  Y                   Z               Mass
    ------------   -----------------  -----------------  -----------------  -----------------
         O            0.000000000000     0.000000000000     0.000000000000    15.994914619570
         H           -1.112175634425     1.430367719429     0.000000000000     1.007825032230
         H           -1.112175634425    -1.430367719429     0.000000000000     1.007825032230
         BR           6.349479781538     0.000000000000     0.000000000000    78.918337600000

  Charge       = -1
  Multiplicity = 1
  Basis Set: AUG-CC-PVTZ
    Blend: AUG-CC-PVTZ
  Basis Set: (AUG-CC-PVTZ AUX)
    Blend: AUG-CC-PVTZ-JKFIT

    Orbital Energies [Eh]
    ---------------------

    Doubly Occupied:

       1A   -489.705446     2A    -64.845571     3A    -58.200060
       4A    -58.200052     5A    -58.199991     6A    -20.429103
       7A     -9.517982     8A     -7.125445     9A     -7.125404
      10A     -7.125114    11A     -2.867258    12A     -2.867257
      13A     -2.866872    14A     -2.866821    15A     -2.866703
      16A     -1.214026    17A     -0.671831    18A     -0.577447
      19A     -0.439660    20A     -0.369447    21A     -0.125698
      22A     -0.125397    23A     -0.122619

  @DF-RHF Final Energy: -2648.57618019864594

   => Energetics <=

    Nuclear Repulsion Energy =             62.4918361065710641
    One-Electron Energy =               -3825.2256211665899173
    Two-Electron Energy =                1114.1576048613733292
    Total Energy =                      -2648.5761801986454884
 Dipole X            :       -227.1618133          220.0074411           -7.1543722
 Dipole Y            :          0.0000000            0.0000000            0.0000000
 Dipole Z            :         -0.0000000            0.0000000           -0.0000000
 Magnitude           :                                                    7.1543722
  Basis Set: (AUG-CC-PVTZ AUX)
    Blend: AUG-CC-PVTZ-RI
	 Reference Energy          =   -2648.5761801986459432 [Eh]
	 Singles Energy            =      -0.0000000000000000 [Eh]
	 Same-Spin Energy          =      -0.1568604500427220 [Eh]
	 Opposite-Spin Energy      =      -0.4192483782677373 [Eh]
	 Correlation Energy        =      -0.5761088283104593 [Eh]
	 Total Energy              =   -2649.1522890269566233 [Eh]

	 ================> DF-SCS-MP2 Energies <==================
	-----------------------------------------------------------
	 SCS Same-Spin Scale       =       0.3333333333333333 [-]
	 SCS Opposite-Spin Scale   =       1.2000000000000000 [-]
	 SCS Same-Spin Energy      =      -0.0522868166809073 [Eh]
	 SCS Opposite-Spin Energy  =      -0.5030980539212847 [Eh]
	 SCS Correlation Energy    =      -0.5553848706021920 [Eh]
	 SCS Total Energy          =   -2649.1315650692481540 [Eh]
	-----------------------------------------------------------

*** Psi4 exiting successfully. Buy a developer a beer!
