                               Psi4 1.9 release

  ==> Input File <==

--------------------------------------------------------------------------
MEMORY 60 GB

molecule dimer {
0 1
O      0.000000     0.000000     0.000000
H     -0.588538     0.756918     0.000000
H     -0.588538    -0.756918     0.000000
--
-1 1
Br     6.720000     0.000000     0.000000

units ang
no_reorient
no_com
symmetry c1
}

set {
basis        aug-cc-pVTZ
scf_type     df
}

energy("mp2", bsse_type="cp")
--------------------------------------------------------------------------

                               Psi4 1.9 release
    Molecular point group: c1
  Charge       = -1
  Multiplicity = 1
  Basis Set: AUG-CC-PVTZ
    Blend: AUG-CC-PVTZ
  Basis Set: (AUG-CC-PVTZ AUX)
    Blend: AUG-CC-PVTZ-JKFIT
  @DF-RHF Final Energy: -2572.53366619176632
    Total Energy =                      -2572.5336661917663150
 Dipole X            :       -457.1626441          444.4635847          -12.6990594
 Dipole Y            :          0.0000000            0.0000000            0.0000000
 Dipole Z            :          0.0000000            0.0000000            0.0000000
 Magnitude           :                                                   12.6990594
  Basis Set: (AUG-CC-PVTZ AUX)
    Blend: AUG-CC-PVTZ-RI
	 Reference Energy          =   -2572.5336661917663150 [Eh]
	 Singles Energy            =      -0.0000000000000000 [Eh]
	 Same-Spin Energy          =      -0.0866620850900783 [Eh]
	 Opposite-Spin Energy      =      -0.2009634094095657 [Eh]
	 Correlation Energy        =      -0.2876254944996440 [Eh]
	 Total Energy              =   -2572.8212916862657949 [Eh]
	 SCS Total Energy          =   -2572.8037096447546901 [Eh]
                               Psi4 1.9 release
    Molecular point group: c1
  Multiplicity = 1
  Basis Set: AUG-CC-PVTZ
    Blend: AUG-CC-PVTZ
  Basis Set: (AUG-CC-PVTZ AUX)
    Blend: AUG-CC-PVTZ-JKFIT
  @DF-RHF Final Energy:   -76.06048077235194
    Total Energy =                        -76.0604807723519372
  Basis Set: (AUG-CC-PVTZ AUX)
	 Singles Energy            =      -0.0000000000000000 [Eh]
	 Same-Spin Energy          =      -0.0683669390776090 [Eh]
	 Opposite-Spin Energy      =      -0.2152478701879126 [Eh]
	 Correlation Energy        =      -0.2836148092655216 [Eh]
	 Total Energy              =     -76.3440955816174522 [Eh]
	 SCS Total Energy          =     -76.3415671962699633 [Eh]
                               Psi4 1.9 release
    Molecular point group: c1

    Geometry (in Bohr), charge = -1, multiplicity = 1:

       Center              X                  Y                   Z               Mass
    ------------   -----------------  -----------------  -----------------  -----------------
         O            0.000000000000     0.000000000000     0.000000000000    15.994914619570
         H           -1.112175634425     1.430367719429     0.000000000000     1.007825032230
         H           -1.112175634425    -1.430367719429     0.000000000000     1.007825032230
         BR          12.698959563077     0.000000000000     0.000000000000    78.918337600000

  Charge       = -1
  Multiplicity = 1
  Basis Set: AUG-CC-PVTZ
    Blend: AUG-CC-PVTZ
  Basis Set: (AUG-CC-PVTZ AUX)
    Blend: AUG-CC-PVTZ-JKFIT

    Orbital Energies [Eh]
    ---------------------

    Doubly Occupied:

       1A   -489.715879     2A    -64.855985     3A    -58.210451
       4A    -58.210451     5A    -58.210446     6A    -20.492229
       7A     -9.528414     8A     -7.135762     9A     -7.135760
      10A     -7.135736    11A     -2.877438    12A     -2.877438
      13A     -2.877409    14A     -2.877407    15A     -2.877397
      16A     -1.277301    17A     -0.681571    18A     -0.640785
      19A     -0.507487    20A     -0.434055    21A     -0.134965
      22A     -0.134954    23A     -0.134800

  @DF-RHF Final Energy: -2648.58957087957788

   => Energetics <=

    Nuclear Repulsion Energy =             36.2706575048177768
    One-Electron Energy =               -3771.7922206395483045
    Two-Electron Energy =                1086.9319922551526361
    Total Energy =                      -2648.5895708795778773
 Dipole X            :       -455.6971021          442.2392334          -13.4578687
 Dipole Y            :          0.0000000            0.0000000            0.0000000
 Dipole Z            :          0.0000000            0.0000000            0.0000000
 Magnitude           :                                                   13.4578687
  Basis Set: (AUG-CC-PVTZ AUX)
    Blend: AUG-CC-PVTZ-RI
	 Reference Energy          =   -2648.5895708795778773 [Eh]
	 Singles Energy            =      -0.0000000000000000 [Eh]
	 Same-Spin Energy          =      -0.1551198355421790 [Eh]
	 Opposite-Spin Energy      =      -0.4164760164702733 [Eh]
	 Correlation Energy        =      -0.5715958520124523 [Eh]
	 Total Energy              =   -2649.1611667315901286 [Eh]

	 ================> DF-SCS-MP2 Energies <==================
	-----------------------------------------------------------
	 SCS Same-Spin Scale       =       0.3333333333333333 [-]
	 SCS Opposite-Spin Scale   =       1.2000000000000000 [-]
	 SCS Same-Spin Energy      =      -0.0517066118473930 [Eh]
	 SCS Opposite-Spin Energy  =      -0.4997712197643280 [Eh]
	 SCS Correlation Energy    =      -0.5514778316117209 [Eh]
	 SCS Total Energy          =   -2649.1410487111897964 [Eh]
	-----------------------------------------------------------

*** Psi4 exiting successfully. Buy a developer a beer!
