                               Psi4 1.9 release

  ==> Input File <==

--------------------------------------------------------------------------
MEMORY 60 GB

molecule dimer {
0 1
O      0.000000     0.000000     0.000000
H     -0.588538     0.756918     0.000000
H     -0.588538    -0.756918     0.000000
--
-1 1
Br     4.032000     0.000000     0.000000

units ang
no_reorient
no_com
symmetry c1
}

set {
basis        aug-cc-pVTZ
scf_type     df
}

energy("mp2", bsse_type="cp")
--------------------------------------------------------------------------

                               Psi4 1.9 release
    Molecular point group: c1
  Charge       = -1
  Multiplicity = 1
  Basis Set: AUG-CC-PVTZ
    Blend: AUG-CC-PVTZ
  Basis Set: (AUG-CC-PVTZ AUX)
    Blend: AUG-CC-PVTZ-JKFIT
  @DF-RHF Final Energy: -2572.53367008016039
    Total Energy =                      -2572.5336700801599363
 Dipole X            :       -274.2972373          266.6781508           -7.6190865
 Dipole Y            :         -0.0000000            0.0000000           -0.0000000
 Dipole Z            :          0.0000000            0.0000000            0.0000000
 Magnitude           :                                                    7.6190865
  Basis Set: (AUG-CC-PVTZ AUX)
    Blend: AUG-CC-PVTZ-RI
	 Reference Energy          =   -2572.5336700801603911 [Eh]
	 Singles Energy            =      -0.0000000000000000 [Eh]
	 Same-Spin Energy          =      -0.0868462352736551 [Eh]
	 Opposite-Spin Energy      =      -0.2013540808347305 [Eh]
	 Correlation Energy        =      -0.2882003161083856 [Eh]
	 Total Energy              =   -2572.8218703962688778 [Eh]
	 SCS Total Energy          =   -2572.8042437222534318 [Eh]
                               Psi4 1.9 release
    Molecular point group: c1
  Multiplicity = 1
  Basis Set: AUG-CC-PVTZ
    Blend: AUG-CC-PVTZ
  Basis Set: (AUG-CC-PVTZ AUX)
    Blend: AUG-CC-PVTZ-JKFIT
  @DF-RHF Final Energy:   -76.06048450282771
    Total Energy =                        -76.0604845028277055
  Basis Set: (AUG-CC-PVTZ AUX)
	 Singles Energy            =      -0.0000000000000000 [Eh]
	 Same-Spin Energy          =      -0.0683693304421328 [Eh]
	 Opposite-Spin Energy      =      -0.2152682543117271 [Eh]
	 Correlation Energy        =      -0.2836375847538599 [Eh]
	 Total Energy              =     -76.3441220875815674 [Eh]
	 SCS Total Energy          =     -76.3415961848158275 [Eh]
                               Psi4 1.9 release
    Molecular point group: c1

    Geometry (in Bohr), charge = -1, multiplicity = 1:

       Center              X                  Y                   Z               Mass
    ------------   -----------------  -----------------  -----------------  -----------------
         O            0.000000000000     0.000000000000     0.000000000000    15.994914619570
         H           -1.112175634425     1.430367719429     0.000000000000     1.007825032230
         H           -1.112175634425    -1.430367719429     0.000000000000     1.007825032230
         BR           7.619375737846     0.000000000000     0.000000000000    78.918337600000

  Charge       = -1
  Multiplicity = 1
  Basis Set: AUG-CC-PVTZ
    Blend: AUG-CC-PVTZ
  Basis Set: (AUG-CC-PVTZ AUX)
    Blend: AUG-CC-PVTZ-JKFIT

    Orbital Energies [Eh]
    ---------------------

    Doubly Occupied:

       1A   -489.709612     2A    -64.849695     3A    -58.204177
       4A    -58.204173     5A    -58.204142     6A    -20.447927
       7A     -9.522076     8A     -7.129479     9A     -7.129461
      10A     -7.129306    11A     -2.871220    12A     -2.871219
      13A     -2.871025    14A     -2.871003    15A     -2.870938
      16A     -1.232519    17A     -0.675297    18A     -0.596045
      19A     -0.459245    20A     -0.388432    21A     -0.128992
      22A     -0.128878    23A     -0.127861

  @DF-RHF Final Energy: -2648.58228783042568

   => Energetics <=

    Nuclear Repulsion Energy =             53.8400664163640954
    One-Electron Energy =               -3807.5992614585329648
    Two-Electron Energy =                1105.1769072117431278
    Total Energy =                      -2648.5822878304256847
 Dipole X            :       -272.8449558          264.4537996           -8.3911563
 Dipole Y            :         -0.0000000            0.0000000           -0.0000000
 Dipole Z            :         -0.0000000            0.0000000           -0.0000000
 Magnitude           :                                                    8.3911563
  Basis Set: (AUG-CC-PVTZ AUX)
    Blend: AUG-CC-PVTZ-RI
	 Reference Energy          =   -2648.5822878304256847 [Eh]
	 Singles Energy            =      -0.0000000000000000 [Eh]
	 Same-Spin Energy          =      -0.1558391053245549 [Eh]
	 Opposite-Spin Energy      =      -0.4177273345574725 [Eh]
	 Correlation Energy        =      -0.5735664398820274 [Eh]
	 Total Energy              =   -2649.1558542703078274 [Eh]

	 ================> DF-SCS-MP2 Energies <==================
	-----------------------------------------------------------
	 SCS Same-Spin Scale       =       0.3333333333333333 [-]
	 SCS Opposite-Spin Scale   =       1.2000000000000000 [-]
	 SCS Same-Spin Energy      =      -0.0519463684415183 [Eh]
	 SCS Opposite-Spin Energy  =      -0.5012728014689669 [Eh]
	 SCS Correlation Energy    =      -0.5532191699104853 [Eh]
	 SCS Total Energy          =   -2649.1355070003360197 [Eh]
	-----------------------------------------------------------

*** Psi4 exiting successfully. Buy a developer a beer!
