                               Psi4 1.8.2 release

  ==> Input File <==

--------------------------------------------------------------------------
MEMORY 60 GB

molecule dimer {
2 1
O          0.000000     0.000000     0.000000
H         -0.588538     0.000000     0.756918
H         -0.588538     0.000000    -0.756918
Li         2.138291     2.138291     0.000000
Li         2.138291    -2.138291     0.000000

units ang
no_reorient
no_com
symmetry c1
}

set {
basis        aug-cc-pVTZ
scf_type     df
}

energy("mp2")
--------------------------------------------------------------------------

    Molecular point group: c1

    Geometry (in Angstrom), charge = 2, multiplicity = 1:

       Center              X                  Y                   Z               Mass
    ------------   -----------------  -----------------  -----------------  -----------------
         O            0.000000000000     0.000000000000     0.000000000000    15.994914619570
         H           -0.588538000000     0.000000000000     0.756918000000     1.007825032230
         H           -0.588538000000     0.000000000000    -0.756918000000     1.007825032230
         LI           2.138291000000     2.138291000000     0.000000000000     7.016003436600
         LI           2.138291000000    -2.138291000000     0.000000000000     7.016003436600

  Charge       = 2
  Multiplicity = 1
  Basis Set: AUG-CC-PVTZ
    Blend: AUG-CC-PVTZ
  Basis Set: (AUG-CC-PVTZ AUX)
    Blend: AUG-CC-PVTZ-JKFIT + DEF2-UNIVERSAL-JKFIT

    Orbital Energies [Eh]
    ---------------------

    Doubly Occupied:

       1A    -20.904996     2A     -2.887308     3A     -2.887308
       4A     -1.688899     5A     -1.050625     6A     -0.933566
       7A     -0.852041

  @DF-RHF Final Energy:   -90.45739794556501

   => Energetics <=

    Nuclear Repulsion Energy =             20.4837902795179261
    One-Electron Energy =                -159.4728871540314401
    Two-Electron Energy =                  48.5316989289484937
    Total Energy =                        -90.4573979455650203
 Dipole X            :        -15.0991222           22.0203549            6.9212328
 Dipole Y            :          0.0000000            0.0000000            0.0000000
 Dipole Z            :         -0.0000000            0.0000000           -0.0000000
 Magnitude           :                                                    6.9212328
  Basis Set: (AUG-CC-PVTZ AUX)
    Blend: AUG-CC-PVTZ-RI + DEF2-QZVPP-RI
	 Reference Energy          =     -90.4573979455650061 [Eh]
	 Singles Energy            =      -0.0000000000000000 [Eh]
	 Same-Spin Energy          =      -0.0683391028050420 [Eh]
	 Opposite-Spin Energy      =      -0.2377460374005316 [Eh]
	 Correlation Energy        =      -0.3060851402055736 [Eh]
	 Total Energy              =     -90.7634830857705737 [Eh]

	 ================> DF-SCS-MP2 Energies <==================
	-----------------------------------------------------------
	 SCS Same-Spin Scale       =       0.3333333333333333 [-]
	 SCS Opposite-Spin Scale   =       1.2000000000000000 [-]
	 SCS Same-Spin Energy      =      -0.0227797009350140 [Eh]
	 SCS Opposite-Spin Energy  =      -0.2852952448806379 [Eh]
	 SCS Correlation Energy    =      -0.3080749458156519 [Eh]
	 SCS Total Energy          =     -90.7654728913806537 [Eh]
	-----------------------------------------------------------

*** Psi4 exiting successfully. Buy a developer a beer!
