                               Psi4 1.8.2 release

  ==> Input File <==

--------------------------------------------------------------------------
MEMORY 60 GB

molecule dimer {
0 1
O      0.000000     0.000000     0.000000
H     -0.588538     0.000000     0.756918
H     -0.588538     0.000000    -0.756918
--
1 1
Li     1.985556     1.985556     0.000000
--
1 1
Li     1.985556    -1.985556     0.000000

units ang
no_reorient
no_com
symmetry c1
}

set {
basis        aug-cc-pVTZ
scf_type     df
}

energy("mp2", bsse_type="cp")
--------------------------------------------------------------------------

                               Psi4 1.8.2 release
    Molecular point group: c1
  Charge       = 0
  Multiplicity = 1
  Basis Set: AUG-CC-PVTZ
    Blend: AUG-CC-PVTZ
  Basis Set: (AUG-CC-PVTZ AUX)
    Blend: AUG-CC-PVTZ-JKFIT + DEF2-UNIVERSAL-JKFIT
  @DF-RHF Final Energy:   -76.06056077491942
    Total Energy =                        -76.0605607749194235
 Dipole X            :          1.4426065           -2.2243513           -0.7817448
 Dipole Y            :         -0.0000000            0.0000000           -0.0000000
 Dipole Z            :          0.0000000            0.0000000            0.0000000
 Magnitude           :                                                    0.7817448
  Basis Set: (AUG-CC-PVTZ AUX)
    Blend: AUG-CC-PVTZ-RI + DEF2-QZVPP-RI
	 Reference Energy          =     -76.0605607749194235 [Eh]
	 Singles Energy            =      -0.0000000000000000 [Eh]
	 Same-Spin Energy          =      -0.0684155331240287 [Eh]
	 Opposite-Spin Energy      =      -0.2156176205419880 [Eh]
	 Correlation Energy        =      -0.2840331536660167 [Eh]
	 Total Energy              =     -76.3445939285854394 [Eh]
	 SCS Total Energy          =     -76.3421070972778182 [Eh]
                               Psi4 1.8.2 release
    Molecular point group: c1
  Basis Set: AUG-CC-PVTZ
    Blend: AUG-CC-PVTZ
  Basis Set: (AUG-CC-PVTZ AUX)
    Blend: AUG-CC-PVTZ-JKFIT + DEF2-UNIVERSAL-JKFIT
  @DF-RHF Final Energy:    -7.23638324092390
    Total Energy =                         -7.2363832409238951
  Basis Set: (AUG-CC-PVTZ AUX)
                               Psi4 1.8.2 release
  @DF-RHF Final Energy:   -14.33955166464426
    Total Energy =                        -14.3395516646442598
                               Psi4 1.8.2 release
  @DF-RHF Final Energy:   -83.32525886900710
    Total Energy =                        -83.3252588690071008
                               Psi4 1.8.2 release
  @DF-RHF Final Energy:   -83.32525886900738
    Total Energy =                        -83.3252588690073850
                               Psi4 1.8.2 release
  Multiplicity = 1
  @DF-RHF Final Energy:    -7.23638324092378
    Total Energy =                         -7.2363832409237805
	 Singles Energy            =      -0.0000000000000000 [Eh]
	 Same-Spin Energy          =       0.0000000000000000 [Eh]
	 Opposite-Spin Energy      =      -0.0116214126149322 [Eh]
	 Correlation Energy        =      -0.0116214126149322 [Eh]
	 Total Energy              =      -7.2480046535387128 [Eh]
	 SCS Total Energy          =      -7.2503289360616989 [Eh]
                               Psi4 1.8.2 release
    Molecular point group: c1

    Geometry (in Bohr), charge = 2, multiplicity = 1:

       Center              X                  Y                   Z               Mass
    ------------   -----------------  -----------------  -----------------  -----------------
         O            0.000000000000     0.000000000000     0.000000000000    15.994914619570
         H           -1.112175634425     0.000000000000     1.430367719429     1.007825032230
         H           -1.112175634425     0.000000000000    -1.430367719429     1.007825032230
         LI           3.752157046760     3.752157046760     0.000000000000     7.016003436600
         LI           3.752157046760    -3.752157046760     0.000000000000     7.016003436600

  Charge       = 2
  Multiplicity = 1
  Basis Set: AUG-CC-PVTZ
    Blend: AUG-CC-PVTZ
  Basis Set: (AUG-CC-PVTZ AUX)
    Blend: AUG-CC-PVTZ-JKFIT + DEF2-UNIVERSAL-JKFIT

    Orbital Energies [Eh]
    ---------------------

    Doubly Occupied:

       1A    -20.929995     2A     -2.890706     3A     -2.890704
       4A     -1.713582     5A     -1.074755     6A     -0.960397
       7A     -0.877965

  @DF-RHF Final Energy:   -90.45667916799201

   => Energetics <=

    Nuclear Repulsion Energy =             21.3277252927631551
    One-Electron Energy =                -160.8925991750462003
    Two-Electron Energy =                  49.1081947142910380
    Total Energy =                        -90.4566791679920073
 Dipole X            :        -13.9965389           20.2885910            6.2920521
 Dipole Y            :         -0.0000000            0.0000000           -0.0000000
 Dipole Z            :          0.0000000            0.0000000            0.0000000
 Magnitude           :                                                    6.2920521
  Basis Set: (AUG-CC-PVTZ AUX)
    Blend: AUG-CC-PVTZ-RI + DEF2-QZVPP-RI
	 Reference Energy          =     -90.4566791679920073 [Eh]
	 Singles Energy            =      -0.0000000000000000 [Eh]
	 Same-Spin Energy          =      -0.0683282569461317 [Eh]
	 Opposite-Spin Energy      =      -0.2380127876153229 [Eh]
	 Correlation Energy        =      -0.3063410445614546 [Eh]
	 Total Energy              =     -90.7630202125534566 [Eh]

	 ================> DF-SCS-MP2 Energies <==================
	-----------------------------------------------------------
	 SCS Same-Spin Scale       =       0.3333333333333333 [-]
	 SCS Opposite-Spin Scale   =       1.2000000000000000 [-]
	 SCS Same-Spin Energy      =      -0.0227760856487106 [Eh]
	 SCS Opposite-Spin Energy  =      -0.2856153451383875 [Eh]
	 SCS Correlation Energy    =      -0.3083914307870980 [Eh]
	 SCS Total Energy          =     -90.7650705987791042 [Eh]
	-----------------------------------------------------------

*** Psi4 exiting successfully. Buy a developer a beer!
