                               Psi4 1.8.2 release

  ==> Input File <==

--------------------------------------------------------------------------
MEMORY 60 GB

molecule dimer {
0 1
O      0.000000     0.000000     0.000000
H     -0.588538     0.000000     0.756918
H     -0.588538     0.000000    -0.756918
--
1 1
Li     2.291026     2.291026     0.000000
--
1 1
Li     2.291026    -2.291026     0.000000

units ang
no_reorient
no_com
symmetry c1
}

set {
basis        aug-cc-pVTZ
scf_type     df
}

energy("mp2", bsse_type="cp")
--------------------------------------------------------------------------

                               Psi4 1.8.2 release
    Molecular point group: c1
  Charge       = 0
  Multiplicity = 1
  Basis Set: AUG-CC-PVTZ
    Blend: AUG-CC-PVTZ
  Basis Set: (AUG-CC-PVTZ AUX)
    Blend: AUG-CC-PVTZ-JKFIT + DEF2-UNIVERSAL-JKFIT
  @DF-RHF Final Energy:   -76.06052193829976
    Total Energy =                        -76.0605219382997575
 Dipole X            :          1.4423692           -2.2243513           -0.7819821
 Dipole Y            :         -0.0000000            0.0000000           -0.0000000
 Dipole Z            :         -0.0000000            0.0000000           -0.0000000
 Magnitude           :                                                    0.7819821
  Basis Set: (AUG-CC-PVTZ AUX)
    Blend: AUG-CC-PVTZ-RI + DEF2-QZVPP-RI
	 Reference Energy          =     -76.0605219382997575 [Eh]
	 Singles Energy            =      -0.0000000000000000 [Eh]
	 Same-Spin Energy          =      -0.0684004843811745 [Eh]
	 Opposite-Spin Energy      =      -0.2154820653767706 [Eh]
	 Correlation Energy        =      -0.2838825497579451 [Eh]
	 Total Energy              =     -76.3444044880577053 [Eh]
	 SCS Total Energy          =     -76.3419005782122753 [Eh]
                               Psi4 1.8.2 release
    Molecular point group: c1
  Basis Set: AUG-CC-PVTZ
    Blend: AUG-CC-PVTZ
  Basis Set: (AUG-CC-PVTZ AUX)
    Blend: AUG-CC-PVTZ-JKFIT + DEF2-UNIVERSAL-JKFIT
  @DF-RHF Final Energy:    -7.23638303590828
    Total Energy =                         -7.2363830359082781
  Basis Set: (AUG-CC-PVTZ AUX)
                               Psi4 1.8.2 release
  @DF-RHF Final Energy:   -14.35729974415577
    Total Energy =                        -14.3572997441557675
                               Psi4 1.8.2 release
  @DF-RHF Final Energy:   -83.31726274955004
    Total Energy =                        -83.3172627495500535
                               Psi4 1.8.2 release
  @DF-RHF Final Energy:   -83.31726274955034
    Total Energy =                        -83.3172627495503377
                               Psi4 1.8.2 release
  Multiplicity = 1
  @DF-RHF Final Energy:    -7.23638303590827
    Total Energy =                         -7.2363830359082710
	 Singles Energy            =      -0.0000000000000000 [Eh]
	 Same-Spin Energy          =       0.0000000000000000 [Eh]
	 Opposite-Spin Energy      =      -0.0113623811671261 [Eh]
	 Correlation Energy        =      -0.0113623811671261 [Eh]
	 Total Energy              =      -7.2477454170753974 [Eh]
	 SCS Total Energy          =      -7.2500178933088222 [Eh]
                               Psi4 1.8.2 release
    Molecular point group: c1

    Geometry (in Bohr), charge = 2, multiplicity = 1:

       Center              X                  Y                   Z               Mass
    ------------   -----------------  -----------------  -----------------  -----------------
         O            0.000000000000     0.000000000000     0.000000000000    15.994914619570
         H           -1.112175634425     0.000000000000     1.430367719429     1.007825032230
         H           -1.112175634425     0.000000000000    -1.430367719429     1.007825032230
         LI           4.329411686303     4.329411686303     0.000000000000     7.016003436600
         LI           4.329411686303    -4.329411686303     0.000000000000     7.016003436600

  Charge       = 2
  Multiplicity = 1
  Basis Set: AUG-CC-PVTZ
    Blend: AUG-CC-PVTZ
  Basis Set: (AUG-CC-PVTZ AUX)
    Blend: AUG-CC-PVTZ-JKFIT + DEF2-UNIVERSAL-JKFIT

    Orbital Energies [Eh]
    ---------------------

    Doubly Occupied:

       1A    -20.882801     2A     -2.883834     3A     -2.883834
       4A     -1.667099     5A     -1.029222     6A     -0.910100
       7A     -0.829332

  @DF-RHF Final Energy:   -90.45854788869440

   => Energetics <=

    Nuclear Repulsion Energy =             19.7495602681545463
    One-Electron Energy =                -158.2437687476835038
    Two-Electron Energy =                  48.0356605908345600
    Total Energy =                        -90.4585478886943974
 Dipole X            :        -16.2075308           23.7521188            7.5445881
 Dipole Y            :         -0.0000000            0.0000000           -0.0000000
 Dipole Z            :         -0.0000000            0.0000000           -0.0000000
 Magnitude           :                                                    7.5445881
  Basis Set: (AUG-CC-PVTZ AUX)
    Blend: AUG-CC-PVTZ-RI + DEF2-QZVPP-RI
	 Reference Energy          =     -90.4585478886943974 [Eh]
	 Singles Energy            =      -0.0000000000000000 [Eh]
	 Same-Spin Energy          =      -0.0683293602008341 [Eh]
	 Opposite-Spin Energy      =      -0.2375112003259893 [Eh]
	 Correlation Energy        =      -0.3058405605268235 [Eh]
	 Total Energy              =     -90.7643884492212152 [Eh]

	 ================> DF-SCS-MP2 Energies <==================
	-----------------------------------------------------------
	 SCS Same-Spin Scale       =       0.3333333333333333 [-]
	 SCS Opposite-Spin Scale   =       1.2000000000000000 [-]
	 SCS Same-Spin Energy      =      -0.0227764534002780 [Eh]
	 SCS Opposite-Spin Energy  =      -0.2850134403911872 [Eh]
	 SCS Correlation Energy    =      -0.3077898937914653 [Eh]
	 SCS Total Energy          =     -90.7663377824858628 [Eh]
	-----------------------------------------------------------

*** Psi4 exiting successfully. Buy a developer a beer!
