                               Psi4 1.9 release

  ==> Input File <==

--------------------------------------------------------------------------
MEMORY 60 GB

molecule dimer {
0 1
O      0.000000     0.000000     0.000000
H     -0.588538     0.000000     0.756918
H     -0.588538     0.000000    -0.756918
--
2 1
Li     2.138291     2.138291     0.000000
Li     2.138291    -2.138291     0.000000

units ang
no_reorient
no_com
symmetry c1
}

set {
basis        aug-cc-pVTZ
scf_type     df
}

energy("mp2", bsse_type="cp")
--------------------------------------------------------------------------

                               Psi4 1.9 release
    Molecular point group: c1
  Charge       = 2
  Multiplicity = 1
  Basis Set: AUG-CC-PVTZ
    Blend: AUG-CC-PVTZ
  Basis Set: (AUG-CC-PVTZ AUX)
    Blend: AUG-CC-PVTZ-JKFIT + DEF2-UNIVERSAL-JKFIT
  @DF-RHF Final Energy:   -14.34905842953474
    Total Energy =                        -14.3490584295347361
 Dipole X            :        -16.1630891           24.2447062            8.0816171
 Dipole Y            :          0.0000000            0.0000000            0.0000000
 Dipole Z            :          0.0000000            0.0000000            0.0000000
 Magnitude           :                                                    8.0816171
  Basis Set: (AUG-CC-PVTZ AUX)
    Blend: AUG-CC-PVTZ-RI + DEF2-QZVPP-RI
	 Reference Energy          =     -14.3490584295347361 [Eh]
	 Singles Energy            =      -0.0000000000000000 [Eh]
	 Same-Spin Energy          =      -0.0000000543347363 [Eh]
	 Opposite-Spin Energy      =      -0.0229508461419005 [Eh]
	 Correlation Energy        =      -0.0229509004766368 [Eh]
	 Total Energy              =     -14.3720093300113732 [Eh]
	 SCS Total Energy          =     -14.3765994630165963 [Eh]
                               Psi4 1.9 release
    Molecular point group: c1
  Multiplicity = 1
  Basis Set: AUG-CC-PVTZ
    Blend: AUG-CC-PVTZ
  Basis Set: (AUG-CC-PVTZ AUX)
    Blend: AUG-CC-PVTZ-JKFIT + DEF2-UNIVERSAL-JKFIT
  @DF-RHF Final Energy:   -76.06053837827980
    Total Energy =                        -76.0605383782798015
  Basis Set: (AUG-CC-PVTZ AUX)
	 Singles Energy            =      -0.0000000000000000 [Eh]
	 Same-Spin Energy          =      -0.0684073211949068 [Eh]
	 Opposite-Spin Energy      =      -0.2155417952376787 [Eh]
	 Correlation Energy        =      -0.2839491164325855 [Eh]
	 Total Energy              =     -76.3444874947123822 [Eh]
	 SCS Total Energy          =     -76.3419909729633162 [Eh]
                               Psi4 1.9 release
    Molecular point group: c1

    Geometry (in Bohr), charge = 2, multiplicity = 1:

       Center              X                  Y                   Z               Mass
    ------------   -----------------  -----------------  -----------------  -----------------
         O            0.000000000000     0.000000000000     0.000000000000    15.994914619570
         H           -1.112175634425     0.000000000000     1.430367719429     1.007825032230
         H           -1.112175634425     0.000000000000    -1.430367719429     1.007825032230
         LI           4.040784366531     4.040784366531     0.000000000000     7.016003436600
         LI           4.040784366531    -4.040784366531     0.000000000000     7.016003436600

  Charge       = 2
  Multiplicity = 1
  Basis Set: AUG-CC-PVTZ
    Blend: AUG-CC-PVTZ
  Basis Set: (AUG-CC-PVTZ AUX)
    Blend: AUG-CC-PVTZ-JKFIT + DEF2-UNIVERSAL-JKFIT

    Orbital Energies [Eh]
    ---------------------

    Doubly Occupied:

       1A    -20.904996     2A     -2.887308     3A     -2.887308
       4A     -1.688899     5A     -1.050625     6A     -0.933566
       7A     -0.852041

  @DF-RHF Final Energy:   -90.45739794554834

   => Energetics <=

    Nuclear Repulsion Energy =             20.4837902795179261
    One-Electron Energy =                -159.4728871540226578
    Two-Electron Energy =                  48.5316989289563878
    Total Energy =                        -90.4573979455483368
 Dipole X            :        -15.0991222           22.0203549            6.9212328
 Dipole Y            :         -0.0000000            0.0000000           -0.0000000
 Dipole Z            :          0.0000000            0.0000000            0.0000000
 Magnitude           :                                                    6.9212328
  Basis Set: (AUG-CC-PVTZ AUX)
    Blend: AUG-CC-PVTZ-RI + DEF2-QZVPP-RI
	 Reference Energy          =     -90.4573979455483368 [Eh]
	 Singles Energy            =      -0.0000000000000000 [Eh]
	 Same-Spin Energy          =      -0.0683391028050332 [Eh]
	 Opposite-Spin Energy      =      -0.2377460374003011 [Eh]
	 Correlation Energy        =      -0.3060851402053343 [Eh]
	 Total Energy              =     -90.7634830857536770 [Eh]

	 ================> DF-SCS-MP2 Energies <==================
	-----------------------------------------------------------
	 SCS Same-Spin Scale       =       0.3333333333333333 [-]
	 SCS Opposite-Spin Scale   =       1.2000000000000000 [-]
	 SCS Same-Spin Energy      =      -0.0227797009350111 [Eh]
	 SCS Opposite-Spin Energy  =      -0.2852952448803613 [Eh]
	 SCS Correlation Energy    =      -0.3080749458153724 [Eh]
	 SCS Total Energy          =     -90.7654728913637143 [Eh]
	-----------------------------------------------------------

*** Psi4 exiting successfully. Buy a developer a beer!
