                               Psi4 1.9 release

  ==> Input File <==

--------------------------------------------------------------------------
MEMORY 60 GB

molecule dimer {
0 1
O      0.000000     0.000000     0.000000
H     -0.588538     0.000000     0.756918
H     -0.588538     0.000000    -0.756918
--
2 1
Li     3.054701     3.054701     0.000000
Li     3.054701    -3.054701     0.000000

units ang
no_reorient
no_com
symmetry c1
}

set {
basis        aug-cc-pVTZ
scf_type     df
}

energy("mp2", bsse_type="cp")
--------------------------------------------------------------------------

                               Psi4 1.9 release
    Molecular point group: c1
  Charge       = 2
  Multiplicity = 1
  Basis Set: AUG-CC-PVTZ
    Blend: AUG-CC-PVTZ
  Basis Set: (AUG-CC-PVTZ AUX)
    Blend: AUG-CC-PVTZ-JKFIT + DEF2-UNIVERSAL-JKFIT
  @DF-RHF Final Energy:   -14.38615523085693
    Total Energy =                        -14.3861552308569269
 Dipole X            :        -23.0901764           34.6352897           11.5451133
 Dipole Y            :          0.0000000            0.0000000            0.0000000
 Dipole Z            :          0.0000000            0.0000000            0.0000000
 Magnitude           :                                                   11.5451133
  Basis Set: (AUG-CC-PVTZ AUX)
    Blend: AUG-CC-PVTZ-RI + DEF2-QZVPP-RI
	 Reference Energy          =     -14.3861552308569252 [Eh]
	 Singles Energy            =      -0.0000000000000000 [Eh]
	 Same-Spin Energy          =      -0.0000000051701083 [Eh]
	 Opposite-Spin Energy      =      -0.0221492546531989 [Eh]
	 Correlation Energy        =      -0.0221492598233073 [Eh]
	 Total Energy              =     -14.4083044906802318 [Eh]
	 SCS Total Energy          =     -14.4127343381641335 [Eh]
                               Psi4 1.9 release
    Molecular point group: c1
  Multiplicity = 1
  Basis Set: AUG-CC-PVTZ
    Blend: AUG-CC-PVTZ
  Basis Set: (AUG-CC-PVTZ AUX)
    Blend: AUG-CC-PVTZ-JKFIT + DEF2-UNIVERSAL-JKFIT
  @DF-RHF Final Energy:   -76.06049639064011
    Total Energy =                        -76.0604963906401110
  Basis Set: (AUG-CC-PVTZ AUX)
	 Singles Energy            =      -0.0000000000000000 [Eh]
	 Same-Spin Energy          =      -0.0683780549747498 [Eh]
	 Opposite-Spin Energy      =      -0.2153284135487862 [Eh]
	 Correlation Energy        =      -0.2837064685235360 [Eh]
	 Total Energy              =     -76.3442028591636443 [Eh]
	 SCS Total Energy          =     -76.3416831718902387 [Eh]
                               Psi4 1.9 release
    Molecular point group: c1

    Geometry (in Bohr), charge = 2, multiplicity = 1:

       Center              X                  Y                   Z               Mass
    ------------   -----------------  -----------------  -----------------  -----------------
         O            0.000000000000     0.000000000000     0.000000000000    15.994914619570
         H           -1.112175634425     0.000000000000     1.430367719429     1.007825032230
         H           -1.112175634425     0.000000000000    -1.430367719429     1.007825032230
         LI           5.772548285162     5.772548285162     0.000000000000     7.016003436600
         LI           5.772548285162    -5.772548285162     0.000000000000     7.016003436600

  Charge       = 2
  Multiplicity = 1
  Basis Set: AUG-CC-PVTZ
    Blend: AUG-CC-PVTZ
  Basis Set: (AUG-CC-PVTZ AUX)
    Blend: AUG-CC-PVTZ-JKFIT + DEF2-UNIVERSAL-JKFIT

    Orbital Energies [Eh]
    ---------------------

    Doubly Occupied:

       1A    -20.804225     2A     -2.867490     3A     -2.867489
       4A     -1.589702     5A     -0.952757     6A     -0.827980
       7A     -0.749663

  @DF-RHF Final Energy:   -90.46755162617931

   => Energetics <=

    Nuclear Repulsion Energy =             17.1585152621451691
    One-Electron Energy =                -153.9335180386549951
    Two-Electron Energy =                  46.3074511503305217
    Total Energy =                        -90.4675516261793149
 Dipole X            :        -21.8318210           32.4109384           10.5791174
 Dipole Y            :          0.0000000            0.0000000            0.0000000
 Dipole Z            :          0.0000000            0.0000000            0.0000000
 Magnitude           :                                                   10.5791174
  Basis Set: (AUG-CC-PVTZ AUX)
    Blend: AUG-CC-PVTZ-RI + DEF2-QZVPP-RI
	 Reference Energy          =     -90.4675516261793149 [Eh]
	 Singles Energy            =      -0.0000000000000000 [Eh]
	 Same-Spin Energy          =      -0.0682666459012145 [Eh]
	 Opposite-Spin Energy      =      -0.2369030425412049 [Eh]
	 Correlation Energy        =      -0.3051696884424194 [Eh]
	 Total Energy              =     -90.7727213146217338 [Eh]

	 ================> DF-SCS-MP2 Energies <==================
	-----------------------------------------------------------
	 SCS Same-Spin Scale       =       0.3333333333333333 [-]
	 SCS Opposite-Spin Scale   =       1.2000000000000000 [-]
	 SCS Same-Spin Energy      =      -0.0227555486337382 [Eh]
	 SCS Opposite-Spin Energy  =      -0.2842836510494459 [Eh]
	 SCS Correlation Energy    =      -0.3070391996831841 [Eh]
	 SCS Total Energy          =     -90.7745908258625036 [Eh]
	-----------------------------------------------------------

*** Psi4 exiting successfully. Buy a developer a beer!
