                               Psi4 1.9 release

  ==> Input File <==

--------------------------------------------------------------------------
MEMORY 60 GB

molecule dimer {
0 1
O      0.000000     0.000000     0.000000
H     -0.588538     0.000000     0.756918
H     -0.588538     0.000000    -0.756918
--
2 1
Li     1.680086     1.680086     0.000000
Li     1.680086    -1.680086     0.000000

units ang
no_reorient
no_com
symmetry c1
}

set {
basis        aug-cc-pVTZ
scf_type     df
}

energy("mp2", bsse_type="cp")
--------------------------------------------------------------------------

                               Psi4 1.9 release
    Molecular point group: c1
  Charge       = 2
  Multiplicity = 1
  Basis Set: AUG-CC-PVTZ
    Blend: AUG-CC-PVTZ
  Basis Set: (AUG-CC-PVTZ AUX)
    Blend: AUG-CC-PVTZ-JKFIT + DEF2-UNIVERSAL-JKFIT
  @DF-RHF Final Energy:   -14.31537167452819
    Total Energy =                        -14.3153716745281923
 Dipole X            :        -12.6991306           19.0494144            6.3502839
 Dipole Y            :          0.0000000            0.0000000            0.0000000
 Dipole Z            :          0.0000000            0.0000000            0.0000000
 Magnitude           :                                                    6.3502839
  Basis Set: (AUG-CC-PVTZ AUX)
    Blend: AUG-CC-PVTZ-RI + DEF2-QZVPP-RI
	 Reference Energy          =     -14.3153716745281940 [Eh]
	 Singles Energy            =      -0.0000000000000000 [Eh]
	 Same-Spin Energy          =      -0.0000002945337560 [Eh]
	 Opposite-Spin Energy      =      -0.0243275457047354 [Eh]
	 Correlation Energy        =      -0.0243278402384914 [Eh]
	 Total Energy              =     -14.3396995147666857 [Eh]
	 SCS Total Energy          =     -14.3445648275517961 [Eh]
                               Psi4 1.9 release
    Molecular point group: c1
  Multiplicity = 1
  Basis Set: AUG-CC-PVTZ
    Blend: AUG-CC-PVTZ
  Basis Set: (AUG-CC-PVTZ AUX)
    Blend: AUG-CC-PVTZ-JKFIT + DEF2-UNIVERSAL-JKFIT
  @DF-RHF Final Energy:   -76.06061105138998
    Total Energy =                        -76.0606110513899836
  Basis Set: (AUG-CC-PVTZ AUX)
	 Singles Energy            =      -0.0000000000000000 [Eh]
	 Same-Spin Energy          =      -0.0684377605609348 [Eh]
	 Opposite-Spin Energy      =      -0.2158294226863962 [Eh]
	 Correlation Energy        =      -0.2842671832473310 [Eh]
	 Total Energy              =     -76.3448782346373207 [Eh]
	 SCS Total Energy          =     -76.3424189454673012 [Eh]
                               Psi4 1.9 release
    Molecular point group: c1

    Geometry (in Bohr), charge = 2, multiplicity = 1:

       Center              X                  Y                   Z               Mass
    ------------   -----------------  -----------------  -----------------  -----------------
         O            0.000000000000     0.000000000000     0.000000000000    15.994914619570
         H           -1.112175634425     0.000000000000     1.430367719429     1.007825032230
         H           -1.112175634425     0.000000000000    -1.430367719429     1.007825032230
         LI           3.174902407216     3.174902407216     0.000000000000     7.016003436600
         LI           3.174902407216    -3.174902407216     0.000000000000     7.016003436600

  Charge       = 2
  Multiplicity = 1
  Basis Set: AUG-CC-PVTZ
    Blend: AUG-CC-PVTZ
  Basis Set: (AUG-CC-PVTZ AUX)
    Blend: AUG-CC-PVTZ-JKFIT + DEF2-UNIVERSAL-JKFIT

    Orbital Energies [Eh]
    ---------------------

    Doubly Occupied:

       1A    -20.988361     2A     -2.897149     3A     -2.897120
       4A     -1.772854     5A     -1.132054     6A     -1.026264
       7A     -0.941275

  @DF-RHF Final Energy:   -90.45590709211153

   => Energetics <=

    Nuclear Repulsion Energy =             23.4606911111040013
    One-Electron Energy =                -164.5230387845466282
    Two-Electron Energy =                  50.6064405813310856
    Total Energy =                        -90.4559070921115307
 Dipole X            :        -11.8008778           16.8250632            5.0241854
 Dipole Y            :         -0.0000000            0.0000000           -0.0000000
 Dipole Z            :         -0.0000000            0.0000000           -0.0000000
 Magnitude           :                                                    5.0241854
  Basis Set: (AUG-CC-PVTZ AUX)
    Blend: AUG-CC-PVTZ-RI + DEF2-QZVPP-RI
	 Reference Energy          =     -90.4559070921115307 [Eh]
	 Singles Energy            =      -0.0000000000000000 [Eh]
	 Same-Spin Energy          =      -0.0681571204793610 [Eh]
	 Opposite-Spin Energy      =      -0.2386375682881521 [Eh]
	 Correlation Energy        =      -0.3067946887675131 [Eh]
	 Total Energy              =     -90.7627017808790413 [Eh]

	 ================> DF-SCS-MP2 Energies <==================
	-----------------------------------------------------------
	 SCS Same-Spin Scale       =       0.3333333333333333 [-]
	 SCS Opposite-Spin Scale   =       1.2000000000000000 [-]
	 SCS Same-Spin Energy      =      -0.0227190401597870 [Eh]
	 SCS Opposite-Spin Energy  =      -0.2863650819457825 [Eh]
	 SCS Correlation Energy    =      -0.3090841221055695 [Eh]
	 SCS Total Energy          =     -90.7649912142171047 [Eh]
	-----------------------------------------------------------

*** Psi4 exiting successfully. Buy a developer a beer!
