                               Psi4 1.8.2 release

  ==> Input File <==

--------------------------------------------------------------------------
MEMORY 60 GB

molecule dimer {
0 1
O          0.000000     0.000000     0.000000
H         -0.588538     0.000000     0.756918
H         -0.588538     0.000000    -0.756918
Gh(Li)     1.985556     1.985556     0.000000
Gh(Li)     1.985556    -1.985556     0.000000

units ang
no_reorient
no_com
symmetry c1
}

set {
basis        aug-cc-pVTZ
scf_type     df
}

energy("mp2")
--------------------------------------------------------------------------

    Molecular point group: c1

    Geometry (in Angstrom), charge = 0, multiplicity = 1:

       Center              X                  Y                   Z               Mass
    ------------   -----------------  -----------------  -----------------  -----------------
         O            0.000000000000     0.000000000000     0.000000000000    15.994914619570
         H           -0.588538000000     0.000000000000     0.756918000000     1.007825032230
         H           -0.588538000000     0.000000000000    -0.756918000000     1.007825032230
      Gh(LI)          1.985556000000     1.985556000000     0.000000000000     7.016003436600
      Gh(LI)          1.985556000000    -1.985556000000     0.000000000000     7.016003436600

  Charge       = 0
  Multiplicity = 1
  Basis Set: AUG-CC-PVTZ
    Blend: AUG-CC-PVTZ
  Basis Set: (AUG-CC-PVTZ AUX)
    Blend: AUG-CC-PVTZ-JKFIT + DEF2-UNIVERSAL-JKFIT

    Orbital Energies [Eh]
    ---------------------

    Doubly Occupied:

       1A    -20.567456     2A     -1.352899     3A     -0.716433
       4A     -0.585073     5A     -0.510287

  @DF-RHF Final Energy:   -76.06056077491925

   => Energetics <=

    Nuclear Repulsion Energy =              9.1801978479270687
    One-Electron Energy =                -123.0172214403323494
    Two-Electron Energy =                  37.7764628174860277
    Total Energy =                        -76.0605607749192529
 Dipole X            :          1.4426065           -2.2243513           -0.7817448
 Dipole Y            :         -0.0000000            0.0000000           -0.0000000
 Dipole Z            :          0.0000000            0.0000000            0.0000000
 Magnitude           :                                                    0.7817448
  Basis Set: (AUG-CC-PVTZ AUX)
    Blend: AUG-CC-PVTZ-RI + DEF2-QZVPP-RI
	 Reference Energy          =     -76.0605607749192529 [Eh]
	 Singles Energy            =      -0.0000000000000000 [Eh]
	 Same-Spin Energy          =      -0.0684155331240295 [Eh]
	 Opposite-Spin Energy      =      -0.2156176205419899 [Eh]
	 Correlation Energy        =      -0.2840331536660194 [Eh]
	 Total Energy              =     -76.3445939285852688 [Eh]

	 ================> DF-SCS-MP2 Energies <==================
	-----------------------------------------------------------
	 SCS Same-Spin Scale       =       0.3333333333333333 [-]
	 SCS Opposite-Spin Scale   =       1.2000000000000000 [-]
	 SCS Same-Spin Energy      =      -0.0228051777080098 [Eh]
	 SCS Opposite-Spin Energy  =      -0.2587411446503879 [Eh]
	 SCS Correlation Energy    =      -0.2815463223583977 [Eh]
	 SCS Total Energy          =     -76.3421070972776477 [Eh]
	-----------------------------------------------------------

*** Psi4 exiting successfully. Buy a developer a beer!
