                               Psi4 1.8.2 release

  ==> Input File <==

--------------------------------------------------------------------------
MEMORY 60 GB

molecule dimer {
2 1
O          0.000000     0.000000     0.000000
H         -0.588538     0.000000     0.756918
H         -0.588538     0.000000    -0.756918
Li         1.680086     1.680086     0.000000
Li         1.680086    -1.680086     0.000000

units ang
no_reorient
no_com
symmetry c1
}

set {
basis        aug-cc-pVTZ
scf_type     df
}

energy("mp2")
--------------------------------------------------------------------------

    Molecular point group: c1

    Geometry (in Angstrom), charge = 2, multiplicity = 1:

       Center              X                  Y                   Z               Mass
    ------------   -----------------  -----------------  -----------------  -----------------
         O            0.000000000000     0.000000000000     0.000000000000    15.994914619570
         H           -0.588538000000     0.000000000000     0.756918000000     1.007825032230
         H           -0.588538000000     0.000000000000    -0.756918000000     1.007825032230
         LI           1.680086000000     1.680086000000     0.000000000000     7.016003436600
         LI           1.680086000000    -1.680086000000     0.000000000000     7.016003436600

  Charge       = 2
  Multiplicity = 1
  Basis Set: AUG-CC-PVTZ
    Blend: AUG-CC-PVTZ
  Basis Set: (AUG-CC-PVTZ AUX)
    Blend: AUG-CC-PVTZ-JKFIT + DEF2-UNIVERSAL-JKFIT

    Orbital Energies [Eh]
    ---------------------

    Doubly Occupied:

       1A    -20.988361     2A     -2.897149     3A     -2.897120
       4A     -1.772854     5A     -1.132054     6A     -1.026264
       7A     -0.941275

  @DF-RHF Final Energy:   -90.45590709214349

   => Energetics <=

    Nuclear Repulsion Energy =             23.4606911111039942
    One-Electron Energy =                -164.5230387845575706
    Two-Electron Energy =                  50.6064405813100961
    Total Energy =                        -90.4559070921434909
 Dipole X            :        -11.8008778           16.8250632            5.0241854
 Dipole Y            :         -0.0000000            0.0000000           -0.0000000
 Dipole Z            :         -0.0000000            0.0000000           -0.0000000
 Magnitude           :                                                    5.0241854
  Basis Set: (AUG-CC-PVTZ AUX)
    Blend: AUG-CC-PVTZ-RI + DEF2-QZVPP-RI
	 Reference Energy          =     -90.4559070921434909 [Eh]
	 Singles Energy            =      -0.0000000000000000 [Eh]
	 Same-Spin Energy          =      -0.0681571204793255 [Eh]
	 Opposite-Spin Energy      =      -0.2386375682883843 [Eh]
	 Correlation Energy        =      -0.3067946887677098 [Eh]
	 Total Energy              =     -90.7627017809112004 [Eh]

	 ================> DF-SCS-MP2 Energies <==================
	-----------------------------------------------------------
	 SCS Same-Spin Scale       =       0.3333333333333333 [-]
	 SCS Opposite-Spin Scale   =       1.2000000000000000 [-]
	 SCS Same-Spin Energy      =      -0.0227190401597752 [Eh]
	 SCS Opposite-Spin Energy  =      -0.2863650819460612 [Eh]
	 SCS Correlation Energy    =      -0.3090841221058364 [Eh]
	 SCS Total Energy          =     -90.7649912142493207 [Eh]
	-----------------------------------------------------------

*** Psi4 exiting successfully. Buy a developer a beer!
