                               Psi4 1.8.2 release

  ==> Input File <==

--------------------------------------------------------------------------
MEMORY 60 GB

molecule dimer {
0 1
O          0.000000     0.000000     0.000000
H         -0.588538     0.000000     0.756918
H         -0.588538     0.000000    -0.756918
Gh(Li)     2.138291     2.138291     0.000000
Gh(Li)     2.138291    -2.138291     0.000000

units ang
no_reorient
no_com
symmetry c1
}

set {
basis        aug-cc-pVTZ
scf_type     df
}

energy("mp2")
--------------------------------------------------------------------------

    Molecular point group: c1

    Geometry (in Angstrom), charge = 0, multiplicity = 1:

       Center              X                  Y                   Z               Mass
    ------------   -----------------  -----------------  -----------------  -----------------
         O            0.000000000000     0.000000000000     0.000000000000    15.994914619570
         H           -0.588538000000     0.000000000000     0.756918000000     1.007825032230
         H           -0.588538000000     0.000000000000    -0.756918000000     1.007825032230
      Gh(LI)          2.138291000000     2.138291000000     0.000000000000     7.016003436600
      Gh(LI)          2.138291000000    -2.138291000000     0.000000000000     7.016003436600

  Charge       = 0
  Multiplicity = 1
  Basis Set: AUG-CC-PVTZ
    Blend: AUG-CC-PVTZ
  Basis Set: (AUG-CC-PVTZ AUX)
    Blend: AUG-CC-PVTZ-JKFIT + DEF2-UNIVERSAL-JKFIT

    Orbital Energies [Eh]
    ---------------------

    Doubly Occupied:

       1A    -20.567490     2A     -1.352919     3A     -0.716453
       4A     -0.585087     5A     -0.510292

  @DF-RHF Final Energy:   -76.06053837829253

   => Energetics <=

    Nuclear Repulsion Energy =              9.1801978479270687
    One-Electron Energy =                -123.0169908984875491
    Two-Electron Energy =                  37.7762546722679531
    Total Energy =                        -76.0605383782925344
 Dipole X            :          1.4424993           -2.2243513           -0.7818519
 Dipole Y            :          0.0000000            0.0000000            0.0000000
 Dipole Z            :         -0.0000000            0.0000000           -0.0000000
 Magnitude           :                                                    0.7818519
  Basis Set: (AUG-CC-PVTZ AUX)
    Blend: AUG-CC-PVTZ-RI + DEF2-QZVPP-RI
	 Reference Energy          =     -76.0605383782925344 [Eh]
	 Singles Energy            =      -0.0000000000000000 [Eh]
	 Same-Spin Energy          =      -0.0684073211949218 [Eh]
	 Opposite-Spin Energy      =      -0.2155417952377428 [Eh]
	 Correlation Energy        =      -0.2839491164326646 [Eh]
	 Total Energy              =     -76.3444874947252003 [Eh]

	 ================> DF-SCS-MP2 Energies <==================
	-----------------------------------------------------------
	 SCS Same-Spin Scale       =       0.3333333333333333 [-]
	 SCS Opposite-Spin Scale   =       1.2000000000000000 [-]
	 SCS Same-Spin Energy      =      -0.0228024403983073 [Eh]
	 SCS Opposite-Spin Energy  =      -0.2586501542852914 [Eh]
	 SCS Correlation Energy    =      -0.2814525946835986 [Eh]
	 SCS Total Energy          =     -76.3419909729761343 [Eh]
	-----------------------------------------------------------

*** Psi4 exiting successfully. Buy a developer a beer!
