                               Psi4 1.8.2 release

  ==> Input File <==

--------------------------------------------------------------------------
MEMORY 60 GB

molecule dimer {
0 1
O      0.000000     0.000000     0.000000
H     -0.588538     0.000000     0.756918
H     -0.588538     0.000000    -0.756918
--
1 1
Li     1.680086     1.680086     0.000000
--
1 1
Li     1.680086    -1.680086     0.000000

units ang
no_reorient
no_com
symmetry c1
}

set {
basis        aug-cc-pVTZ
scf_type     df
}

energy("mp2", bsse_type="cp")
--------------------------------------------------------------------------

                               Psi4 1.8.2 release
    Molecular point group: c1
  Charge       = 0
  Multiplicity = 1
  Basis Set: AUG-CC-PVTZ
    Blend: AUG-CC-PVTZ
  Basis Set: (AUG-CC-PVTZ AUX)
    Blend: AUG-CC-PVTZ-JKFIT + DEF2-UNIVERSAL-JKFIT
  @DF-RHF Final Energy:   -76.06061105141308
    Total Energy =                        -76.0606110514130762
 Dipole X            :          1.4427988           -2.2243513           -0.7815524
 Dipole Y            :         -0.0000000            0.0000000           -0.0000000
 Dipole Z            :          0.0000000            0.0000000            0.0000000
 Magnitude           :                                                    0.7815524
  Basis Set: (AUG-CC-PVTZ AUX)
    Blend: AUG-CC-PVTZ-RI + DEF2-QZVPP-RI
	 Reference Energy          =     -76.0606110514130762 [Eh]
	 Singles Energy            =      -0.0000000000000000 [Eh]
	 Same-Spin Energy          =      -0.0684377605608751 [Eh]
	 Opposite-Spin Energy      =      -0.2158294226861692 [Eh]
	 Correlation Energy        =      -0.2842671832470443 [Eh]
	 Total Energy              =     -76.3448782346601149 [Eh]
	 SCS Total Energy          =     -76.3424189454901096 [Eh]
                               Psi4 1.8.2 release
    Molecular point group: c1
  Basis Set: AUG-CC-PVTZ
    Blend: AUG-CC-PVTZ
  Basis Set: (AUG-CC-PVTZ AUX)
    Blend: AUG-CC-PVTZ-JKFIT + DEF2-UNIVERSAL-JKFIT
  @DF-RHF Final Energy:    -7.23638330147781
    Total Energy =                         -7.2363833014778081
  Basis Set: (AUG-CC-PVTZ AUX)
                               Psi4 1.8.2 release
  @DF-RHF Final Energy:   -14.31537167452935
    Total Energy =                        -14.3153716745293487
                               Psi4 1.8.2 release
  @DF-RHF Final Energy:   -83.33689444321951
    Total Energy =                        -83.3368944432195065
                               Psi4 1.8.2 release
  @DF-RHF Final Energy:   -83.33689444321941
    Total Energy =                        -83.3368944432194070
                               Psi4 1.8.2 release
  Multiplicity = 1
  @DF-RHF Final Energy:    -7.23638330147773
    Total Energy =                         -7.2363833014777290
	 Singles Energy            =      -0.0000000000000000 [Eh]
	 Same-Spin Energy          =       0.0000000000000000 [Eh]
	 Opposite-Spin Energy      =      -0.0121593231250322 [Eh]
	 Correlation Energy        =      -0.0121593231250322 [Eh]
	 Total Energy              =      -7.2485426246027620 [Eh]
	 SCS Total Energy          =      -7.2509744892277688 [Eh]
                               Psi4 1.8.2 release
    Molecular point group: c1

    Geometry (in Bohr), charge = 2, multiplicity = 1:

       Center              X                  Y                   Z               Mass
    ------------   -----------------  -----------------  -----------------  -----------------
         O            0.000000000000     0.000000000000     0.000000000000    15.994914619570
         H           -1.112175634425     0.000000000000     1.430367719429     1.007825032230
         H           -1.112175634425     0.000000000000    -1.430367719429     1.007825032230
         LI           3.174902407216     3.174902407216     0.000000000000     7.016003436600
         LI           3.174902407216    -3.174902407216     0.000000000000     7.016003436600

  Charge       = 2
  Multiplicity = 1
  Basis Set: AUG-CC-PVTZ
    Blend: AUG-CC-PVTZ
  Basis Set: (AUG-CC-PVTZ AUX)
    Blend: AUG-CC-PVTZ-JKFIT + DEF2-UNIVERSAL-JKFIT

    Orbital Energies [Eh]
    ---------------------

    Doubly Occupied:

       1A    -20.988361     2A     -2.897149     3A     -2.897120
       4A     -1.772854     5A     -1.132054     6A     -1.026264
       7A     -0.941275

  @DF-RHF Final Energy:   -90.45590709214873

   => Energetics <=

    Nuclear Repulsion Energy =             23.4606911111040013
    One-Electron Energy =                -164.5230387845575137
    Two-Electron Energy =                  50.6064405813047742
    Total Energy =                        -90.4559070921487205
 Dipole X            :        -11.8008778           16.8250632            5.0241854
 Dipole Y            :         -0.0000000            0.0000000           -0.0000000
 Dipole Z            :          0.0000000            0.0000000            0.0000000
 Magnitude           :                                                    5.0241854
  Basis Set: (AUG-CC-PVTZ AUX)
    Blend: AUG-CC-PVTZ-RI + DEF2-QZVPP-RI
	 Reference Energy          =     -90.4559070921487347 [Eh]
	 Singles Energy            =      -0.0000000000000000 [Eh]
	 Same-Spin Energy          =      -0.0681571204792948 [Eh]
	 Opposite-Spin Energy      =      -0.2386375682881817 [Eh]
	 Correlation Energy        =      -0.3067946887674765 [Eh]
	 Total Energy              =     -90.7627017809162169 [Eh]

	 ================> DF-SCS-MP2 Energies <==================
	-----------------------------------------------------------
	 SCS Same-Spin Scale       =       0.3333333333333333 [-]
	 SCS Opposite-Spin Scale   =       1.2000000000000000 [-]
	 SCS Same-Spin Energy      =      -0.0227190401597649 [Eh]
	 SCS Opposite-Spin Energy  =      -0.2863650819458180 [Eh]
	 SCS Correlation Energy    =      -0.3090841221055829 [Eh]
	 SCS Total Energy          =     -90.7649912142543229 [Eh]
	-----------------------------------------------------------

*** Psi4 exiting successfully. Buy a developer a beer!
