                               Psi4 1.8.2 release

  ==> Input File <==

--------------------------------------------------------------------------
MEMORY 60 GB

molecule dimer {
2 1
O          0.000000     0.000000     0.000000
H         -0.588538     0.000000     0.756918
H         -0.588538     0.000000    -0.756918
Li         1.985556     1.985556     0.000000
Li         1.985556    -1.985556     0.000000

units ang
no_reorient
no_com
symmetry c1
}

set {
basis        aug-cc-pVTZ
scf_type     df
}

energy("mp2")
--------------------------------------------------------------------------

    Molecular point group: c1

    Geometry (in Angstrom), charge = 2, multiplicity = 1:

       Center              X                  Y                   Z               Mass
    ------------   -----------------  -----------------  -----------------  -----------------
         O            0.000000000000     0.000000000000     0.000000000000    15.994914619570
         H           -0.588538000000     0.000000000000     0.756918000000     1.007825032230
         H           -0.588538000000     0.000000000000    -0.756918000000     1.007825032230
         LI           1.985556000000     1.985556000000     0.000000000000     7.016003436600
         LI           1.985556000000    -1.985556000000     0.000000000000     7.016003436600

  Charge       = 2
  Multiplicity = 1
  Basis Set: AUG-CC-PVTZ
    Blend: AUG-CC-PVTZ
  Basis Set: (AUG-CC-PVTZ AUX)
    Blend: AUG-CC-PVTZ-JKFIT + DEF2-UNIVERSAL-JKFIT

    Orbital Energies [Eh]
    ---------------------

    Doubly Occupied:

       1A    -20.929995     2A     -2.890706     3A     -2.890704
       4A     -1.713582     5A     -1.074755     6A     -0.960397
       7A     -0.877965

  @DF-RHF Final Energy:   -90.45667916799229

   => Energetics <=

    Nuclear Repulsion Energy =             21.3277252927631551
    One-Electron Energy =                -160.8925991750463709
    Two-Electron Energy =                  49.1081947142909314
    Total Energy =                        -90.4566791679922915
 Dipole X            :        -13.9965389           20.2885910            6.2920521
 Dipole Y            :         -0.0000000            0.0000000           -0.0000000
 Dipole Z            :          0.0000000            0.0000000            0.0000000
 Magnitude           :                                                    6.2920521
  Basis Set: (AUG-CC-PVTZ AUX)
    Blend: AUG-CC-PVTZ-RI + DEF2-QZVPP-RI
	 Reference Energy          =     -90.4566791679922915 [Eh]
	 Singles Energy            =      -0.0000000000000000 [Eh]
	 Same-Spin Energy          =      -0.0683282569461291 [Eh]
	 Opposite-Spin Energy      =      -0.2380127876153175 [Eh]
	 Correlation Energy        =      -0.3063410445614466 [Eh]
	 Total Energy              =     -90.7630202125537409 [Eh]

	 ================> DF-SCS-MP2 Energies <==================
	-----------------------------------------------------------
	 SCS Same-Spin Scale       =       0.3333333333333333 [-]
	 SCS Opposite-Spin Scale   =       1.2000000000000000 [-]
	 SCS Same-Spin Energy      =      -0.0227760856487097 [Eh]
	 SCS Opposite-Spin Energy  =      -0.2856153451383810 [Eh]
	 SCS Correlation Energy    =      -0.3083914307870907 [Eh]
	 SCS Total Energy          =     -90.7650705987793884 [Eh]
	-----------------------------------------------------------

*** Psi4 exiting successfully. Buy a developer a beer!
