                               Psi4 1.8.2 release

  ==> Input File <==

--------------------------------------------------------------------------
MEMORY 60 GB

molecule dimer {
0 1
O      0.000000     0.000000     0.000000
H     -0.588538     0.000000     0.756918
H     -0.588538     0.000000    -0.756918
--
1 1
Li     1.527351     1.527351     0.000000
--
1 1
Li     1.527351    -1.527351     0.000000

units ang
no_reorient
no_com
symmetry c1
}

set {
basis        aug-cc-pVTZ
scf_type     df
}

energy("mp2", bsse_type="cp")
--------------------------------------------------------------------------

                               Psi4 1.8.2 release
    Molecular point group: c1
  Charge       = 0
  Multiplicity = 1
  Basis Set: AUG-CC-PVTZ
    Blend: AUG-CC-PVTZ
  Basis Set: (AUG-CC-PVTZ AUX)
    Blend: AUG-CC-PVTZ-JKFIT + DEF2-UNIVERSAL-JKFIT
  @DF-RHF Final Energy:   -76.06063180097641
    Total Energy =                        -76.0606318009764095
 Dipole X            :          1.4428596           -2.2243513           -0.7814917
 Dipole Y            :         -0.0000000            0.0000000           -0.0000000
 Dipole Z            :          0.0000000            0.0000000            0.0000000
 Magnitude           :                                                    0.7814917
  Basis Set: (AUG-CC-PVTZ AUX)
    Blend: AUG-CC-PVTZ-RI + DEF2-QZVPP-RI
	 Reference Energy          =     -76.0606318009764095 [Eh]
	 Singles Energy            =      -0.0000000000000000 [Eh]
	 Same-Spin Energy          =      -0.0684513705275944 [Eh]
	 Opposite-Spin Energy      =      -0.2159676298326653 [Eh]
	 Correlation Energy        =      -0.2844190003602596 [Eh]
	 Total Energy              =     -76.3450508013366687 [Eh]
	 SCS Total Energy          =     -76.3426100802847998 [Eh]
                               Psi4 1.8.2 release
    Molecular point group: c1
  Basis Set: AUG-CC-PVTZ
    Blend: AUG-CC-PVTZ
  Basis Set: (AUG-CC-PVTZ AUX)
    Blend: AUG-CC-PVTZ-JKFIT + DEF2-UNIVERSAL-JKFIT
  @DF-RHF Final Energy:    -7.23638345152726
    Total Energy =                         -7.2363834515272583
  Basis Set: (AUG-CC-PVTZ AUX)
                               Psi4 1.8.2 release
  @DF-RHF Final Energy:   -14.29967443587025
    Total Energy =                        -14.2996744358702479
                               Psi4 1.8.2 release
  @DF-RHF Final Energy:   -83.34345627652696
    Total Energy =                        -83.3434562765269646
                               Psi4 1.8.2 release
  @DF-RHF Final Energy:   -83.34345627652718
    Total Energy =                        -83.3434562765271920
                               Psi4 1.8.2 release
  Multiplicity = 1
  @DF-RHF Final Energy:    -7.23638345152727
    Total Energy =                         -7.2363834515272663
	 Singles Energy            =      -0.0000000000000000 [Eh]
	 Same-Spin Energy          =       0.0000000000000000 [Eh]
	 Opposite-Spin Energy      =      -0.0126535261602062 [Eh]
	 Correlation Energy        =      -0.0126535261602062 [Eh]
	 Total Energy              =      -7.2490369776874726 [Eh]
	 SCS Total Energy          =      -7.2515676829195135 [Eh]
                               Psi4 1.8.2 release
    Molecular point group: c1

    Geometry (in Bohr), charge = 2, multiplicity = 1:

       Center              X                  Y                   Z               Mass
    ------------   -----------------  -----------------  -----------------  -----------------
         O            0.000000000000     0.000000000000     0.000000000000    15.994914619570
         H           -1.112175634425     0.000000000000     1.430367719429     1.007825032230
         H           -1.112175634425     0.000000000000    -1.430367719429     1.007825032230
         LI           2.886275087444     2.886275087444     0.000000000000     7.016003436600
         LI           2.886275087444    -2.886275087444     0.000000000000     7.016003436600

  Charge       = 2
  Multiplicity = 1
  Basis Set: AUG-CC-PVTZ
    Blend: AUG-CC-PVTZ
  Basis Set: (AUG-CC-PVTZ AUX)
    Blend: AUG-CC-PVTZ-JKFIT + DEF2-UNIVERSAL-JKFIT

    Orbital Energies [Eh]
    ---------------------

    Doubly Occupied:

       1A    -21.020682     2A     -2.900528     3A     -2.900424
       4A     -1.807916     5A     -1.165341     6A     -1.066236
       7A     -0.979367

  @DF-RHF Final Energy:   -90.45382907864405

   => Energetics <=

    Nuclear Repulsion Energy =             24.8358761225506868
    One-Electron Energy =                -166.8984192964462068
    Two-Electron Energy =                  51.6087140952514574
    Total Energy =                        -90.4538290786440484
 Dipole X            :        -10.6991452           15.0932993            4.3941540
 Dipole Y            :         -0.0000000            0.0000000           -0.0000000
 Dipole Z            :          0.0000000            0.0000000            0.0000000
 Magnitude           :                                                    4.3941540
  Basis Set: (AUG-CC-PVTZ AUX)
    Blend: AUG-CC-PVTZ-RI + DEF2-QZVPP-RI
	 Reference Energy          =     -90.4538290786440484 [Eh]
	 Singles Energy            =      -0.0000000000000000 [Eh]
	 Same-Spin Energy          =      -0.0679520549026339 [Eh]
	 Opposite-Spin Energy      =      -0.2389726957843842 [Eh]
	 Correlation Energy        =      -0.3069247506870181 [Eh]
	 Total Energy              =     -90.7607538293310654 [Eh]

	 ================> DF-SCS-MP2 Energies <==================
	-----------------------------------------------------------
	 SCS Same-Spin Scale       =       0.3333333333333333 [-]
	 SCS Opposite-Spin Scale   =       1.2000000000000000 [-]
	 SCS Same-Spin Energy      =      -0.0226506849675446 [Eh]
	 SCS Opposite-Spin Energy  =      -0.2867672349412610 [Eh]
	 SCS Correlation Energy    =      -0.3094179199088056 [Eh]
	 SCS Total Energy          =     -90.7632469985528587 [Eh]
	-----------------------------------------------------------

*** Psi4 exiting successfully. Buy a developer a beer!
