                               Psi4 1.8.2 release

  ==> Input File <==

--------------------------------------------------------------------------
MEMORY 60 GB

molecule dimer {
1 1
Gh(O)      0.000000     0.000000     0.000000
Gh(H)     -0.588538     0.000000     0.756918
Gh(H)     -0.588538     0.000000    -0.756918
Gh(Li)     1.680086     1.680086     0.000000
Li         1.680086    -1.680086     0.000000

units ang
no_reorient
no_com
symmetry c1
}

set {
basis        aug-cc-pVTZ
scf_type     df
}

energy("mp2")
--------------------------------------------------------------------------

    Molecular point group: c1

    Geometry (in Angstrom), charge = 1, multiplicity = 1:

       Center              X                  Y                   Z               Mass
    ------------   -----------------  -----------------  -----------------  -----------------
      Gh(O)           0.000000000000     0.000000000000     0.000000000000    15.994914619570
      Gh(H)          -0.588538000000     0.000000000000     0.756918000000     1.007825032230
      Gh(H)          -0.588538000000     0.000000000000    -0.756918000000     1.007825032230
      Gh(LI)          1.680086000000     1.680086000000     0.000000000000     7.016003436600
         LI           1.680086000000    -1.680086000000     0.000000000000     7.016003436600

  Charge       = 1
  Multiplicity = 1
  Basis Set: AUG-CC-PVTZ
    Blend: AUG-CC-PVTZ
  Basis Set: (AUG-CC-PVTZ AUX)
    Blend: AUG-CC-PVTZ-JKFIT + DEF2-UNIVERSAL-JKFIT

    Orbital Energies [Eh]
    ---------------------

    Doubly Occupied:

       1A     -2.792373

  @DF-RHF Final Energy:    -7.23638330147781

   => Energetics <=

    Nuclear Repulsion Energy =              0.0000000000000000
    One-Electron Energy =                  -8.8880204623777441
    Two-Electron Energy =                   1.6516371608999312
    Total Energy =                         -7.2363833014778134
 Dipole X            :         -6.3498508            9.5247072            3.1748564
 Dipole Y            :          6.3498629           -9.5247072           -3.1748444
 Dipole Z            :         -0.0000000            0.0000000           -0.0000000
 Magnitude           :                                                    4.4899165
  Basis Set: (AUG-CC-PVTZ AUX)
    Blend: AUG-CC-PVTZ-RI + DEF2-QZVPP-RI
	 Reference Energy          =      -7.2363833014778134 [Eh]
	 Singles Energy            =      -0.0000000000000000 [Eh]
	 Same-Spin Energy          =       0.0000000000000000 [Eh]
	 Opposite-Spin Energy      =      -0.0121593231249938 [Eh]
	 Correlation Energy        =      -0.0121593231249938 [Eh]
	 Total Energy              =      -7.2485426246028073 [Eh]

	 ================> DF-SCS-MP2 Energies <==================
	-----------------------------------------------------------
	 SCS Same-Spin Scale       =       0.3333333333333333 [-]
	 SCS Opposite-Spin Scale   =       1.2000000000000000 [-]
	 SCS Same-Spin Energy      =       0.0000000000000000 [Eh]
	 SCS Opposite-Spin Energy  =      -0.0145911877499926 [Eh]
	 SCS Correlation Energy    =      -0.0145911877499926 [Eh]
	 SCS Total Energy          =      -7.2509744892278061 [Eh]
	-----------------------------------------------------------

*** Psi4 exiting successfully. Buy a developer a beer!
