                               Psi4 1.8.2 release

  ==> Input File <==

--------------------------------------------------------------------------
MEMORY 60 GB

molecule dimer {
0 1
O      0.000000     0.000000     0.000000
H     -0.588538     0.000000     0.756918
H     -0.588538     0.000000    -0.756918
--
1 1
Li     3.054701     3.054701     0.000000
--
1 1
Li     3.054701    -3.054701     0.000000

units ang
no_reorient
no_com
symmetry c1
}

set {
basis        aug-cc-pVTZ
scf_type     df
}

energy("mp2", bsse_type="cp")
--------------------------------------------------------------------------

                               Psi4 1.8.2 release
    Molecular point group: c1
  Charge       = 0
  Multiplicity = 1
  Basis Set: AUG-CC-PVTZ
    Blend: AUG-CC-PVTZ
  Basis Set: (AUG-CC-PVTZ AUX)
    Blend: AUG-CC-PVTZ-JKFIT + DEF2-UNIVERSAL-JKFIT
  @DF-RHF Final Energy:   -76.06049639064368
    Total Energy =                        -76.0604963906436922
 Dipole X            :          1.4417786           -2.2243513           -0.7825726
 Dipole Y            :         -0.0000000            0.0000000           -0.0000000
 Dipole Z            :          0.0000000            0.0000000            0.0000000
 Magnitude           :                                                    0.7825726
  Basis Set: (AUG-CC-PVTZ AUX)
    Blend: AUG-CC-PVTZ-RI + DEF2-QZVPP-RI
	 Reference Energy          =     -76.0604963906436780 [Eh]
	 Singles Energy            =      -0.0000000000000000 [Eh]
	 Same-Spin Energy          =      -0.0683780549747373 [Eh]
	 Opposite-Spin Energy      =      -0.2153284135487551 [Eh]
	 Correlation Energy        =      -0.2837064685234924 [Eh]
	 Total Energy              =     -76.3442028591671686 [Eh]
	 SCS Total Energy          =     -76.3416831718937630 [Eh]
                               Psi4 1.8.2 release
    Molecular point group: c1
  Basis Set: AUG-CC-PVTZ
    Blend: AUG-CC-PVTZ
  Basis Set: (AUG-CC-PVTZ AUX)
    Blend: AUG-CC-PVTZ-JKFIT + DEF2-UNIVERSAL-JKFIT
  @DF-RHF Final Energy:    -7.23638263730712
    Total Energy =                         -7.2363826373071225
  Basis Set: (AUG-CC-PVTZ AUX)
                               Psi4 1.8.2 release
  @DF-RHF Final Energy:   -14.38615523085692
    Total Energy =                        -14.3861552308569181
                               Psi4 1.8.2 release
  @DF-RHF Final Energy:   -83.30729644498719
    Total Energy =                        -83.3072964449872018
                               Psi4 1.8.2 release
  @DF-RHF Final Energy:   -83.30729644498740
    Total Energy =                        -83.3072964449874007
                               Psi4 1.8.2 release
  Multiplicity = 1
  @DF-RHF Final Energy:    -7.23638263730717
    Total Energy =                         -7.2363826373071678
	 Singles Energy            =      -0.0000000000000000 [Eh]
	 Same-Spin Energy          =       0.0000000000000000 [Eh]
	 Opposite-Spin Energy      =      -0.0110741843630262 [Eh]
	 Correlation Energy        =      -0.0110741843630262 [Eh]
	 Total Energy              =      -7.2474568216701938 [Eh]
	 SCS Total Energy          =      -7.2496716585427992 [Eh]
                               Psi4 1.8.2 release
    Molecular point group: c1

    Geometry (in Bohr), charge = 2, multiplicity = 1:

       Center              X                  Y                   Z               Mass
    ------------   -----------------  -----------------  -----------------  -----------------
         O            0.000000000000     0.000000000000     0.000000000000    15.994914619570
         H           -1.112175634425     0.000000000000     1.430367719429     1.007825032230
         H           -1.112175634425     0.000000000000    -1.430367719429     1.007825032230
         LI           5.772548285162     5.772548285162     0.000000000000     7.016003436600
         LI           5.772548285162    -5.772548285162     0.000000000000     7.016003436600

  Charge       = 2
  Multiplicity = 1
  Basis Set: AUG-CC-PVTZ
    Blend: AUG-CC-PVTZ
  Basis Set: (AUG-CC-PVTZ AUX)
    Blend: AUG-CC-PVTZ-JKFIT + DEF2-UNIVERSAL-JKFIT

    Orbital Energies [Eh]
    ---------------------

    Doubly Occupied:

       1A    -20.804225     2A     -2.867490     3A     -2.867489
       4A     -1.589702     5A     -0.952757     6A     -0.827980
       7A     -0.749663

  @DF-RHF Final Energy:   -90.46755162618422

   => Energetics <=

    Nuclear Repulsion Energy =             17.1585152621451691
    One-Electron Energy =                -153.9335180386573256
    Two-Electron Energy =                  46.3074511503279354
    Total Energy =                        -90.4675516261842318
 Dipole X            :        -21.8318210           32.4109384           10.5791174
 Dipole Y            :         -0.0000000            0.0000000           -0.0000000
 Dipole Z            :          0.0000000            0.0000000            0.0000000
 Magnitude           :                                                   10.5791174
  Basis Set: (AUG-CC-PVTZ AUX)
    Blend: AUG-CC-PVTZ-RI + DEF2-QZVPP-RI
	 Reference Energy          =     -90.4675516261842176 [Eh]
	 Singles Energy            =      -0.0000000000000000 [Eh]
	 Same-Spin Energy          =      -0.0682666459012010 [Eh]
	 Opposite-Spin Energy      =      -0.2369030425410203 [Eh]
	 Correlation Energy        =      -0.3051696884422213 [Eh]
	 Total Energy              =     -90.7727213146264376 [Eh]

	 ================> DF-SCS-MP2 Energies <==================
	-----------------------------------------------------------
	 SCS Same-Spin Scale       =       0.3333333333333333 [-]
	 SCS Opposite-Spin Scale   =       1.2000000000000000 [-]
	 SCS Same-Spin Energy      =      -0.0227555486337337 [Eh]
	 SCS Opposite-Spin Energy  =      -0.2842836510492243 [Eh]
	 SCS Correlation Energy    =      -0.3070391996829580 [Eh]
	 SCS Total Energy          =     -90.7745908258671790 [Eh]
	-----------------------------------------------------------

*** Psi4 exiting successfully. Buy a developer a beer!
