                               Psi4 1.9 release

  ==> Input File <==

--------------------------------------------------------------------------
MEMORY 60 GB

molecule dimer {
0 1
O      0.000000     0.000000     0.000000
H     -0.588538     0.000000     0.756918
H     -0.588538     0.000000    -0.756918
--
2 1
Li     1.527351     1.527351     0.000000
Li     1.527351    -1.527351     0.000000

units ang
no_reorient
no_com
symmetry c1
}

set {
basis        aug-cc-pVTZ
scf_type     df
}

energy("mp2", bsse_type="cp")
--------------------------------------------------------------------------

                               Psi4 1.9 release
    Molecular point group: c1
  Charge       = 2
  Multiplicity = 1
  Basis Set: AUG-CC-PVTZ
    Blend: AUG-CC-PVTZ
  Basis Set: (AUG-CC-PVTZ AUX)
    Blend: AUG-CC-PVTZ-JKFIT + DEF2-UNIVERSAL-JKFIT
  @DF-RHF Final Energy:   -14.29967443587021
    Total Energy =                        -14.2996744358702088
 Dipole X            :        -11.5443565           17.3176505            5.7732940
 Dipole Y            :         -0.0000000            0.0000000           -0.0000000
 Dipole Z            :         -0.0000000            0.0000000           -0.0000000
 Magnitude           :                                                    5.7732940
  Basis Set: (AUG-CC-PVTZ AUX)
    Blend: AUG-CC-PVTZ-RI + DEF2-QZVPP-RI
	 Reference Energy          =     -14.2996744358702088 [Eh]
	 Singles Energy            =      -0.0000000000000000 [Eh]
	 Same-Spin Energy          =      -0.0000005876185173 [Eh]
	 Opposite-Spin Energy      =      -0.0253166804041010 [Eh]
	 Correlation Energy        =      -0.0253172680226182 [Eh]
	 Total Energy              =     -14.3249917038928274 [Eh]
	 SCS Total Energy          =     -14.3300546482279696 [Eh]
                               Psi4 1.9 release
    Molecular point group: c1
  Multiplicity = 1
  Basis Set: AUG-CC-PVTZ
    Blend: AUG-CC-PVTZ
  Basis Set: (AUG-CC-PVTZ AUX)
    Blend: AUG-CC-PVTZ-JKFIT + DEF2-UNIVERSAL-JKFIT
  @DF-RHF Final Energy:   -76.06063180096571
    Total Energy =                        -76.0606318009657230
  Basis Set: (AUG-CC-PVTZ AUX)
	 Singles Energy            =      -0.0000000000000000 [Eh]
	 Same-Spin Energy          =      -0.0684513705276170 [Eh]
	 Opposite-Spin Energy      =      -0.2159676298327654 [Eh]
	 Correlation Energy        =      -0.2844190003603824 [Eh]
	 Total Energy              =     -76.3450508013260958 [Eh]
	 SCS Total Energy          =     -76.3426100802742269 [Eh]
                               Psi4 1.9 release
    Molecular point group: c1

    Geometry (in Bohr), charge = 2, multiplicity = 1:

       Center              X                  Y                   Z               Mass
    ------------   -----------------  -----------------  -----------------  -----------------
         O            0.000000000000     0.000000000000     0.000000000000    15.994914619570
         H           -1.112175634425     0.000000000000     1.430367719429     1.007825032230
         H           -1.112175634425     0.000000000000    -1.430367719429     1.007825032230
         LI           2.886275087444     2.886275087444     0.000000000000     7.016003436600
         LI           2.886275087444    -2.886275087444     0.000000000000     7.016003436600

  Charge       = 2
  Multiplicity = 1
  Basis Set: AUG-CC-PVTZ
    Blend: AUG-CC-PVTZ
  Basis Set: (AUG-CC-PVTZ AUX)
    Blend: AUG-CC-PVTZ-JKFIT + DEF2-UNIVERSAL-JKFIT

    Orbital Energies [Eh]
    ---------------------

    Doubly Occupied:

       1A    -21.020682     2A     -2.900528     3A     -2.900424
       4A     -1.807916     5A     -1.165341     6A     -1.066236
       7A     -0.979367

  @DF-RHF Final Energy:   -90.45382907863132

   => Energetics <=

    Nuclear Repulsion Energy =             24.8358761225506868
    One-Electron Energy =                -166.8984192964454110
    Two-Electron Energy =                  51.6087140952633945
    Total Energy =                        -90.4538290786313155
 Dipole X            :        -10.6991452           15.0932993            4.3941540
 Dipole Y            :          0.0000000            0.0000000            0.0000000
 Dipole Z            :         -0.0000000            0.0000000           -0.0000000
 Magnitude           :                                                    4.3941540
  Basis Set: (AUG-CC-PVTZ AUX)
    Blend: AUG-CC-PVTZ-RI + DEF2-QZVPP-RI
	 Reference Energy          =     -90.4538290786313155 [Eh]
	 Singles Energy            =      -0.0000000000000000 [Eh]
	 Same-Spin Energy          =      -0.0679520549026558 [Eh]
	 Opposite-Spin Energy      =      -0.2389726957853423 [Eh]
	 Correlation Energy        =      -0.3069247506879981 [Eh]
	 Total Energy              =     -90.7607538293193130 [Eh]

	 ================> DF-SCS-MP2 Energies <==================
	-----------------------------------------------------------
	 SCS Same-Spin Scale       =       0.3333333333333333 [-]
	 SCS Opposite-Spin Scale   =       1.2000000000000000 [-]
	 SCS Same-Spin Energy      =      -0.0226506849675519 [Eh]
	 SCS Opposite-Spin Energy  =      -0.2867672349424108 [Eh]
	 SCS Correlation Energy    =      -0.3094179199099628 [Eh]
	 SCS Total Energy          =     -90.7632469985412769 [Eh]
	-----------------------------------------------------------

*** Psi4 exiting successfully. Buy a developer a beer!
