                               Psi4 1.8.2 release

  ==> Input File <==

--------------------------------------------------------------------------
MEMORY 60 GB

molecule dimer {
0 1
O      0.000000     0.000000     0.000000
H     -0.588538     0.000000     0.756918
H     -0.588538     0.000000    -0.756918
--
1 1
Li     2.138291     2.138291     0.000000
--
1 1
Li     2.138291    -2.138291     0.000000

units ang
no_reorient
no_com
symmetry c1
}

set {
basis        aug-cc-pVTZ
scf_type     df
}

energy("mp2", bsse_type="cp")
--------------------------------------------------------------------------

                               Psi4 1.8.2 release
    Molecular point group: c1
  Charge       = 0
  Multiplicity = 1
  Basis Set: AUG-CC-PVTZ
    Blend: AUG-CC-PVTZ
  Basis Set: (AUG-CC-PVTZ AUX)
    Blend: AUG-CC-PVTZ-JKFIT + DEF2-UNIVERSAL-JKFIT
  @DF-RHF Final Energy:   -76.06053837829248
    Total Energy =                        -76.0605383782924775
 Dipole X            :          1.4424993           -2.2243513           -0.7818519
 Dipole Y            :          0.0000000            0.0000000            0.0000000
 Dipole Z            :         -0.0000000            0.0000000           -0.0000000
 Magnitude           :                                                    0.7818519
  Basis Set: (AUG-CC-PVTZ AUX)
    Blend: AUG-CC-PVTZ-RI + DEF2-QZVPP-RI
	 Reference Energy          =     -76.0605383782924775 [Eh]
	 Singles Energy            =      -0.0000000000000000 [Eh]
	 Same-Spin Energy          =      -0.0684073211949239 [Eh]
	 Opposite-Spin Energy      =      -0.2155417952377447 [Eh]
	 Correlation Energy        =      -0.2839491164326686 [Eh]
	 Total Energy              =     -76.3444874947251435 [Eh]
	 SCS Total Energy          =     -76.3419909729760775 [Eh]
                               Psi4 1.8.2 release
    Molecular point group: c1
  Basis Set: AUG-CC-PVTZ
    Blend: AUG-CC-PVTZ
  Basis Set: (AUG-CC-PVTZ AUX)
    Blend: AUG-CC-PVTZ-JKFIT + DEF2-UNIVERSAL-JKFIT
  @DF-RHF Final Energy:    -7.23638315108683
    Total Energy =                         -7.2363831510868257
  Basis Set: (AUG-CC-PVTZ AUX)
                               Psi4 1.8.2 release
  @DF-RHF Final Energy:   -14.34905842953491
    Total Energy =                        -14.3490584295349066
                               Psi4 1.8.2 release
  @DF-RHF Final Energy:   -83.32083666375524
    Total Energy =                        -83.3208366637552444
                               Psi4 1.8.2 release
  @DF-RHF Final Energy:   -83.32083666375524
    Total Energy =                        -83.3208366637552444
                               Psi4 1.8.2 release
  Multiplicity = 1
  @DF-RHF Final Energy:    -7.23638315108676
    Total Energy =                         -7.2363831510867644
	 Singles Energy            =      -0.0000000000000000 [Eh]
	 Same-Spin Energy          =       0.0000000000000000 [Eh]
	 Opposite-Spin Energy      =      -0.0114739525571810 [Eh]
	 Correlation Energy        =      -0.0114739525571810 [Eh]
	 Total Energy              =      -7.2478571036439456 [Eh]
	 SCS Total Energy          =      -7.2501518941553815 [Eh]
                               Psi4 1.8.2 release
    Molecular point group: c1

    Geometry (in Bohr), charge = 2, multiplicity = 1:

       Center              X                  Y                   Z               Mass
    ------------   -----------------  -----------------  -----------------  -----------------
         O            0.000000000000     0.000000000000     0.000000000000    15.994914619570
         H           -1.112175634425     0.000000000000     1.430367719429     1.007825032230
         H           -1.112175634425     0.000000000000    -1.430367719429     1.007825032230
         LI           4.040784366531     4.040784366531     0.000000000000     7.016003436600
         LI           4.040784366531    -4.040784366531     0.000000000000     7.016003436600

  Charge       = 2
  Multiplicity = 1
  Basis Set: AUG-CC-PVTZ
    Blend: AUG-CC-PVTZ
  Basis Set: (AUG-CC-PVTZ AUX)
    Blend: AUG-CC-PVTZ-JKFIT + DEF2-UNIVERSAL-JKFIT

    Orbital Energies [Eh]
    ---------------------

    Doubly Occupied:

       1A    -20.904996     2A     -2.887308     3A     -2.887308
       4A     -1.688899     5A     -1.050625     6A     -0.933566
       7A     -0.852041

  @DF-RHF Final Energy:   -90.45739794556474

   => Energetics <=

    Nuclear Repulsion Energy =             20.4837902795179261
    One-Electron Energy =                -159.4728871540318380
    Two-Electron Energy =                  48.5316989289491545
    Total Energy =                        -90.4573979455647503
 Dipole X            :        -15.0991222           22.0203549            6.9212328
 Dipole Y            :          0.0000000            0.0000000            0.0000000
 Dipole Z            :         -0.0000000            0.0000000           -0.0000000
 Magnitude           :                                                    6.9212328
  Basis Set: (AUG-CC-PVTZ AUX)
    Blend: AUG-CC-PVTZ-RI + DEF2-QZVPP-RI
	 Reference Energy          =     -90.4573979455647361 [Eh]
	 Singles Energy            =      -0.0000000000000000 [Eh]
	 Same-Spin Energy          =      -0.0683391028050417 [Eh]
	 Opposite-Spin Energy      =      -0.2377460374005309 [Eh]
	 Correlation Energy        =      -0.3060851402055726 [Eh]
	 Total Energy              =     -90.7634830857703037 [Eh]

	 ================> DF-SCS-MP2 Energies <==================
	-----------------------------------------------------------
	 SCS Same-Spin Scale       =       0.3333333333333333 [-]
	 SCS Opposite-Spin Scale   =       1.2000000000000000 [-]
	 SCS Same-Spin Energy      =      -0.0227797009350139 [Eh]
	 SCS Opposite-Spin Energy  =      -0.2852952448806371 [Eh]
	 SCS Correlation Energy    =      -0.3080749458156510 [Eh]
	 SCS Total Energy          =     -90.7654728913803837 [Eh]
	-----------------------------------------------------------

*** Psi4 exiting successfully. Buy a developer a beer!
