                               Psi4 1.8.2 release

  ==> Input File <==

--------------------------------------------------------------------------
MEMORY 60 GB

molecule dimer {
2 1
O          0.000000     0.000000     0.000000
H         -0.588538     0.000000     0.756918
H         -0.588538     0.000000    -0.756918
Li         1.527351     1.527351     0.000000
Li         1.527351    -1.527351     0.000000

units ang
no_reorient
no_com
symmetry c1
}

set {
basis        aug-cc-pVTZ
scf_type     df
}

energy("mp2")
--------------------------------------------------------------------------

    Molecular point group: c1

    Geometry (in Angstrom), charge = 2, multiplicity = 1:

       Center              X                  Y                   Z               Mass
    ------------   -----------------  -----------------  -----------------  -----------------
         O            0.000000000000     0.000000000000     0.000000000000    15.994914619570
         H           -0.588538000000     0.000000000000     0.756918000000     1.007825032230
         H           -0.588538000000     0.000000000000    -0.756918000000     1.007825032230
         LI           1.527351000000     1.527351000000     0.000000000000     7.016003436600
         LI           1.527351000000    -1.527351000000     0.000000000000     7.016003436600

  Charge       = 2
  Multiplicity = 1
  Basis Set: AUG-CC-PVTZ
    Blend: AUG-CC-PVTZ
  Basis Set: (AUG-CC-PVTZ AUX)
    Blend: AUG-CC-PVTZ-JKFIT + DEF2-UNIVERSAL-JKFIT

    Orbital Energies [Eh]
    ---------------------

    Doubly Occupied:

       1A    -21.020682     2A     -2.900528     3A     -2.900424
       4A     -1.807916     5A     -1.165341     6A     -1.066236
       7A     -0.979367

  @DF-RHF Final Energy:   -90.45382907864402

   => Energetics <=

    Nuclear Repulsion Energy =             24.8358761225506868
    One-Electron Energy =                -166.8984192964455247
    Two-Electron Energy =                  51.6087140952507966
    Total Energy =                        -90.4538290786440200
 Dipole X            :        -10.6991452           15.0932993            4.3941540
 Dipole Y            :         -0.0000000            0.0000000           -0.0000000
 Dipole Z            :          0.0000000            0.0000000            0.0000000
 Magnitude           :                                                    4.3941540
  Basis Set: (AUG-CC-PVTZ AUX)
    Blend: AUG-CC-PVTZ-RI + DEF2-QZVPP-RI
	 Reference Energy          =     -90.4538290786440200 [Eh]
	 Singles Energy            =      -0.0000000000000000 [Eh]
	 Same-Spin Energy          =      -0.0679520549026314 [Eh]
	 Opposite-Spin Energy      =      -0.2389726957843788 [Eh]
	 Correlation Energy        =      -0.3069247506870102 [Eh]
	 Total Energy              =     -90.7607538293310370 [Eh]

	 ================> DF-SCS-MP2 Energies <==================
	-----------------------------------------------------------
	 SCS Same-Spin Scale       =       0.3333333333333333 [-]
	 SCS Opposite-Spin Scale   =       1.2000000000000000 [-]
	 SCS Same-Spin Energy      =      -0.0226506849675438 [Eh]
	 SCS Opposite-Spin Energy  =      -0.2867672349412546 [Eh]
	 SCS Correlation Energy    =      -0.3094179199087984 [Eh]
	 SCS Total Energy          =     -90.7632469985528161 [Eh]
	-----------------------------------------------------------

*** Psi4 exiting successfully. Buy a developer a beer!
