                               Psi4 1.9 release

  ==> Input File <==

--------------------------------------------------------------------------
MEMORY 60 GB

molecule dimer {
0 1
O      0.000000     0.000000     0.000000
H     -0.588538     0.000000     0.756918
H     -0.588538     0.000000    -0.756918
--
2 1
Li     2.291026     2.291026     0.000000
Li     2.291026    -2.291026     0.000000

units ang
no_reorient
no_com
symmetry c1
}

set {
basis        aug-cc-pVTZ
scf_type     df
}

energy("mp2", bsse_type="cp")
--------------------------------------------------------------------------

                               Psi4 1.9 release
    Molecular point group: c1
  Charge       = 2
  Multiplicity = 1
  Basis Set: AUG-CC-PVTZ
    Blend: AUG-CC-PVTZ
  Basis Set: (AUG-CC-PVTZ AUX)
    Blend: AUG-CC-PVTZ-JKFIT + DEF2-UNIVERSAL-JKFIT
  @DF-RHF Final Energy:   -14.35729974415598
    Total Energy =                        -14.3572997441559842
 Dipole X            :        -17.3176155           25.9764701            8.6588546
 Dipole Y            :          0.0000000            0.0000000            0.0000000
 Dipole Z            :         -0.0000000            0.0000000           -0.0000000
 Magnitude           :                                                    8.6588546
  Basis Set: (AUG-CC-PVTZ AUX)
    Blend: AUG-CC-PVTZ-RI + DEF2-QZVPP-RI
	 Reference Energy          =     -14.3572997441559842 [Eh]
	 Singles Energy            =      -0.0000000000000000 [Eh]
	 Same-Spin Energy          =      -0.0000000342991728 [Eh]
	 Opposite-Spin Energy      =      -0.0227276239459772 [Eh]
	 Correlation Energy        =      -0.0227276582451500 [Eh]
	 Total Energy              =     -14.3800274024011348 [Eh]
	 SCS Total Energy          =     -14.3845729043242141 [Eh]
                               Psi4 1.9 release
    Molecular point group: c1
  Multiplicity = 1
  Basis Set: AUG-CC-PVTZ
    Blend: AUG-CC-PVTZ
  Basis Set: (AUG-CC-PVTZ AUX)
    Blend: AUG-CC-PVTZ-JKFIT + DEF2-UNIVERSAL-JKFIT
  @DF-RHF Final Energy:   -76.06052193831061
    Total Energy =                        -76.0605219383106288
  Basis Set: (AUG-CC-PVTZ AUX)
	 Singles Energy            =      -0.0000000000000000 [Eh]
	 Same-Spin Energy          =      -0.0684004843812015 [Eh]
	 Opposite-Spin Energy      =      -0.2154820653767825 [Eh]
	 Correlation Energy        =      -0.2838825497579840 [Eh]
	 Total Energy              =     -76.3444044880686050 [Eh]
	 SCS Total Energy          =     -76.3419005782231608 [Eh]
                               Psi4 1.9 release
    Molecular point group: c1

    Geometry (in Bohr), charge = 2, multiplicity = 1:

       Center              X                  Y                   Z               Mass
    ------------   -----------------  -----------------  -----------------  -----------------
         O            0.000000000000     0.000000000000     0.000000000000    15.994914619570
         H           -1.112175634425     0.000000000000     1.430367719429     1.007825032230
         H           -1.112175634425     0.000000000000    -1.430367719429     1.007825032230
         LI           4.329411686303     4.329411686303     0.000000000000     7.016003436600
         LI           4.329411686303    -4.329411686303     0.000000000000     7.016003436600

  Charge       = 2
  Multiplicity = 1
  Basis Set: AUG-CC-PVTZ
    Blend: AUG-CC-PVTZ
  Basis Set: (AUG-CC-PVTZ AUX)
    Blend: AUG-CC-PVTZ-JKFIT + DEF2-UNIVERSAL-JKFIT

    Orbital Energies [Eh]
    ---------------------

    Doubly Occupied:

       1A    -20.882801     2A     -2.883834     3A     -2.883834
       4A     -1.667099     5A     -1.029222     6A     -0.910100
       7A     -0.829332

  @DF-RHF Final Energy:   -90.45854788870791

   => Energetics <=

    Nuclear Repulsion Energy =             19.7495602681545463
    One-Electron Energy =                -158.2437687476899555
    Two-Electron Energy =                  48.0356605908275043
    Total Energy =                        -90.4585478887079120
 Dipole X            :        -16.2075308           23.7521188            7.5445881
 Dipole Y            :          0.0000000            0.0000000            0.0000000
 Dipole Z            :         -0.0000000            0.0000000           -0.0000000
 Magnitude           :                                                    7.5445881
  Basis Set: (AUG-CC-PVTZ AUX)
    Blend: AUG-CC-PVTZ-RI + DEF2-QZVPP-RI
	 Reference Energy          =     -90.4585478887079120 [Eh]
	 Singles Energy            =      -0.0000000000000000 [Eh]
	 Same-Spin Energy          =      -0.0683293602008575 [Eh]
	 Opposite-Spin Energy      =      -0.2375112003273636 [Eh]
	 Correlation Energy        =      -0.3058405605282211 [Eh]
	 Total Energy              =     -90.7643884492361366 [Eh]

	 ================> DF-SCS-MP2 Energies <==================
	-----------------------------------------------------------
	 SCS Same-Spin Scale       =       0.3333333333333333 [-]
	 SCS Opposite-Spin Scale   =       1.2000000000000000 [-]
	 SCS Same-Spin Energy      =      -0.0227764534002858 [Eh]
	 SCS Opposite-Spin Energy  =      -0.2850134403928364 [Eh]
	 SCS Correlation Energy    =      -0.3077898937931222 [Eh]
	 SCS Total Energy          =     -90.7663377825010400 [Eh]
	-----------------------------------------------------------

*** Psi4 exiting successfully. Buy a developer a beer!
