                               Psi4 1.8.2 release

  ==> Input File <==

--------------------------------------------------------------------------
MEMORY 60 GB

molecule dimer {
2 1
O          0.000000     0.000000     0.000000
H         -0.588538     0.000000     0.756918
H         -0.588538     0.000000    -0.756918
Li         1.832821     1.832821     0.000000
Li         1.832821    -1.832821     0.000000

units ang
no_reorient
no_com
symmetry c1
}

set {
basis        aug-cc-pVTZ
scf_type     df
}

energy("mp2")
--------------------------------------------------------------------------

    Molecular point group: c1

    Geometry (in Angstrom), charge = 2, multiplicity = 1:

       Center              X                  Y                   Z               Mass
    ------------   -----------------  -----------------  -----------------  -----------------
         O            0.000000000000     0.000000000000     0.000000000000    15.994914619570
         H           -0.588538000000     0.000000000000     0.756918000000     1.007825032230
         H           -0.588538000000     0.000000000000    -0.756918000000     1.007825032230
         LI           1.832821000000     1.832821000000     0.000000000000     7.016003436600
         LI           1.832821000000    -1.832821000000     0.000000000000     7.016003436600

  Charge       = 2
  Multiplicity = 1
  Basis Set: AUG-CC-PVTZ
    Blend: AUG-CC-PVTZ
  Basis Set: (AUG-CC-PVTZ AUX)
    Blend: AUG-CC-PVTZ-JKFIT + DEF2-UNIVERSAL-JKFIT

    Orbital Energies [Eh]
    ---------------------

    Doubly Occupied:

       1A    -20.957866     2A     -2.893973     3A     -2.893965
       4A     -1.741475     5A     -1.101853     6A     -0.991123
       7A     -0.907569

  @DF-RHF Final Energy:   -90.45633800839776

   => Energetics <=

    Nuclear Repulsion Energy =             22.3080042088572839
    One-Electron Energy =                -162.5530342578202578
    Two-Electron Energy =                  49.7886920405652091
    Total Energy =                        -90.4563380083977648
 Dipole X            :        -12.8982135           18.5568271            5.6586136
 Dipole Y            :          0.0000000            0.0000000            0.0000000
 Dipole Z            :         -0.0000000            0.0000000           -0.0000000
 Magnitude           :                                                    5.6586136
  Basis Set: (AUG-CC-PVTZ AUX)
    Blend: AUG-CC-PVTZ-RI + DEF2-QZVPP-RI
	 Reference Energy          =     -90.4563380083977648 [Eh]
	 Singles Energy            =      -0.0000000000000000 [Eh]
	 Same-Spin Energy          =      -0.0682760045501177 [Eh]
	 Opposite-Spin Energy      =      -0.2383080719632633 [Eh]
	 Correlation Energy        =      -0.3065840765133811 [Eh]
	 Total Energy              =     -90.7629220849111391 [Eh]

	 ================> DF-SCS-MP2 Energies <==================
	-----------------------------------------------------------
	 SCS Same-Spin Scale       =       0.3333333333333333 [-]
	 SCS Opposite-Spin Scale   =       1.2000000000000000 [-]
	 SCS Same-Spin Energy      =      -0.0227586681833726 [Eh]
	 SCS Opposite-Spin Energy  =      -0.2859696863559160 [Eh]
	 SCS Correlation Energy    =      -0.3087283545392886 [Eh]
	 SCS Total Energy          =     -90.7650663629370484 [Eh]
	-----------------------------------------------------------

*** Psi4 exiting successfully. Buy a developer a beer!
