                               Psi4 1.8.2 release

  ==> Input File <==

--------------------------------------------------------------------------
MEMORY 60 GB

molecule dimer {
2 1
O          0.000000     0.000000     0.000000
H         -0.588538     0.000000     0.756918
H         -0.588538     0.000000    -0.756918
Li         2.291026     2.291026     0.000000
Li         2.291026    -2.291026     0.000000

units ang
no_reorient
no_com
symmetry c1
}

set {
basis        aug-cc-pVTZ
scf_type     df
}

energy("mp2")
--------------------------------------------------------------------------

    Molecular point group: c1

    Geometry (in Angstrom), charge = 2, multiplicity = 1:

       Center              X                  Y                   Z               Mass
    ------------   -----------------  -----------------  -----------------  -----------------
         O            0.000000000000     0.000000000000     0.000000000000    15.994914619570
         H           -0.588538000000     0.000000000000     0.756918000000     1.007825032230
         H           -0.588538000000     0.000000000000    -0.756918000000     1.007825032230
         LI           2.291026000000     2.291026000000     0.000000000000     7.016003436600
         LI           2.291026000000    -2.291026000000     0.000000000000     7.016003436600

  Charge       = 2
  Multiplicity = 1
  Basis Set: AUG-CC-PVTZ
    Blend: AUG-CC-PVTZ
  Basis Set: (AUG-CC-PVTZ AUX)
    Blend: AUG-CC-PVTZ-JKFIT + DEF2-UNIVERSAL-JKFIT

    Orbital Energies [Eh]
    ---------------------

    Doubly Occupied:

       1A    -20.882801     2A     -2.883834     3A     -2.883834
       4A     -1.667099     5A     -1.029222     6A     -0.910100
       7A     -0.829332

  @DF-RHF Final Energy:   -90.45854788869440

   => Energetics <=

    Nuclear Repulsion Energy =             19.7495602681545463
    One-Electron Energy =                -158.2437687476834185
    Two-Electron Energy =                  48.0356605908344818
    Total Energy =                        -90.4585478886943974
 Dipole X            :        -16.2075308           23.7521188            7.5445881
 Dipole Y            :         -0.0000000            0.0000000           -0.0000000
 Dipole Z            :         -0.0000000            0.0000000           -0.0000000
 Magnitude           :                                                    7.5445881
  Basis Set: (AUG-CC-PVTZ AUX)
    Blend: AUG-CC-PVTZ-RI + DEF2-QZVPP-RI
	 Reference Energy          =     -90.4585478886943974 [Eh]
	 Singles Energy            =      -0.0000000000000000 [Eh]
	 Same-Spin Energy          =      -0.0683293602008347 [Eh]
	 Opposite-Spin Energy      =      -0.2375112003259899 [Eh]
	 Correlation Energy        =      -0.3058405605268246 [Eh]
	 Total Energy              =     -90.7643884492212152 [Eh]

	 ================> DF-SCS-MP2 Energies <==================
	-----------------------------------------------------------
	 SCS Same-Spin Scale       =       0.3333333333333333 [-]
	 SCS Opposite-Spin Scale   =       1.2000000000000000 [-]
	 SCS Same-Spin Energy      =      -0.0227764534002782 [Eh]
	 SCS Opposite-Spin Energy  =      -0.2850134403911879 [Eh]
	 SCS Correlation Energy    =      -0.3077898937914661 [Eh]
	 SCS Total Energy          =     -90.7663377824858628 [Eh]
	-----------------------------------------------------------

*** Psi4 exiting successfully. Buy a developer a beer!
