                               Psi4 1.8.2 release

  ==> Input File <==

--------------------------------------------------------------------------
MEMORY 60 GB

molecule dimer {
0 1
O      0.000000     0.000000     0.000000
H     -0.588538     0.000000     0.756918
H     -0.588538     0.000000    -0.756918
--
1 1
Li     1.832821     1.832821     0.000000
--
1 1
Li     1.832821    -1.832821     0.000000

units ang
no_reorient
no_com
symmetry c1
}

set {
basis        aug-cc-pVTZ
scf_type     df
}

energy("mp2", bsse_type="cp")
--------------------------------------------------------------------------

                               Psi4 1.8.2 release
    Molecular point group: c1
  Charge       = 0
  Multiplicity = 1
  Basis Set: AUG-CC-PVTZ
    Blend: AUG-CC-PVTZ
  Basis Set: (AUG-CC-PVTZ AUX)
    Blend: AUG-CC-PVTZ-JKFIT + DEF2-UNIVERSAL-JKFIT
  @DF-RHF Final Energy:   -76.06058611142562
    Total Energy =                        -76.0605861114256214
 Dipole X            :          1.4427051           -2.2243513           -0.7816462
 Dipole Y            :         -0.0000000            0.0000000           -0.0000000
 Dipole Z            :         -0.0000000            0.0000000           -0.0000000
 Magnitude           :                                                    0.7816462
  Basis Set: (AUG-CC-PVTZ AUX)
    Blend: AUG-CC-PVTZ-RI + DEF2-QZVPP-RI
	 Reference Energy          =     -76.0605861114256214 [Eh]
	 Singles Energy            =      -0.0000000000000000 [Eh]
	 Same-Spin Energy          =      -0.0684256217556655 [Eh]
	 Opposite-Spin Energy      =      -0.2157126196185769 [Eh]
	 Correlation Energy        =      -0.2841382413742424 [Eh]
	 Total Energy              =     -76.3447243527998580 [Eh]
	 SCS Total Energy          =     -76.3422497955531298 [Eh]
                               Psi4 1.8.2 release
    Molecular point group: c1
  Basis Set: AUG-CC-PVTZ
    Blend: AUG-CC-PVTZ
  Basis Set: (AUG-CC-PVTZ AUX)
    Blend: AUG-CC-PVTZ-JKFIT + DEF2-UNIVERSAL-JKFIT
  @DF-RHF Final Energy:    -7.23638327052975
    Total Energy =                         -7.2363832705297488
  Basis Set: (AUG-CC-PVTZ AUX)
                               Psi4 1.8.2 release
  @DF-RHF Final Energy:   -14.32846510867319
    Total Energy =                        -14.3284651086731927
                               Psi4 1.8.2 release
  @DF-RHF Final Energy:   -83.33063558298468
    Total Energy =                        -83.3306355829846837
                               Psi4 1.8.2 release
  @DF-RHF Final Energy:   -83.33063558298487
    Total Energy =                        -83.3306355829848684
                               Psi4 1.8.2 release
  Multiplicity = 1
  @DF-RHF Final Energy:    -7.23638327052965
    Total Energy =                         -7.2363832705296520
	 Singles Energy            =      -0.0000000000000000 [Eh]
	 Same-Spin Energy          =       0.0000000000000000 [Eh]
	 Opposite-Spin Energy      =      -0.0118327341105427 [Eh]
	 Correlation Energy        =      -0.0118327341105427 [Eh]
	 Total Energy              =      -7.2482160046401951 [Eh]
	 SCS Total Energy          =      -7.2505825514623030 [Eh]
                               Psi4 1.8.2 release
    Molecular point group: c1

    Geometry (in Bohr), charge = 2, multiplicity = 1:

       Center              X                  Y                   Z               Mass
    ------------   -----------------  -----------------  -----------------  -----------------
         O            0.000000000000     0.000000000000     0.000000000000    15.994914619570
         H           -1.112175634425     0.000000000000     1.430367719429     1.007825032230
         H           -1.112175634425     0.000000000000    -1.430367719429     1.007825032230
         LI           3.463529726988     3.463529726988     0.000000000000     7.016003436600
         LI           3.463529726988    -3.463529726988     0.000000000000     7.016003436600

  Charge       = 2
  Multiplicity = 1
  Basis Set: AUG-CC-PVTZ
    Blend: AUG-CC-PVTZ
  Basis Set: (AUG-CC-PVTZ AUX)
    Blend: AUG-CC-PVTZ-JKFIT + DEF2-UNIVERSAL-JKFIT

    Orbital Energies [Eh]
    ---------------------

    Doubly Occupied:

       1A    -20.957866     2A     -2.893973     3A     -2.893965
       4A     -1.741475     5A     -1.101853     6A     -0.991123
       7A     -0.907569

  @DF-RHF Final Energy:   -90.45633800839782

   => Energetics <=

    Nuclear Repulsion Energy =             22.3080042088572839
    One-Electron Energy =                -162.5530342578205136
    Two-Electron Energy =                  49.7886920405654081
    Total Energy =                        -90.4563380083978217
 Dipole X            :        -12.8982135           18.5568271            5.6586136
 Dipole Y            :          0.0000000            0.0000000            0.0000000
 Dipole Z            :         -0.0000000            0.0000000           -0.0000000
 Magnitude           :                                                    5.6586136
  Basis Set: (AUG-CC-PVTZ AUX)
    Blend: AUG-CC-PVTZ-RI + DEF2-QZVPP-RI
	 Reference Energy          =     -90.4563380083978217 [Eh]
	 Singles Energy            =      -0.0000000000000000 [Eh]
	 Same-Spin Energy          =      -0.0682760045501186 [Eh]
	 Opposite-Spin Energy      =      -0.2383080719632664 [Eh]
	 Correlation Energy        =      -0.3065840765133850 [Eh]
	 Total Energy              =     -90.7629220849112102 [Eh]

	 ================> DF-SCS-MP2 Energies <==================
	-----------------------------------------------------------
	 SCS Same-Spin Scale       =       0.3333333333333333 [-]
	 SCS Opposite-Spin Scale   =       1.2000000000000000 [-]
	 SCS Same-Spin Energy      =      -0.0227586681833729 [Eh]
	 SCS Opposite-Spin Energy  =      -0.2859696863559197 [Eh]
	 SCS Correlation Energy    =      -0.3087283545392925 [Eh]
	 SCS Total Energy          =     -90.7650663629371195 [Eh]
	-----------------------------------------------------------

*** Psi4 exiting successfully. Buy a developer a beer!
