                               Psi4 1.8.2 release

  ==> Input File <==

--------------------------------------------------------------------------
MEMORY 60 GB

molecule dimer {
0 1
O          0.000000     0.000000     0.000000
H         -0.588538     0.000000     0.756918
H         -0.588538     0.000000    -0.756918
Gh(Li)     1.527351     1.527351     0.000000
Gh(Li)     1.527351    -1.527351     0.000000

units ang
no_reorient
no_com
symmetry c1
}

set {
basis        aug-cc-pVTZ
scf_type     df
}

energy("mp2")
--------------------------------------------------------------------------

    Molecular point group: c1

    Geometry (in Angstrom), charge = 0, multiplicity = 1:

       Center              X                  Y                   Z               Mass
    ------------   -----------------  -----------------  -----------------  -----------------
         O            0.000000000000     0.000000000000     0.000000000000    15.994914619570
         H           -0.588538000000     0.000000000000     0.756918000000     1.007825032230
         H           -0.588538000000     0.000000000000    -0.756918000000     1.007825032230
      Gh(LI)          1.527351000000     1.527351000000     0.000000000000     7.016003436600
      Gh(LI)          1.527351000000    -1.527351000000     0.000000000000     7.016003436600

  Charge       = 0
  Multiplicity = 1
  Basis Set: AUG-CC-PVTZ
    Blend: AUG-CC-PVTZ
  Basis Set: (AUG-CC-PVTZ AUX)
    Blend: AUG-CC-PVTZ-JKFIT + DEF2-UNIVERSAL-JKFIT

    Orbital Energies [Eh]
    ---------------------

    Doubly Occupied:

       1A    -20.567339     2A     -1.352836     3A     -0.716375
       4A     -0.585029     5A     -0.510265

  @DF-RHF Final Energy:   -76.06063180097649

   => Energetics <=

    Nuclear Repulsion Energy =              9.1801978479270687
    One-Electron Energy =                -123.0179694492042728
    Two-Electron Energy =                  37.7771398003007164
    Total Energy =                        -76.0606318009764948
 Dipole X            :          1.4428596           -2.2243513           -0.7814917
 Dipole Y            :         -0.0000000            0.0000000           -0.0000000
 Dipole Z            :          0.0000000            0.0000000            0.0000000
 Magnitude           :                                                    0.7814917
  Basis Set: (AUG-CC-PVTZ AUX)
    Blend: AUG-CC-PVTZ-RI + DEF2-QZVPP-RI
	 Reference Energy          =     -76.0606318009764948 [Eh]
	 Singles Energy            =      -0.0000000000000000 [Eh]
	 Same-Spin Energy          =      -0.0684513705275920 [Eh]
	 Opposite-Spin Energy      =      -0.2159676298326610 [Eh]
	 Correlation Energy        =      -0.2844190003602530 [Eh]
	 Total Energy              =     -76.3450508013367539 [Eh]

	 ================> DF-SCS-MP2 Energies <==================
	-----------------------------------------------------------
	 SCS Same-Spin Scale       =       0.3333333333333333 [-]
	 SCS Opposite-Spin Scale   =       1.2000000000000000 [-]
	 SCS Same-Spin Energy      =      -0.0228171235091973 [Eh]
	 SCS Opposite-Spin Energy  =      -0.2591611557991932 [Eh]
	 SCS Correlation Energy    =      -0.2819782793083905 [Eh]
	 SCS Total Energy          =     -76.3426100802848850 [Eh]
	-----------------------------------------------------------

*** Psi4 exiting successfully. Buy a developer a beer!
