                               Psi4 1.8.2 release

  ==> Input File <==

--------------------------------------------------------------------------
MEMORY 60 GB

molecule dimer {
2 1
O          0.000000     0.000000     0.000000
H         -0.588538     0.000000     0.756918
H         -0.588538     0.000000    -0.756918
Li         3.054701     3.054701     0.000000
Li         3.054701    -3.054701     0.000000

units ang
no_reorient
no_com
symmetry c1
}

set {
basis        aug-cc-pVTZ
scf_type     df
}

energy("mp2")
--------------------------------------------------------------------------

    Molecular point group: c1

    Geometry (in Angstrom), charge = 2, multiplicity = 1:

       Center              X                  Y                   Z               Mass
    ------------   -----------------  -----------------  -----------------  -----------------
         O            0.000000000000     0.000000000000     0.000000000000    15.994914619570
         H           -0.588538000000     0.000000000000     0.756918000000     1.007825032230
         H           -0.588538000000     0.000000000000    -0.756918000000     1.007825032230
         LI           3.054701000000     3.054701000000     0.000000000000     7.016003436600
         LI           3.054701000000    -3.054701000000     0.000000000000     7.016003436600

  Charge       = 2
  Multiplicity = 1
  Basis Set: AUG-CC-PVTZ
    Blend: AUG-CC-PVTZ
  Basis Set: (AUG-CC-PVTZ AUX)
    Blend: AUG-CC-PVTZ-JKFIT + DEF2-UNIVERSAL-JKFIT

    Orbital Energies [Eh]
    ---------------------

    Doubly Occupied:

       1A    -20.804225     2A     -2.867490     3A     -2.867489
       4A     -1.589702     5A     -0.952757     6A     -0.827980
       7A     -0.749663

  @DF-RHF Final Energy:   -90.46755162618430

   => Energetics <=

    Nuclear Repulsion Energy =             17.1585152621451691
    One-Electron Energy =                -153.9335180386580362
    Two-Electron Energy =                  46.3074511503285748
    Total Energy =                        -90.4675516261843029
 Dipole X            :        -21.8318210           32.4109384           10.5791174
 Dipole Y            :          0.0000000            0.0000000            0.0000000
 Dipole Z            :          0.0000000            0.0000000            0.0000000
 Magnitude           :                                                   10.5791174
  Basis Set: (AUG-CC-PVTZ AUX)
    Blend: AUG-CC-PVTZ-RI + DEF2-QZVPP-RI
	 Reference Energy          =     -90.4675516261843029 [Eh]
	 Singles Energy            =      -0.0000000000000000 [Eh]
	 Same-Spin Energy          =      -0.0682666459012001 [Eh]
	 Opposite-Spin Energy      =      -0.2369030425410165 [Eh]
	 Correlation Energy        =      -0.3051696884422166 [Eh]
	 Total Energy              =     -90.7727213146265228 [Eh]

	 ================> DF-SCS-MP2 Energies <==================
	-----------------------------------------------------------
	 SCS Same-Spin Scale       =       0.3333333333333333 [-]
	 SCS Opposite-Spin Scale   =       1.2000000000000000 [-]
	 SCS Same-Spin Energy      =      -0.0227555486337334 [Eh]
	 SCS Opposite-Spin Energy  =      -0.2842836510492198 [Eh]
	 SCS Correlation Energy    =      -0.3070391996829532 [Eh]
	 SCS Total Energy          =     -90.7745908258672500 [Eh]
	-----------------------------------------------------------

*** Psi4 exiting successfully. Buy a developer a beer!
