                               Psi4 1.8.2 release

  ==> Input File <==

--------------------------------------------------------------------------
MEMORY 60 GB

molecule dimer {
0 1
O      0.000000     0.000000     0.000000
H     -0.588538     0.000000     0.756918
H     -0.588538     0.000000    -0.756918
--
1 1
Na     3.422397     3.422397     0.000000
--
1 1
Na     3.422397    -3.422397     0.000000

units ang
no_reorient
no_com
symmetry c1
}

set {
basis        aug-cc-pVTZ
scf_type     df
}

energy("mp2", bsse_type="cp")
--------------------------------------------------------------------------

                               Psi4 1.8.2 release
    Molecular point group: c1
  Charge       = 0
  Multiplicity = 1
  Basis Set: AUG-CC-PVTZ
    Blend: AUG-CC-PVTZ
  Basis Set: (AUG-CC-PVTZ AUX)
    Blend: AUG-CC-PVTZ-JKFIT + DEF2-UNIVERSAL-JKFIT
  @DF-RHF Final Energy:   -76.06048997330900
    Total Energy =                        -76.0604899733090036
 Dipole X            :          1.4417406           -2.2243513           -0.7826107
 Dipole Y            :         -0.0000000            0.0000000           -0.0000000
 Dipole Z            :         -0.0000000            0.0000000           -0.0000000
 Magnitude           :                                                    0.7826107
  Basis Set: (AUG-CC-PVTZ AUX)
    Blend: AUG-CC-PVTZ-RI + DEF2-QZVPP-RI
	 Reference Energy          =     -76.0604899733090036 [Eh]
	 Singles Energy            =      -0.0000000000000000 [Eh]
	 Same-Spin Energy          =      -0.0683749969438290 [Eh]
	 Opposite-Spin Energy      =      -0.2153061385142453 [Eh]
	 Correlation Energy        =      -0.2836811354580742 [Eh]
	 Total Energy              =     -76.3441711087670711 [Eh]
	 SCS Total Energy          =     -76.3416490051740340 [Eh]
                               Psi4 1.8.2 release
    Molecular point group: c1
  Basis Set: AUG-CC-PVTZ
    Blend: AUG-CC-PVTZ
  Basis Set: (AUG-CC-PVTZ AUX)
    Blend: AUG-CC-PVTZ-JKFIT + DEF2-UNIVERSAL-JKFIT
  @DF-RHF Final Energy:  -161.67602610515803
    Total Energy =                       -161.6760261051580301
  Basis Set: (AUG-CC-PVTZ AUX)
                               Psi4 1.8.2 release
  @DF-RHF Final Energy:  -323.27475502420378
    Total Energy =                       -323.2747550242037846
                               Psi4 1.8.2 release
  @DF-RHF Final Energy:  -237.74457497587971
    Total Energy =                       -237.7445749758797433
                               Psi4 1.8.2 release
  @DF-RHF Final Energy:  -237.74457497586965
    Total Energy =                       -237.7445749758696820
                               Psi4 1.8.2 release
  Multiplicity = 1
  @DF-RHF Final Energy:  -161.67602610516622
    Total Energy =                       -161.6760261051662155
	 Singles Energy            =      -0.0000000000000000 [Eh]
	 Same-Spin Energy          =      -0.0019586457623299 [Eh]
	 Opposite-Spin Energy      =      -0.0079174772585509 [Eh]
	 Correlation Energy        =      -0.0098761230208808 [Eh]
	 Total Energy              =    -161.6859022281871034 [Eh]
	 SCS Total Energy          =    -161.6861799597972436 [Eh]
                               Psi4 1.8.2 release
    Molecular point group: c1

    Geometry (in Bohr), charge = 2, multiplicity = 1:

       Center              X                  Y                   Z               Mass
    ------------   -----------------  -----------------  -----------------  -----------------
         O            0.000000000000     0.000000000000     0.000000000000    15.994914619570
         H           -1.112175634425     0.000000000000     1.430367719429     1.007825032230
         H           -1.112175634425     0.000000000000    -1.430367719429     1.007825032230
         NA           6.467393022588     6.467393022588     0.000000000000    22.989769282000
         NA           6.467393022588    -6.467393022588     0.000000000000    22.989769282000

  Charge       = 2
  Multiplicity = 1
  Basis Set: AUG-CC-PVTZ
    Blend: AUG-CC-PVTZ
  Basis Set: (AUG-CC-PVTZ AUX)
    Blend: AUG-CC-PVTZ-JKFIT + DEF2-UNIVERSAL-JKFIT

    Orbital Energies [Eh]
    ---------------------

    Doubly Occupied:

       1A    -40.832303     2A    -40.832303     3A    -20.779093
       4A     -3.143912     5A     -3.143912     6A     -1.867174
       7A     -1.867173     8A     -1.867036     9A     -1.867036
      10A     -1.866968    11A     -1.866968    12A     -1.564728
      13A     -0.927964    14A     -0.801766    15A     -0.724143

  @DF-RHF Final Energy:  -399.35141038632634

   => Energetics <=

    Nuclear Repulsion Energy =             42.1488038380125403
    One-Electron Energy =                -635.0954658126111099
    Two-Electron Energy =                 193.5952515882721912
    Total Energy =                       -399.3514103863263927
 Dipole X            :       -128.0514377          140.0582952           12.0068576
 Dipole Y            :          0.0000000            0.0000000            0.0000000
 Dipole Z            :         -0.0000000            0.0000000           -0.0000000
 Magnitude           :                                                   12.0068576
  Basis Set: (AUG-CC-PVTZ AUX)
    Blend: AUG-CC-PVTZ-RI + DEF2-QZVPP-RI
	 Reference Energy          =    -399.3514103863263358 [Eh]
	 Singles Energy            =      -0.0000000000000000 [Eh]
	 Same-Spin Energy          =      -0.0721873296230869 [Eh]
	 Opposite-Spin Energy      =      -0.2306419764874964 [Eh]
	 Correlation Energy        =      -0.3028293061105833 [Eh]
	 Total Energy              =    -399.6542396924369314 [Eh]

	 ================> DF-SCS-MP2 Energies <==================
	-----------------------------------------------------------
	 SCS Same-Spin Scale       =       0.3333333333333333 [-]
	 SCS Opposite-Spin Scale   =       1.2000000000000000 [-]
	 SCS Same-Spin Energy      =      -0.0240624432076956 [Eh]
	 SCS Opposite-Spin Energy  =      -0.2767703717849957 [Eh]
	 SCS Correlation Energy    =      -0.3008328149926913 [Eh]
	 SCS Total Energy          =    -399.6522432013190382 [Eh]
	-----------------------------------------------------------

*** Psi4 exiting successfully. Buy a developer a beer!
