                               Psi4 1.8.2 release

  ==> Input File <==

--------------------------------------------------------------------------
MEMORY 60 GB

molecule dimer {
0 1
O      0.000000     0.000000     0.000000
H     -0.588538     0.000000     0.756918
H     -0.588538     0.000000    -0.756918
--
1 1
Na     2.224558     2.224558     0.000000
--
1 1
Na     2.224558    -2.224558     0.000000

units ang
no_reorient
no_com
symmetry c1
}

set {
basis        aug-cc-pVTZ
scf_type     df
}

energy("mp2", bsse_type="cp")
--------------------------------------------------------------------------

                               Psi4 1.8.2 release
    Molecular point group: c1
  Charge       = 0
  Multiplicity = 1
  Basis Set: AUG-CC-PVTZ
    Blend: AUG-CC-PVTZ
  Basis Set: (AUG-CC-PVTZ AUX)
    Blend: AUG-CC-PVTZ-JKFIT + DEF2-UNIVERSAL-JKFIT
  @DF-RHF Final Energy:   -76.06052687939224
    Total Energy =                        -76.0605268793922562
 Dipole X            :          1.4422690           -2.2243513           -0.7820822
 Dipole Y            :         -0.0000000            0.0000000           -0.0000000
 Dipole Z            :          0.0000000            0.0000000            0.0000000
 Magnitude           :                                                    0.7820822
  Basis Set: (AUG-CC-PVTZ AUX)
    Blend: AUG-CC-PVTZ-RI + DEF2-QZVPP-RI
	 Reference Energy          =     -76.0605268793922420 [Eh]
	 Singles Energy            =      -0.0000000000000000 [Eh]
	 Same-Spin Energy          =      -0.0684062613480950 [Eh]
	 Opposite-Spin Energy      =      -0.2155197605732390 [Eh]
	 Correlation Energy        =      -0.2839260219213340 [Eh]
	 Total Energy              =     -76.3444529013135735 [Eh]
	 SCS Total Energy          =     -76.3419526791961545 [Eh]
                               Psi4 1.8.2 release
    Molecular point group: c1
  Basis Set: AUG-CC-PVTZ
    Blend: AUG-CC-PVTZ
  Basis Set: (AUG-CC-PVTZ AUX)
    Blend: AUG-CC-PVTZ-JKFIT + DEF2-UNIVERSAL-JKFIT
  @DF-RHF Final Energy:  -161.67603505436759
    Total Energy =                       -161.6760350543675884
  Basis Set: (AUG-CC-PVTZ AUX)
                               Psi4 1.8.2 release
  @DF-RHF Final Energy:  -323.23320739236391
    Total Energy =                       -323.2332073923639655
                               Psi4 1.8.2 release
  @DF-RHF Final Energy:  -237.75794567204301
    Total Energy =                       -237.7579456720430073
                               Psi4 1.8.2 release
  @DF-RHF Final Energy:  -237.75794567204991
    Total Energy =                       -237.7579456720499138
                               Psi4 1.8.2 release
  Multiplicity = 1
  @DF-RHF Final Energy:  -161.67603505436367
    Total Energy =                       -161.6760350543636662
	 Singles Energy            =      -0.0000000000000000 [Eh]
	 Same-Spin Energy          =      -0.0022729545183790 [Eh]
	 Opposite-Spin Energy      =      -0.0087950875664427 [Eh]
	 Correlation Energy        =      -0.0110680420848217 [Eh]
	 Total Energy              =    -161.6871030964484817 [Eh]
	 SCS Total Energy          =    -161.6873468109495207 [Eh]
                               Psi4 1.8.2 release
    Molecular point group: c1

    Geometry (in Bohr), charge = 2, multiplicity = 1:

       Center              X                  Y                   Z               Mass
    ------------   -----------------  -----------------  -----------------  -----------------
         O            0.000000000000     0.000000000000     0.000000000000    15.994914619570
         H           -1.112175634425     0.000000000000     1.430367719429     1.007825032230
         H           -1.112175634425     0.000000000000    -1.430367719429     1.007825032230
         NA           4.203805370196     4.203805370196     0.000000000000    22.989769282000
         NA           4.203805370196    -4.203805370196     0.000000000000    22.989769282000

  Charge       = 2
  Multiplicity = 1
  Basis Set: AUG-CC-PVTZ
    Blend: AUG-CC-PVTZ
  Basis Set: (AUG-CC-PVTZ AUX)
    Blend: AUG-CC-PVTZ-JKFIT + DEF2-UNIVERSAL-JKFIT

    Orbital Energies [Eh]
    ---------------------

    Doubly Occupied:

       1A    -40.856425     2A    -40.856425     3A    -20.890245
       4A     -3.168508     5A     -3.168508     6A     -1.892114
       7A     -1.892099     8A     -1.891728     9A     -1.891727
      10A     -1.891218    11A     -1.891207    12A     -1.675008
      13A     -1.036946    14A     -0.918878    15A     -0.837853

  @DF-RHF Final Energy:  -399.33654521629148

   => Energetics <=

    Nuclear Repulsion Energy =             59.5285751727497399
    One-Electron Energy =                -668.2124558564165682
    Two-Electron Energy =                 209.3473354673754159
    Total Energy =                       -399.3365452162914835
 Dipole X            :        -82.9758612           90.2593669            7.2835057
 Dipole Y            :         -0.0000000            0.0000000           -0.0000000
 Dipole Z            :          0.0000000            0.0000000            0.0000000
 Magnitude           :                                                    7.2835057
  Basis Set: (AUG-CC-PVTZ AUX)
    Blend: AUG-CC-PVTZ-RI + DEF2-QZVPP-RI
	 Reference Energy          =    -399.3365452162914835 [Eh]
	 Singles Energy            =      -0.0000000000000000 [Eh]
	 Same-Spin Energy          =      -0.0728659371737961 [Eh]
	 Opposite-Spin Energy      =      -0.2322944429037719 [Eh]
	 Correlation Energy        =      -0.3051603800775680 [Eh]
	 Total Energy              =    -399.6417055963690359 [Eh]

	 ================> DF-SCS-MP2 Energies <==================
	-----------------------------------------------------------
	 SCS Same-Spin Scale       =       0.3333333333333333 [-]
	 SCS Opposite-Spin Scale   =       1.2000000000000000 [-]
	 SCS Same-Spin Energy      =      -0.0242886457245987 [Eh]
	 SCS Opposite-Spin Energy  =      -0.2787533314845262 [Eh]
	 SCS Correlation Energy    =      -0.3030419772091250 [Eh]
	 SCS Total Energy          =    -399.6395871935006312 [Eh]
	-----------------------------------------------------------

*** Psi4 exiting successfully. Buy a developer a beer!
