                               Psi4 1.9 release

  ==> Input File <==

--------------------------------------------------------------------------
MEMORY 60 GB

molecule dimer {
0 1
O      0.000000     0.000000     0.000000
H     -0.588538     0.000000     0.756918
H     -0.588538     0.000000    -0.756918
--
2 1
Na     2.224558     2.224558     0.000000
Na     2.224558    -2.224558     0.000000

units ang
no_reorient
no_com
symmetry c1
}

set {
basis        aug-cc-pVTZ
scf_type     df
}

energy("mp2", bsse_type="cp")
--------------------------------------------------------------------------

                               Psi4 1.9 release
    Molecular point group: c1
  Charge       = 2
  Multiplicity = 1
  Basis Set: AUG-CC-PVTZ
    Blend: AUG-CC-PVTZ
  Basis Set: (AUG-CC-PVTZ AUX)
    Blend: AUG-CC-PVTZ-JKFIT + DEF2-UNIVERSAL-JKFIT
  @DF-RHF Final Energy:  -323.23320739228365
    Total Energy =                       -323.2332073922836457
 Dipole X            :        -84.0765575           92.4837181            8.4071607
 Dipole Y            :         -0.0000000            0.0000000           -0.0000000
 Dipole Z            :          0.0000000            0.0000000            0.0000000
 Magnitude           :                                                    8.4071607
  Basis Set: (AUG-CC-PVTZ AUX)
    Blend: AUG-CC-PVTZ-RI + DEF2-QZVPP-RI
	 Reference Energy          =    -323.2332073922836457 [Eh]
	 Singles Energy            =      -0.0000000000000000 [Eh]
	 Same-Spin Energy          =      -0.0045557975483768 [Eh]
	 Opposite-Spin Energy      =      -0.0176129038758448 [Eh]
	 Correlation Energy        =      -0.0221687014242216 [Eh]
	 Total Energy              =    -323.2553760937078664 [Eh]
	 SCS Total Energy          =    -323.2558614761174454 [Eh]
                               Psi4 1.9 release
    Molecular point group: c1
  Multiplicity = 1
  Basis Set: AUG-CC-PVTZ
    Blend: AUG-CC-PVTZ
  Basis Set: (AUG-CC-PVTZ AUX)
    Blend: AUG-CC-PVTZ-JKFIT + DEF2-UNIVERSAL-JKFIT
  @DF-RHF Final Energy:   -76.06052687940291
    Total Energy =                        -76.0605268794029143
  Basis Set: (AUG-CC-PVTZ AUX)
	 Singles Energy            =      -0.0000000000000000 [Eh]
	 Same-Spin Energy          =      -0.0684062613480808 [Eh]
	 Opposite-Spin Energy      =      -0.2155197605732435 [Eh]
	 Correlation Energy        =      -0.2839260219213243 [Eh]
	 Total Energy              =     -76.3444529013242317 [Eh]
	 SCS Total Energy          =     -76.3419526792068268 [Eh]
                               Psi4 1.9 release
    Molecular point group: c1

    Geometry (in Bohr), charge = 2, multiplicity = 1:

       Center              X                  Y                   Z               Mass
    ------------   -----------------  -----------------  -----------------  -----------------
         O            0.000000000000     0.000000000000     0.000000000000    15.994914619570
         H           -1.112175634425     0.000000000000     1.430367719429     1.007825032230
         H           -1.112175634425     0.000000000000    -1.430367719429     1.007825032230
         NA           4.203805370196     4.203805370196     0.000000000000    22.989769282000
         NA           4.203805370196    -4.203805370196     0.000000000000    22.989769282000

  Charge       = 2
  Multiplicity = 1
  Basis Set: AUG-CC-PVTZ
    Blend: AUG-CC-PVTZ
  Basis Set: (AUG-CC-PVTZ AUX)
    Blend: AUG-CC-PVTZ-JKFIT + DEF2-UNIVERSAL-JKFIT

    Orbital Energies [Eh]
    ---------------------

    Doubly Occupied:

       1A    -40.856425     2A    -40.856425     3A    -20.890245
       4A     -3.168508     5A     -3.168508     6A     -1.892114
       7A     -1.892099     8A     -1.891728     9A     -1.891727
      10A     -1.891218    11A     -1.891207    12A     -1.675008
      13A     -1.036946    14A     -0.918878    15A     -0.837853

  @DF-RHF Final Energy:  -399.33654521620997

   => Energetics <=

    Nuclear Repulsion Energy =             59.5285751727497399
    One-Electron Energy =                -668.2124558564187282
    Two-Electron Energy =                 209.3473354674590610
    Total Energy =                       -399.3365452162099700
 Dipole X            :        -82.9758612           90.2593669            7.2835057
 Dipole Y            :         -0.0000000            0.0000000           -0.0000000
 Dipole Z            :          0.0000000            0.0000000            0.0000000
 Magnitude           :                                                    7.2835057
  Basis Set: (AUG-CC-PVTZ AUX)
    Blend: AUG-CC-PVTZ-RI + DEF2-QZVPP-RI
	 Reference Energy          =    -399.3365452162099700 [Eh]
	 Singles Energy            =      -0.0000000000000000 [Eh]
	 Same-Spin Energy          =      -0.0728659371738437 [Eh]
	 Opposite-Spin Energy      =      -0.2322944429039492 [Eh]
	 Correlation Energy        =      -0.3051603800777929 [Eh]
	 Total Energy              =    -399.6417055962877498 [Eh]

	 ================> DF-SCS-MP2 Energies <==================
	-----------------------------------------------------------
	 SCS Same-Spin Scale       =       0.3333333333333333 [-]
	 SCS Opposite-Spin Scale   =       1.2000000000000000 [-]
	 SCS Same-Spin Energy      =      -0.0242886457246146 [Eh]
	 SCS Opposite-Spin Energy  =      -0.2787533314847391 [Eh]
	 SCS Correlation Energy    =      -0.3030419772093537 [Eh]
	 SCS Total Energy          =    -399.6395871934193451 [Eh]
	-----------------------------------------------------------

*** Psi4 exiting successfully. Buy a developer a beer!
