                               Psi4 1.8.2 release

  ==> Input File <==

--------------------------------------------------------------------------
MEMORY 60 GB

molecule dimer {
1 1
Gh(O)      0.000000     0.000000     0.000000
Gh(H)     -0.588538     0.000000     0.756918
Gh(H)     -0.588538     0.000000    -0.756918
Na         2.053438     2.053438     0.000000
Gh(Na)     2.053438    -2.053438     0.000000

units ang
no_reorient
no_com
symmetry c1
}

set {
basis        aug-cc-pVTZ
scf_type     df
}

energy("mp2")
--------------------------------------------------------------------------

    Molecular point group: c1

    Geometry (in Angstrom), charge = 1, multiplicity = 1:

       Center              X                  Y                   Z               Mass
    ------------   -----------------  -----------------  -----------------  -----------------
      Gh(O)           0.000000000000     0.000000000000     0.000000000000    15.994914619570
      Gh(H)          -0.588538000000     0.000000000000     0.756918000000     1.007825032230
      Gh(H)          -0.588538000000     0.000000000000    -0.756918000000     1.007825032230
         NA           2.053438000000     2.053438000000     0.000000000000    22.989769282000
      Gh(NA)          2.053438000000    -2.053438000000     0.000000000000    22.989769282000

  Charge       = 1
  Multiplicity = 1
  Basis Set: AUG-CC-PVTZ
    Blend: AUG-CC-PVTZ
  Basis Set: (AUG-CC-PVTZ AUX)
    Blend: AUG-CC-PVTZ-JKFIT + DEF2-UNIVERSAL-JKFIT

    Orbital Energies [Eh]
    ---------------------

    Doubly Occupied:

       1A    -40.762998     2A     -3.074988     3A     -1.798244
       4A     -1.798160     5A     -1.798133

  @DF-RHF Final Energy:  -161.67603755325649

   => Energetics <=

    Nuclear Repulsion Energy =              0.0000000000000000
    One-Electron Energy =                -224.8870292191559201
    Two-Electron Energy =                  63.2109916658994280
    Total Energy =                       -161.6760375532564922
 Dipole X            :        -38.8047137           42.6847898            3.8800761
 Dipole Y            :        -38.8048078           42.6847898            3.8799820
 Dipole Z            :         -0.0000000            0.0000000           -0.0000000
 Magnitude           :                                                    5.4871897
  Basis Set: (AUG-CC-PVTZ AUX)
    Blend: AUG-CC-PVTZ-RI + DEF2-QZVPP-RI
	 Reference Energy          =    -161.6760375532564922 [Eh]
	 Singles Energy            =      -0.0000000000000000 [Eh]
	 Same-Spin Energy          =      -0.0023860081312962 [Eh]
	 Opposite-Spin Energy      =      -0.0091138178887181 [Eh]
	 Correlation Energy        =      -0.0114998260200143 [Eh]
	 Total Energy              =    -161.6875373792765060 [Eh]

	 ================> DF-SCS-MP2 Energies <==================
	-----------------------------------------------------------
	 SCS Same-Spin Scale       =       0.3333333333333333 [-]
	 SCS Opposite-Spin Scale   =       1.2000000000000000 [-]
	 SCS Same-Spin Energy      =      -0.0007953360437654 [Eh]
	 SCS Opposite-Spin Energy  =      -0.0109365814664617 [Eh]
	 SCS Correlation Energy    =      -0.0117319175102271 [Eh]
	 SCS Total Energy          =    -161.6877694707667104 [Eh]
	-----------------------------------------------------------

*** Psi4 exiting successfully. Buy a developer a beer!
