                               Psi4 1.9 release

  ==> Input File <==

--------------------------------------------------------------------------
MEMORY 60 GB

molecule dimer {
0 1
O      0.000000     0.000000     0.000000
H     -0.588538     0.000000     0.756918
H     -0.588538     0.000000    -0.756918
--
2 1
Na     2.053438     2.053438     0.000000
Na     2.053438    -2.053438     0.000000

units ang
no_reorient
no_com
symmetry c1
}

set {
basis        aug-cc-pVTZ
scf_type     df
}

energy("mp2", bsse_type="cp")
--------------------------------------------------------------------------

                               Psi4 1.9 release
    Molecular point group: c1
  Charge       = 2
  Multiplicity = 1
  Basis Set: AUG-CC-PVTZ
    Blend: AUG-CC-PVTZ
  Basis Set: (AUG-CC-PVTZ AUX)
    Blend: AUG-CC-PVTZ-JKFIT + DEF2-UNIVERSAL-JKFIT
  @DF-RHF Final Energy:  -323.22333493498161
    Total Energy =                       -323.2233349349816081
 Dipole X            :        -77.6090307           85.3695796            7.7605488
 Dipole Y            :         -0.0000000            0.0000000           -0.0000000
 Dipole Z            :         -0.0000000            0.0000000           -0.0000000
 Magnitude           :                                                    7.7605488
  Basis Set: (AUG-CC-PVTZ AUX)
    Blend: AUG-CC-PVTZ-RI + DEF2-QZVPP-RI
	 Reference Energy          =    -323.2233349349816081 [Eh]
	 Singles Energy            =      -0.0000000000000000 [Eh]
	 Same-Spin Energy          =      -0.0047861583453812 [Eh]
	 Opposite-Spin Energy      =      -0.0182597762864821 [Eh]
	 Correlation Energy        =      -0.0230459346318633 [Eh]
	 Total Energy              =    -323.2463808696134606 [Eh]
	 SCS Total Energy          =    -323.2468420526404884 [Eh]
                               Psi4 1.9 release
    Molecular point group: c1
  Multiplicity = 1
  Basis Set: AUG-CC-PVTZ
    Blend: AUG-CC-PVTZ
  Basis Set: (AUG-CC-PVTZ AUX)
    Blend: AUG-CC-PVTZ-JKFIT + DEF2-UNIVERSAL-JKFIT
  @DF-RHF Final Energy:   -76.06055553716098
    Total Energy =                        -76.0605555371609796
  Basis Set: (AUG-CC-PVTZ AUX)
	 Singles Energy            =      -0.0000000000000000 [Eh]
	 Same-Spin Energy          =      -0.0684174696132631 [Eh]
	 Opposite-Spin Energy      =      -0.2156111084841292 [Eh]
	 Correlation Energy        =      -0.2840285780973923 [Eh]
	 Total Energy              =     -76.3445841152583711 [Eh]
	 SCS Total Energy          =     -76.3420946905463609 [Eh]
                               Psi4 1.9 release
    Molecular point group: c1

    Geometry (in Bohr), charge = 2, multiplicity = 1:

       Center              X                  Y                   Z               Mass
    ------------   -----------------  -----------------  -----------------  -----------------
         O            0.000000000000     0.000000000000     0.000000000000    15.994914619570
         H           -1.112175634425     0.000000000000     1.430367719429     1.007825032230
         H           -1.112175634425     0.000000000000    -1.430367719429     1.007825032230
         NA           3.880435435608     3.880435435608     0.000000000000    22.989769282000
         NA           3.880435435608    -3.880435435608     0.000000000000    22.989769282000

  Charge       = 2
  Multiplicity = 1
  Basis Set: AUG-CC-PVTZ
    Blend: AUG-CC-PVTZ
  Basis Set: (AUG-CC-PVTZ AUX)
    Blend: AUG-CC-PVTZ-JKFIT + DEF2-UNIVERSAL-JKFIT

    Orbital Energies [Eh]
    ---------------------

    Doubly Occupied:

       1A    -40.860432     2A    -40.860432     3A    -20.914871
       4A     -3.172775     5A     -3.172774     6A     -1.896524
       7A     -1.896475     8A     -1.896046     9A     -1.896041
      10A     -1.895362    11A     -1.895319    12A     -1.699872
      13A     -1.061271    14A     -0.945983    15A     -0.864057

  @DF-RHF Final Energy:  -399.33447116443529

   => Energetics <=

    Nuclear Repulsion Energy =             63.6295114897106018
    One-Electron Energy =                -676.0714953085247316
    Two-Electron Energy =                 213.1075126543788656
    Total Energy =                       -399.3344711644352856
 Dipole X            :        -76.5538016           83.1452283            6.5914267
 Dipole Y            :         -0.0000000            0.0000000           -0.0000000
 Dipole Z            :         -0.0000000            0.0000000           -0.0000000
 Magnitude           :                                                    6.5914267
  Basis Set: (AUG-CC-PVTZ AUX)
    Blend: AUG-CC-PVTZ-RI + DEF2-QZVPP-RI
	 Reference Energy          =    -399.3344711644352856 [Eh]
	 Singles Energy            =      -0.0000000000000000 [Eh]
	 Same-Spin Energy          =      -0.0730672961613652 [Eh]
	 Opposite-Spin Energy      =      -0.2328242600957069 [Eh]
	 Correlation Energy        =      -0.3058915562570722 [Eh]
	 Total Energy              =    -399.6403627206923375 [Eh]

	 ================> DF-SCS-MP2 Energies <==================
	-----------------------------------------------------------
	 SCS Same-Spin Scale       =       0.3333333333333333 [-]
	 SCS Opposite-Spin Scale   =       1.2000000000000000 [-]
	 SCS Same-Spin Energy      =      -0.0243557653871217 [Eh]
	 SCS Opposite-Spin Energy  =      -0.2793891121148483 [Eh]
	 SCS Correlation Energy    =      -0.3037448775019701 [Eh]
	 SCS Total Energy          =    -399.6382160419372553 [Eh]
	-----------------------------------------------------------

*** Psi4 exiting successfully. Buy a developer a beer!
