                               Psi4 1.8.2 release

  ==> Input File <==

--------------------------------------------------------------------------
MEMORY 60 GB

molecule dimer {
1 1
Gh(O)      0.000000     0.000000     0.000000
Gh(H)     -0.588538     0.000000     0.756918
Gh(H)     -0.588538     0.000000    -0.756918
Na         2.566798     2.566798     0.000000
Gh(Na)     2.566798    -2.566798     0.000000

units ang
no_reorient
no_com
symmetry c1
}

set {
basis        aug-cc-pVTZ
scf_type     df
}

energy("mp2")
--------------------------------------------------------------------------

    Molecular point group: c1

    Geometry (in Angstrom), charge = 1, multiplicity = 1:

       Center              X                  Y                   Z               Mass
    ------------   -----------------  -----------------  -----------------  -----------------
      Gh(O)           0.000000000000     0.000000000000     0.000000000000    15.994914619570
      Gh(H)          -0.588538000000     0.000000000000     0.756918000000     1.007825032230
      Gh(H)          -0.588538000000     0.000000000000    -0.756918000000     1.007825032230
         NA           2.566798000000     2.566798000000     0.000000000000    22.989769282000
      Gh(NA)          2.566798000000    -2.566798000000     0.000000000000    22.989769282000

  Charge       = 1
  Multiplicity = 1
  Basis Set: AUG-CC-PVTZ
    Blend: AUG-CC-PVTZ
  Basis Set: (AUG-CC-PVTZ AUX)
    Blend: AUG-CC-PVTZ-JKFIT + DEF2-UNIVERSAL-JKFIT

    Orbital Energies [Eh]
    ---------------------

    Doubly Occupied:

       1A    -40.763363     2A     -3.075164     3A     -1.798386
       4A     -1.798315     5A     -1.798300

  @DF-RHF Final Energy:  -161.67603157059779

   => Energetics <=

    Nuclear Repulsion Energy =              0.0000000000000000
    One-Electron Energy =                -224.8850087643647555
    Two-Electron Energy =                  63.2089771937669767
    Total Energy =                       -161.6760315705977860
 Dipole X            :        -48.5056968           53.3559976            4.8503009
 Dipole Y            :        -48.5057870           53.3559976            4.8502107
 Dipole Z            :         -0.0000000            0.0000000           -0.0000000
 Magnitude           :                                                    6.8592975
  Basis Set: (AUG-CC-PVTZ AUX)
    Blend: AUG-CC-PVTZ-RI + DEF2-QZVPP-RI
	 Reference Energy          =    -161.6760315705977860 [Eh]
	 Singles Energy            =      -0.0000000000000000 [Eh]
	 Same-Spin Energy          =      -0.0020852161810799 [Eh]
	 Opposite-Spin Energy      =      -0.0082695380235336 [Eh]
	 Correlation Energy        =      -0.0103547542046136 [Eh]
	 Total Energy              =    -161.6863863248024131 [Eh]

	 ================> DF-SCS-MP2 Energies <==================
	-----------------------------------------------------------
	 SCS Same-Spin Scale       =       0.3333333333333333 [-]
	 SCS Opposite-Spin Scale   =       1.2000000000000000 [-]
	 SCS Same-Spin Energy      =      -0.0006950720603600 [Eh]
	 SCS Opposite-Spin Energy  =      -0.0099234456282403 [Eh]
	 SCS Correlation Energy    =      -0.0106185176886003 [Eh]
	 SCS Total Energy          =    -161.6866500882863988 [Eh]
	-----------------------------------------------------------

*** Psi4 exiting successfully. Buy a developer a beer!
