                               Psi4 1.8.2 release

  ==> Input File <==

--------------------------------------------------------------------------
MEMORY 60 GB

molecule dimer {
0 1
O      0.000000     0.000000     0.000000
H     -0.588538     0.000000     0.756918
H     -0.588538     0.000000    -0.756918
--
1 1
Na     1.882318     1.882318     0.000000
--
1 1
Na     1.882318    -1.882318     0.000000

units ang
no_reorient
no_com
symmetry c1
}

set {
basis        aug-cc-pVTZ
scf_type     df
}

energy("mp2", bsse_type="cp")
--------------------------------------------------------------------------

                               Psi4 1.8.2 release
    Molecular point group: c1
  Charge       = 0
  Multiplicity = 1
  Basis Set: AUG-CC-PVTZ
    Blend: AUG-CC-PVTZ
  Basis Set: (AUG-CC-PVTZ AUX)
    Blend: AUG-CC-PVTZ-JKFIT + DEF2-UNIVERSAL-JKFIT
  @DF-RHF Final Energy:   -76.06059530507680
    Total Energy =                        -76.0605953050768022
 Dipole X            :          1.4429804           -2.2243513           -0.7813709
 Dipole Y            :         -0.0000000            0.0000000           -0.0000000
 Dipole Z            :         -0.0000000            0.0000000           -0.0000000
 Magnitude           :                                                    0.7813709
  Basis Set: (AUG-CC-PVTZ AUX)
    Blend: AUG-CC-PVTZ-RI + DEF2-QZVPP-RI
	 Reference Energy          =     -76.0605953050768022 [Eh]
	 Singles Energy            =      -0.0000000000000000 [Eh]
	 Same-Spin Energy          =      -0.0684283505945211 [Eh]
	 Opposite-Spin Energy      =      -0.2157136745998005 [Eh]
	 Correlation Energy        =      -0.2841420251943216 [Eh]
	 Total Energy              =     -76.3447373302711298 [Eh]
	 SCS Total Energy          =     -76.3422611647947349 [Eh]
                               Psi4 1.8.2 release
    Molecular point group: c1
  Basis Set: AUG-CC-PVTZ
    Blend: AUG-CC-PVTZ
  Basis Set: (AUG-CC-PVTZ AUX)
    Blend: AUG-CC-PVTZ-JKFIT + DEF2-UNIVERSAL-JKFIT
  @DF-RHF Final Energy:  -161.67604255344668
    Total Energy =                       -161.6760425534466776
  Basis Set: (AUG-CC-PVTZ AUX)
                               Psi4 1.8.2 release
  @DF-RHF Final Energy:  -323.21168571348551
    Total Energy =                       -323.2116857134855081
                               Psi4 1.8.2 release
  @DF-RHF Final Energy:  -237.76617218740276
    Total Energy =                       -237.7661721874027592
                               Psi4 1.8.2 release
  @DF-RHF Final Energy:  -237.76617218744863
    Total Energy =                       -237.7661721874486318
                               Psi4 1.8.2 release
  Multiplicity = 1
  @DF-RHF Final Energy:  -161.67604255341541
    Total Energy =                       -161.6760425534154137
	 Singles Energy            =      -0.0000000000000000 [Eh]
	 Same-Spin Energy          =      -0.0024971622105809 [Eh]
	 Opposite-Spin Energy      =      -0.0094056519891431 [Eh]
	 Correlation Energy        =      -0.0119028141997241 [Eh]
	 Total Energy              =    -161.6879453676151286 [Eh]
	 SCS Total Energy          =    -161.6881617232059227 [Eh]
                               Psi4 1.8.2 release
    Molecular point group: c1

    Geometry (in Bohr), charge = 2, multiplicity = 1:

       Center              X                  Y                   Z               Mass
    ------------   -----------------  -----------------  -----------------  -----------------
         O            0.000000000000     0.000000000000     0.000000000000    15.994914619570
         H           -1.112175634425     0.000000000000     1.430367719429     1.007825032230
         H           -1.112175634425     0.000000000000    -1.430367719429     1.007825032230
         NA           3.557065501020     3.557065501020     0.000000000000    22.989769282000
         NA           3.557065501020    -3.557065501020     0.000000000000    22.989769282000

  Charge       = 2
  Multiplicity = 1
  Basis Set: AUG-CC-PVTZ
    Blend: AUG-CC-PVTZ
  Basis Set: (AUG-CC-PVTZ AUX)
    Blend: AUG-CC-PVTZ-JKFIT + DEF2-UNIVERSAL-JKFIT

    Orbital Energies [Eh]
    ---------------------

    Doubly Occupied:

       1A    -40.864282     2A    -40.864282     3A    -20.941690
       4A     -3.177232     5A     -3.177224     6A     -1.901191
       7A     -1.901030     8A     -1.900552     9A     -1.900536
      10A     -1.899801    11A     -1.899631    12A     -1.727733
      13A     -1.088395    14A     -0.976855    15A     -0.893795

  @DF-RHF Final Energy:  -399.33158828074318

   => Energetics <=

    Nuclear Repulsion Energy =             68.4584115226732308
    One-Electron Energy =                -685.3515362095222372
    Two-Electron Energy =                 217.5615364061058017
    Total Energy =                       -399.3315882807431763
 Dipole X            :        -70.1317406           76.0310898            5.8993491
 Dipole Y            :         -0.0000000            0.0000000           -0.0000000
 Dipole Z            :         -0.0000000            0.0000000           -0.0000000
 Magnitude           :                                                    5.8993491
  Basis Set: (AUG-CC-PVTZ AUX)
    Blend: AUG-CC-PVTZ-RI + DEF2-QZVPP-RI
	 Reference Energy          =    -399.3315882807431763 [Eh]
	 Singles Energy            =      -0.0000000000000000 [Eh]
	 Same-Spin Energy          =      -0.0732064988636287 [Eh]
	 Opposite-Spin Energy      =      -0.2331163286596120 [Eh]
	 Correlation Energy        =      -0.3063228275232407 [Eh]
	 Total Energy              =    -399.6379111082663940 [Eh]

	 ================> DF-SCS-MP2 Energies <==================
	-----------------------------------------------------------
	 SCS Same-Spin Scale       =       0.3333333333333333 [-]
	 SCS Opposite-Spin Scale   =       1.2000000000000000 [-]
	 SCS Same-Spin Energy      =      -0.0244021662878762 [Eh]
	 SCS Opposite-Spin Energy  =      -0.2797395943915343 [Eh]
	 SCS Correlation Energy    =      -0.3041417606794106 [Eh]
	 SCS Total Energy          =    -399.6357300414225620 [Eh]
	-----------------------------------------------------------

*** Psi4 exiting successfully. Buy a developer a beer!
