                               Psi4 1.8.2 release

  ==> Input File <==

--------------------------------------------------------------------------
MEMORY 60 GB

molecule dimer {
0 1
O          0.000000     0.000000     0.000000
H         -0.588538     0.000000     0.756918
H         -0.588538     0.000000    -0.756918
Gh(Na)     2.224558     2.224558     0.000000
Gh(Na)     2.224558    -2.224558     0.000000

units ang
no_reorient
no_com
symmetry c1
}

set {
basis        aug-cc-pVTZ
scf_type     df
}

energy("mp2")
--------------------------------------------------------------------------

    Molecular point group: c1

    Geometry (in Angstrom), charge = 0, multiplicity = 1:

       Center              X                  Y                   Z               Mass
    ------------   -----------------  -----------------  -----------------  -----------------
         O            0.000000000000     0.000000000000     0.000000000000    15.994914619570
         H           -0.588538000000     0.000000000000     0.756918000000     1.007825032230
         H           -0.588538000000     0.000000000000    -0.756918000000     1.007825032230
      Gh(NA)          2.224558000000     2.224558000000     0.000000000000    22.989769282000
      Gh(NA)          2.224558000000    -2.224558000000     0.000000000000    22.989769282000

  Charge       = 0
  Multiplicity = 1
  Basis Set: AUG-CC-PVTZ
    Blend: AUG-CC-PVTZ
  Basis Set: (AUG-CC-PVTZ AUX)
    Blend: AUG-CC-PVTZ-JKFIT + DEF2-UNIVERSAL-JKFIT

    Orbital Energies [Eh]
    ---------------------

    Doubly Occupied:

       1A    -20.567514     2A     -1.352936     3A     -0.716469
       4A     -0.585101     5A     -0.510295

  @DF-RHF Final Energy:   -76.06052687939217

   => Energetics <=

    Nuclear Repulsion Energy =              9.1801978479270687
    One-Electron Energy =                -123.0168171489789017
    Two-Electron Energy =                  37.7760924216596479
    Total Energy =                        -76.0605268793921709
 Dipole X            :          1.4422690           -2.2243513           -0.7820822
 Dipole Y            :         -0.0000000            0.0000000           -0.0000000
 Dipole Z            :          0.0000000            0.0000000            0.0000000
 Magnitude           :                                                    0.7820822
  Basis Set: (AUG-CC-PVTZ AUX)
    Blend: AUG-CC-PVTZ-RI + DEF2-QZVPP-RI
	 Reference Energy          =     -76.0605268793921709 [Eh]
	 Singles Energy            =      -0.0000000000000000 [Eh]
	 Same-Spin Energy          =      -0.0684062613480946 [Eh]
	 Opposite-Spin Energy      =      -0.2155197605732394 [Eh]
	 Correlation Energy        =      -0.2839260219213340 [Eh]
	 Total Energy              =     -76.3444529013135025 [Eh]

	 ================> DF-SCS-MP2 Energies <==================
	-----------------------------------------------------------
	 SCS Same-Spin Scale       =       0.3333333333333333 [-]
	 SCS Opposite-Spin Scale   =       1.2000000000000000 [-]
	 SCS Same-Spin Energy      =      -0.0228020871160315 [Eh]
	 SCS Opposite-Spin Energy  =      -0.2586237126878873 [Eh]
	 SCS Correlation Energy    =      -0.2814257998039188 [Eh]
	 SCS Total Energy          =     -76.3419526791960834 [Eh]
	-----------------------------------------------------------

*** Psi4 exiting successfully. Buy a developer a beer!
