                               Psi4 1.9 release

  ==> Input File <==

--------------------------------------------------------------------------
MEMORY 60 GB

molecule dimer {
0 1
O      0.000000     0.000000     0.000000
H     -0.588538     0.000000     0.756918
H     -0.588538     0.000000    -0.756918
--
2 1
Na     2.395678     2.395678     0.000000
Na     2.395678    -2.395678     0.000000

units ang
no_reorient
no_com
symmetry c1
}

set {
basis        aug-cc-pVTZ
scf_type     df
}

energy("mp2", bsse_type="cp")
--------------------------------------------------------------------------

                               Psi4 1.9 release
    Molecular point group: c1
  Charge       = 2
  Multiplicity = 1
  Basis Set: AUG-CC-PVTZ
    Blend: AUG-CC-PVTZ
  Basis Set: (AUG-CC-PVTZ AUX)
    Blend: AUG-CC-PVTZ-JKFIT + DEF2-UNIVERSAL-JKFIT
  @DF-RHF Final Energy:  -323.24167829760438
    Total Energy =                       -323.2416782976043805
 Dipole X            :        -90.5439803           99.5978567            9.0538764
 Dipole Y            :         -0.0000000            0.0000000           -0.0000000
 Dipole Z            :          0.0000000            0.0000000            0.0000000
 Magnitude           :                                                    9.0538764
  Basis Set: (AUG-CC-PVTZ AUX)
    Blend: AUG-CC-PVTZ-RI + DEF2-QZVPP-RI
	 Reference Energy          =    -323.2416782976043805 [Eh]
	 Singles Energy            =      -0.0000000000000000 [Eh]
	 Same-Spin Energy          =      -0.0043287796820339 [Eh]
	 Opposite-Spin Energy      =      -0.0169752244614503 [Eh]
	 Correlation Energy        =      -0.0213040041434842 [Eh]
	 Total Energy              =    -323.2629823017478543 [Eh]
	 SCS Total Energy          =    -323.2634914935188135 [Eh]
                               Psi4 1.9 release
    Molecular point group: c1
  Multiplicity = 1
  Basis Set: AUG-CC-PVTZ
    Blend: AUG-CC-PVTZ
  Basis Set: (AUG-CC-PVTZ AUX)
    Blend: AUG-CC-PVTZ-JKFIT + DEF2-UNIVERSAL-JKFIT
  @DF-RHF Final Energy:   -76.06051216015648
    Total Energy =                        -76.0605121601564633
  Basis Set: (AUG-CC-PVTZ AUX)
	 Singles Energy            =      -0.0000000000000000 [Eh]
	 Same-Spin Energy          =      -0.0683966272663922 [Eh]
	 Opposite-Spin Energy      =      -0.2154487044115517 [Eh]
	 Correlation Energy        =      -0.2838453316779439 [Eh]
	 Total Energy              =     -76.3443574918344154 [Eh]
	 SCS Total Energy          =     -76.3418494812057986 [Eh]
                               Psi4 1.9 release
    Molecular point group: c1

    Geometry (in Bohr), charge = 2, multiplicity = 1:

       Center              X                  Y                   Z               Mass
    ------------   -----------------  -----------------  -----------------  -----------------
         O            0.000000000000     0.000000000000     0.000000000000    15.994914619570
         H           -1.112175634425     0.000000000000     1.430367719429     1.007825032230
         H           -1.112175634425     0.000000000000    -1.430367719429     1.007825032230
         NA           4.527175304785     4.527175304785     0.000000000000    22.989769282000
         NA           4.527175304785    -4.527175304785     0.000000000000    22.989769282000

  Charge       = 2
  Multiplicity = 1
  Basis Set: AUG-CC-PVTZ
    Blend: AUG-CC-PVTZ
  Basis Set: (AUG-CC-PVTZ AUX)
    Blend: AUG-CC-PVTZ-JKFIT + DEF2-UNIVERSAL-JKFIT

    Orbital Energies [Eh]
    ---------------------

    Doubly Occupied:

       1A    -40.852494     2A    -40.852494     3A    -20.868150
       4A     -3.164422     5A     -3.164422     6A     -1.887923
       7A     -1.887919     8A     -1.887605     9A     -1.887604
      10A     -1.887242    11A     -1.887239    12A     -1.653006
      13A     -1.015326    14A     -0.895174    15A     -0.814896

  @DF-RHF Final Energy:  -399.33853241750063

   => Energetics <=

    Nuclear Repulsion Energy =             56.0023472405774783
    One-Electron Energy =                -661.4699224331976666
    Two-Electron Energy =                 206.1290427751196148
    Total Energy =                       -399.3385324175005735
 Dipole X            :        -89.4012997           97.3735054            7.9722058
 Dipole Y            :          0.0000000            0.0000000            0.0000000
 Dipole Z            :          0.0000000            0.0000000            0.0000000
 Magnitude           :                                                    7.9722058
  Basis Set: (AUG-CC-PVTZ AUX)
    Blend: AUG-CC-PVTZ-RI + DEF2-QZVPP-RI
	 Reference Energy          =    -399.3385324175006303 [Eh]
	 Singles Energy            =      -0.0000000000000000 [Eh]
	 Same-Spin Energy          =      -0.0726371841767633 [Eh]
	 Opposite-Spin Energy      =      -0.2316890022926733 [Eh]
	 Correlation Energy        =      -0.3043261864694367 [Eh]
	 Total Energy              =    -399.6428586039700690 [Eh]

	 ================> DF-SCS-MP2 Energies <==================
	-----------------------------------------------------------
	 SCS Same-Spin Scale       =       0.3333333333333333 [-]
	 SCS Opposite-Spin Scale   =       1.2000000000000000 [-]
	 SCS Same-Spin Energy      =      -0.0242123947255878 [Eh]
	 SCS Opposite-Spin Energy  =      -0.2780268027512080 [Eh]
	 SCS Correlation Energy    =      -0.3022391974767958 [Eh]
	 SCS Total Energy          =    -399.6407716149774387 [Eh]
	-----------------------------------------------------------

*** Psi4 exiting successfully. Buy a developer a beer!
