                               Psi4 1.9 release

  ==> Input File <==

--------------------------------------------------------------------------
MEMORY 60 GB

molecule dimer {
0 1
O      0.000000     0.000000     0.000000
H     -0.588538     0.000000     0.756918
H     -0.588538     0.000000    -0.756918
--
2 1
Na     2.566798     2.566798     0.000000
Na     2.566798    -2.566798     0.000000

units ang
no_reorient
no_com
symmetry c1
}

set {
basis        aug-cc-pVTZ
scf_type     df
}

energy("mp2", bsse_type="cp")
--------------------------------------------------------------------------

                               Psi4 1.9 release
    Molecular point group: c1
  Charge       = 2
  Multiplicity = 1
  Basis Set: AUG-CC-PVTZ
    Blend: AUG-CC-PVTZ
  Basis Set: (AUG-CC-PVTZ AUX)
    Blend: AUG-CC-PVTZ-JKFIT + DEF2-UNIVERSAL-JKFIT
  @DF-RHF Final Energy:  -323.24902388122092
    Total Energy =                       -323.2490238812208645
 Dipole X            :        -97.0113010          106.7119953            9.7006943
 Dipole Y            :          0.0000000            0.0000000            0.0000000
 Dipole Z            :          0.0000000            0.0000000            0.0000000
 Magnitude           :                                                    9.7006943
  Basis Set: (AUG-CC-PVTZ AUX)
    Blend: AUG-CC-PVTZ-RI + DEF2-QZVPP-RI
	 Reference Energy          =    -323.2490238812209213 [Eh]
	 Singles Energy            =      -0.0000000000000000 [Eh]
	 Same-Spin Energy          =      -0.0041743540008815 [Eh]
	 Opposite-Spin Energy      =      -0.0165477291778717 [Eh]
	 Correlation Energy        =      -0.0207220831787532 [Eh]
	 Total Energy              =    -323.2697459643996467 [Eh]
	 SCS Total Energy          =    -323.2702726075680175 [Eh]
                               Psi4 1.9 release
    Molecular point group: c1
  Multiplicity = 1
  Basis Set: AUG-CC-PVTZ
    Blend: AUG-CC-PVTZ
  Basis Set: (AUG-CC-PVTZ AUX)
    Blend: AUG-CC-PVTZ-JKFIT + DEF2-UNIVERSAL-JKFIT
  @DF-RHF Final Energy:   -76.06050573632305
    Total Energy =                        -76.0605057363230515
  Basis Set: (AUG-CC-PVTZ AUX)
	 Singles Energy            =      -0.0000000000000000 [Eh]
	 Same-Spin Energy          =      -0.0683891652497741 [Eh]
	 Opposite-Spin Energy      =      -0.2153990614249272 [Eh]
	 Correlation Energy        =      -0.2837882266747013 [Eh]
	 Total Energy              =     -76.3442939629977531 [Eh]
	 SCS Total Energy          =     -76.3417809984495506 [Eh]
                               Psi4 1.9 release
    Molecular point group: c1

    Geometry (in Bohr), charge = 2, multiplicity = 1:

       Center              X                  Y                   Z               Mass
    ------------   -----------------  -----------------  -----------------  -----------------
         O            0.000000000000     0.000000000000     0.000000000000    15.994914619570
         H           -1.112175634425     0.000000000000     1.430367719429     1.007825032230
         H           -1.112175634425     0.000000000000    -1.430367719429     1.007825032230
         NA           4.850545239373     4.850545239373     0.000000000000    22.989769282000
         NA           4.850545239373    -4.850545239373     0.000000000000    22.989769282000

  Charge       = 2
  Multiplicity = 1
  Basis Set: AUG-CC-PVTZ
    Blend: AUG-CC-PVTZ
  Basis Set: (AUG-CC-PVTZ AUX)
    Blend: AUG-CC-PVTZ-JKFIT + DEF2-UNIVERSAL-JKFIT

    Orbital Energies [Eh]
    ---------------------

    Doubly Occupied:

       1A    -40.848702     2A    -40.848702     3A    -20.848541
       4A     -3.160517     5A     -3.160517     6A     -1.883945
       7A     -1.883944     8A     -1.883675     9A     -1.883674
      10A     -1.883412    11A     -1.883411    12A     -1.633589
      13A     -0.996184    14A     -0.874430    15A     -0.794788

  @DF-RHF Final Energy:  -399.34060535803570

   => Energetics <=

    Nuclear Repulsion Energy =             52.9378268815778696
    One-Electron Energy =                -655.6208017030756992
    Two-Electron Energy =                 203.3423694634621484
    Total Energy =                       -399.3406053580357025
 Dipole X            :        -95.8315665          104.4876440            8.6560775
 Dipole Y            :         -0.0000000            0.0000000           -0.0000000
 Dipole Z            :         -0.0000000            0.0000000           -0.0000000
 Magnitude           :                                                    8.6560775
  Basis Set: (AUG-CC-PVTZ AUX)
    Blend: AUG-CC-PVTZ-RI + DEF2-QZVPP-RI
	 Reference Energy          =    -399.3406053580357025 [Eh]
	 Singles Energy            =      -0.0000000000000000 [Eh]
	 Same-Spin Energy          =      -0.0724705680726552 [Eh]
	 Opposite-Spin Energy      =      -0.2312685495117173 [Eh]
	 Correlation Energy        =      -0.3037391175843725 [Eh]
	 Total Energy              =    -399.6443444756200734 [Eh]

	 ================> DF-SCS-MP2 Energies <==================
	-----------------------------------------------------------
	 SCS Same-Spin Scale       =       0.3333333333333333 [-]
	 SCS Opposite-Spin Scale   =       1.2000000000000000 [-]
	 SCS Same-Spin Energy      =      -0.0241568560242184 [Eh]
	 SCS Opposite-Spin Energy  =      -0.2775222594140607 [Eh]
	 SCS Correlation Energy    =      -0.3016791154382791 [Eh]
	 SCS Total Energy          =    -399.6422844734739783 [Eh]
	-----------------------------------------------------------

*** Psi4 exiting successfully. Buy a developer a beer!
