                               Psi4 1.8.2 release

  ==> Input File <==

--------------------------------------------------------------------------
MEMORY 60 GB

molecule dimer {
1 1
Gh(O)      0.000000     0.000000     0.000000
Gh(H)     -0.588538     0.000000     0.756918
Gh(H)     -0.588538     0.000000    -0.756918
Gh(Na)     1.711198     1.711198     0.000000
Na         1.711198    -1.711198     0.000000

units ang
no_reorient
no_com
symmetry c1
}

set {
basis        aug-cc-pVTZ
scf_type     df
}

energy("mp2")
--------------------------------------------------------------------------

    Molecular point group: c1

    Geometry (in Angstrom), charge = 1, multiplicity = 1:

       Center              X                  Y                   Z               Mass
    ------------   -----------------  -----------------  -----------------  -----------------
      Gh(O)           0.000000000000     0.000000000000     0.000000000000    15.994914619570
      Gh(H)          -0.588538000000     0.000000000000     0.756918000000     1.007825032230
      Gh(H)          -0.588538000000     0.000000000000    -0.756918000000     1.007825032230
      Gh(NA)          1.711198000000     1.711198000000     0.000000000000    22.989769282000
         NA           1.711198000000    -1.711198000000     0.000000000000    22.989769282000

  Charge       = 1
  Multiplicity = 1
  Basis Set: AUG-CC-PVTZ
    Blend: AUG-CC-PVTZ
  Basis Set: (AUG-CC-PVTZ AUX)
    Blend: AUG-CC-PVTZ-JKFIT + DEF2-UNIVERSAL-JKFIT

    Orbital Energies [Eh]
    ---------------------

    Doubly Occupied:

       1A    -40.762411     2A     -3.074705     3A     -1.797988
       4A     -1.797921     5A     -1.797879

  @DF-RHF Final Energy:  -161.67604927651348

   => Energetics <=

    Nuclear Repulsion Energy =              0.0000000000000000
    One-Electron Energy =                -224.8902921786203137
    Two-Electron Energy =                  63.2142429021068324
    Total Energy =                       -161.6760492765134813
 Dipole X            :        -32.3372768           35.5706512            3.2333745
 Dipole Y            :         32.3374636          -35.5706512           -3.2331876
 Dipole Z            :          0.0000000            0.0000000            0.0000000
 Magnitude           :                                                    4.5725499
  Basis Set: (AUG-CC-PVTZ AUX)
    Blend: AUG-CC-PVTZ-RI + DEF2-QZVPP-RI
	 Reference Energy          =    -161.6760492765134813 [Eh]
	 Singles Energy            =      -0.0000000000000000 [Eh]
	 Same-Spin Energy          =      -0.0027929360735297 [Eh]
	 Opposite-Spin Energy      =      -0.0101667086827977 [Eh]
	 Correlation Energy        =      -0.0129596447563274 [Eh]
	 Total Energy              =    -161.6890089212698172 [Eh]

	 ================> DF-SCS-MP2 Energies <==================
	-----------------------------------------------------------
	 SCS Same-Spin Scale       =       0.3333333333333333 [-]
	 SCS Opposite-Spin Scale   =       1.2000000000000000 [-]
	 SCS Same-Spin Energy      =      -0.0009309786911766 [Eh]
	 SCS Opposite-Spin Energy  =      -0.0122000504193572 [Eh]
	 SCS Correlation Energy    =      -0.0131310291105338 [Eh]
	 SCS Total Energy          =    -161.6891803056240065 [Eh]
	-----------------------------------------------------------

*** Psi4 exiting successfully. Buy a developer a beer!
