                               Psi4 1.8.2 release

  ==> Input File <==

--------------------------------------------------------------------------
MEMORY 60 GB

molecule dimer {
0 1
O      0.000000     0.000000     0.000000
H     -0.588538     0.000000     0.756918
H     -0.588538     0.000000    -0.756918
--
1 1
Na     2.395678     2.395678     0.000000
--
1 1
Na     2.395678    -2.395678     0.000000

units ang
no_reorient
no_com
symmetry c1
}

set {
basis        aug-cc-pVTZ
scf_type     df
}

energy("mp2", bsse_type="cp")
--------------------------------------------------------------------------

                               Psi4 1.8.2 release
    Molecular point group: c1
  Charge       = 0
  Multiplicity = 1
  Basis Set: AUG-CC-PVTZ
    Blend: AUG-CC-PVTZ
  Basis Set: (AUG-CC-PVTZ AUX)
    Blend: AUG-CC-PVTZ-JKFIT + DEF2-UNIVERSAL-JKFIT
  @DF-RHF Final Energy:   -76.06051216015996
    Total Energy =                        -76.0605121601599592
 Dipole X            :          1.4420252           -2.2243513           -0.7823260
 Dipole Y            :         -0.0000000            0.0000000           -0.0000000
 Dipole Z            :         -0.0000000            0.0000000           -0.0000000
 Magnitude           :                                                    0.7823260
  Basis Set: (AUG-CC-PVTZ AUX)
    Blend: AUG-CC-PVTZ-RI + DEF2-QZVPP-RI
	 Reference Energy          =     -76.0605121601599592 [Eh]
	 Singles Energy            =      -0.0000000000000000 [Eh]
	 Same-Spin Energy          =      -0.0683966272663779 [Eh]
	 Opposite-Spin Energy      =      -0.2154487044114400 [Eh]
	 Correlation Energy        =      -0.2838453316778178 [Eh]
	 Total Energy              =     -76.3443574918377834 [Eh]
	 SCS Total Energy          =     -76.3418494812091524 [Eh]
                               Psi4 1.8.2 release
    Molecular point group: c1
  Basis Set: AUG-CC-PVTZ
    Blend: AUG-CC-PVTZ
  Basis Set: (AUG-CC-PVTZ AUX)
    Blend: AUG-CC-PVTZ-JKFIT + DEF2-UNIVERSAL-JKFIT
  @DF-RHF Final Energy:  -161.67603326585163
    Total Energy =                       -161.6760332658516290
  Basis Set: (AUG-CC-PVTZ AUX)
                               Psi4 1.8.2 release
  @DF-RHF Final Energy:  -323.24167829767975
    Total Energy =                       -323.2416782976797549
                               Psi4 1.8.2 release
  @DF-RHF Final Energy:  -237.75469545280473
    Total Energy =                       -237.7546954528046967
                               Psi4 1.8.2 release
  @DF-RHF Final Energy:  -237.75469545283357
    Total Energy =                       -237.7546954528335732
                               Psi4 1.8.2 release
  Multiplicity = 1
  @DF-RHF Final Energy:  -161.67603326583142
    Total Energy =                       -161.6760332658314212
	 Singles Energy            =      -0.0000000000000000 [Eh]
	 Same-Spin Energy          =      -0.0021611395652380 [Eh]
	 Opposite-Spin Energy      =      -0.0084801979381126 [Eh]
	 Correlation Energy        =      -0.0106413375033506 [Eh]
	 Total Energy              =    -161.6866746033347795 [Eh]
	 SCS Total Energy          =    -161.6869298832122297 [Eh]
                               Psi4 1.8.2 release
    Molecular point group: c1

    Geometry (in Bohr), charge = 2, multiplicity = 1:

       Center              X                  Y                   Z               Mass
    ------------   -----------------  -----------------  -----------------  -----------------
         O            0.000000000000     0.000000000000     0.000000000000    15.994914619570
         H           -1.112175634425     0.000000000000     1.430367719429     1.007825032230
         H           -1.112175634425     0.000000000000    -1.430367719429     1.007825032230
         NA           4.527175304785     4.527175304785     0.000000000000    22.989769282000
         NA           4.527175304785    -4.527175304785     0.000000000000    22.989769282000

  Charge       = 2
  Multiplicity = 1
  Basis Set: AUG-CC-PVTZ
    Blend: AUG-CC-PVTZ
  Basis Set: (AUG-CC-PVTZ AUX)
    Blend: AUG-CC-PVTZ-JKFIT + DEF2-UNIVERSAL-JKFIT

    Orbital Energies [Eh]
    ---------------------

    Doubly Occupied:

       1A    -40.852494     2A    -40.852494     3A    -20.868150
       4A     -3.164422     5A     -3.164422     6A     -1.887923
       7A     -1.887919     8A     -1.887605     9A     -1.887604
      10A     -1.887242    11A     -1.887239    12A     -1.653006
      13A     -1.015326    14A     -0.895174    15A     -0.814896

  @DF-RHF Final Energy:  -399.33853241760386

   => Energetics <=

    Nuclear Repulsion Energy =             56.0023472405774783
    One-Electron Energy =                -661.4699224332152880
    Two-Electron Energy =                 206.1290427750339802
    Total Energy =                       -399.3385324176038012
 Dipole X            :        -89.4012997           97.3735054            7.9722058
 Dipole Y            :         -0.0000000            0.0000000           -0.0000000
 Dipole Z            :         -0.0000000            0.0000000           -0.0000000
 Magnitude           :                                                    7.9722058
  Basis Set: (AUG-CC-PVTZ AUX)
    Blend: AUG-CC-PVTZ-RI + DEF2-QZVPP-RI
	 Reference Energy          =    -399.3385324176038580 [Eh]
	 Singles Energy            =      -0.0000000000000000 [Eh]
	 Same-Spin Energy          =      -0.0726371841766838 [Eh]
	 Opposite-Spin Energy      =      -0.2316890022924000 [Eh]
	 Correlation Energy        =      -0.3043261864690838 [Eh]
	 Total Energy              =    -399.6428586040729556 [Eh]

	 ================> DF-SCS-MP2 Energies <==================
	-----------------------------------------------------------
	 SCS Same-Spin Scale       =       0.3333333333333333 [-]
	 SCS Opposite-Spin Scale   =       1.2000000000000000 [-]
	 SCS Same-Spin Energy      =      -0.0242123947255613 [Eh]
	 SCS Opposite-Spin Energy  =      -0.2780268027508799 [Eh]
	 SCS Correlation Energy    =      -0.3022391974764412 [Eh]
	 SCS Total Energy          =    -399.6407716150803253 [Eh]
	-----------------------------------------------------------

*** Psi4 exiting successfully. Buy a developer a beer!
