                               Psi4 1.8.2 release

  ==> Input File <==

--------------------------------------------------------------------------
MEMORY 60 GB

molecule dimer {
2 1
O          0.000000     0.000000     0.000000
H         -0.588538     0.000000     0.756918
H         -0.588538     0.000000    -0.756918
Na         2.395678     2.395678     0.000000
Na         2.395678    -2.395678     0.000000

units ang
no_reorient
no_com
symmetry c1
}

set {
basis        aug-cc-pVTZ
scf_type     df
}

energy("mp2")
--------------------------------------------------------------------------

    Molecular point group: c1

    Geometry (in Angstrom), charge = 2, multiplicity = 1:

       Center              X                  Y                   Z               Mass
    ------------   -----------------  -----------------  -----------------  -----------------
         O            0.000000000000     0.000000000000     0.000000000000    15.994914619570
         H           -0.588538000000     0.000000000000     0.756918000000     1.007825032230
         H           -0.588538000000     0.000000000000    -0.756918000000     1.007825032230
         NA           2.395678000000     2.395678000000     0.000000000000    22.989769282000
         NA           2.395678000000    -2.395678000000     0.000000000000    22.989769282000

  Charge       = 2
  Multiplicity = 1
  Basis Set: AUG-CC-PVTZ
    Blend: AUG-CC-PVTZ
  Basis Set: (AUG-CC-PVTZ AUX)
    Blend: AUG-CC-PVTZ-JKFIT + DEF2-UNIVERSAL-JKFIT

    Orbital Energies [Eh]
    ---------------------

    Doubly Occupied:

       1A    -40.852494     2A    -40.852494     3A    -20.868150
       4A     -3.164422     5A     -3.164422     6A     -1.887923
       7A     -1.887919     8A     -1.887605     9A     -1.887604
      10A     -1.887242    11A     -1.887239    12A     -1.653006
      13A     -1.015326    14A     -0.895174    15A     -0.814896

  @DF-RHF Final Energy:  -399.33853241760386

   => Energetics <=

    Nuclear Repulsion Energy =             56.0023472405774783
    One-Electron Energy =                -661.4699224332152880
    Two-Electron Energy =                 206.1290427750339518
    Total Energy =                       -399.3385324176038580
 Dipole X            :        -89.4012997           97.3735054            7.9722058
 Dipole Y            :         -0.0000000            0.0000000           -0.0000000
 Dipole Z            :         -0.0000000            0.0000000           -0.0000000
 Magnitude           :                                                    7.9722058
  Basis Set: (AUG-CC-PVTZ AUX)
    Blend: AUG-CC-PVTZ-RI + DEF2-QZVPP-RI
	 Reference Energy          =    -399.3385324176038580 [Eh]
	 Singles Energy            =      -0.0000000000000000 [Eh]
	 Same-Spin Energy          =      -0.0726371841766832 [Eh]
	 Opposite-Spin Energy      =      -0.2316890022923975 [Eh]
	 Correlation Energy        =      -0.3043261864690807 [Eh]
	 Total Energy              =    -399.6428586040729556 [Eh]

	 ================> DF-SCS-MP2 Energies <==================
	-----------------------------------------------------------
	 SCS Same-Spin Scale       =       0.3333333333333333 [-]
	 SCS Opposite-Spin Scale   =       1.2000000000000000 [-]
	 SCS Same-Spin Energy      =      -0.0242123947255611 [Eh]
	 SCS Opposite-Spin Energy  =      -0.2780268027508769 [Eh]
	 SCS Correlation Energy    =      -0.3022391974764380 [Eh]
	 SCS Total Energy          =    -399.6407716150802685 [Eh]
	-----------------------------------------------------------

*** Psi4 exiting successfully. Buy a developer a beer!
