                               Psi4 1.8.2 release

  ==> Input File <==

--------------------------------------------------------------------------
MEMORY 60 GB

molecule dimer {
0 1
O      0.000000     0.000000     0.000000
H     -0.588538     0.000000     0.756918
H     -0.588538     0.000000    -0.756918
--
1 1
Na     1.711198     1.711198     0.000000
--
1 1
Na     1.711198    -1.711198     0.000000

units ang
no_reorient
no_com
symmetry c1
}

set {
basis        aug-cc-pVTZ
scf_type     df
}

energy("mp2", bsse_type="cp")
--------------------------------------------------------------------------

                               Psi4 1.8.2 release
    Molecular point group: c1
  Charge       = 0
  Multiplicity = 1
  Basis Set: AUG-CC-PVTZ
    Blend: AUG-CC-PVTZ
  Basis Set: (AUG-CC-PVTZ AUX)
    Blend: AUG-CC-PVTZ-JKFIT + DEF2-UNIVERSAL-JKFIT
  @DF-RHF Final Energy:   -76.06062528300622
    Total Energy =                        -76.0606252830062175
 Dipole X            :          1.4430994           -2.2243513           -0.7812519
 Dipole Y            :          0.0000000            0.0000000            0.0000000
 Dipole Z            :          0.0000000            0.0000000            0.0000000
 Magnitude           :                                                    0.7812519
  Basis Set: (AUG-CC-PVTZ AUX)
    Blend: AUG-CC-PVTZ-RI + DEF2-QZVPP-RI
	 Reference Energy          =     -76.0606252830062175 [Eh]
	 Singles Energy            =      -0.0000000000000000 [Eh]
	 Same-Spin Energy          =      -0.0684382513969943 [Eh]
	 Opposite-Spin Energy      =      -0.2158309666861235 [Eh]
	 Correlation Energy        =      -0.2842692180831178 [Eh]
	 Total Energy              =     -76.3448945010893283 [Eh]
	 SCS Total Energy          =     -76.3424351934952341 [Eh]
                               Psi4 1.8.2 release
    Molecular point group: c1
  Basis Set: AUG-CC-PVTZ
    Blend: AUG-CC-PVTZ
  Basis Set: (AUG-CC-PVTZ AUX)
    Blend: AUG-CC-PVTZ-JKFIT + DEF2-UNIVERSAL-JKFIT
  @DF-RHF Final Energy:  -161.67604927652849
    Total Energy =                       -161.6760492765284880
  Basis Set: (AUG-CC-PVTZ AUX)
                               Psi4 1.8.2 release
  @DF-RHF Final Energy:  -323.19772978806026
    Total Energy =                       -323.1977297880602578
                               Psi4 1.8.2 release
  @DF-RHF Final Energy:  -237.76999458099564
    Total Energy =                       -237.7699945809956432
                               Psi4 1.8.2 release
  @DF-RHF Final Energy:  -237.76999458101423
    Total Energy =                       -237.7699945810142310
                               Psi4 1.8.2 release
  Multiplicity = 1
  @DF-RHF Final Energy:  -161.67604927651385
    Total Energy =                       -161.6760492765138224
	 Singles Energy            =      -0.0000000000000000 [Eh]
	 Same-Spin Energy          =      -0.0027929360735298 [Eh]
	 Opposite-Spin Energy      =      -0.0101667086827979 [Eh]
	 Correlation Energy        =      -0.0129596447563277 [Eh]
	 Total Energy              =    -161.6890089212701866 [Eh]
	 SCS Total Energy          =    -161.6891803056243759 [Eh]
                               Psi4 1.8.2 release
    Molecular point group: c1

    Geometry (in Bohr), charge = 2, multiplicity = 1:

       Center              X                  Y                   Z               Mass
    ------------   -----------------  -----------------  -----------------  -----------------
         O            0.000000000000     0.000000000000     0.000000000000    15.994914619570
         H           -1.112175634425     0.000000000000     1.430367719429     1.007825032230
         H           -1.112175634425     0.000000000000    -1.430367719429     1.007825032230
         NA           3.233695566431     3.233695566431     0.000000000000    22.989769282000
         NA           3.233695566431    -3.233695566431     0.000000000000    22.989769282000

  Charge       = 2
  Multiplicity = 1
  Basis Set: AUG-CC-PVTZ
    Blend: AUG-CC-PVTZ
  Basis Set: (AUG-CC-PVTZ AUX)
    Blend: AUG-CC-PVTZ-JKFIT + DEF2-UNIVERSAL-JKFIT

    Orbital Energies [Eh]
    ---------------------

    Doubly Occupied:

       1A    -40.867554     2A    -40.867554     3A    -20.969627
       4A     -3.182000     5A     -3.181967     6A     -1.906389
       7A     -1.905785     8A     -1.905322     9A     -1.905267
      10A     -1.905027    11A     -1.904398    12A     -1.758310
      13A     -1.118191    14A     -1.011579    15A     -0.927043

  @DF-RHF Final Energy:  -399.32563220175405

   => Energetics <=

    Nuclear Repulsion Energy =             74.2285370945366338
    One-Electron Energy =                -696.4763123456431231
    Two-Electron Energy =                 222.9221430493524565
    Total Energy =                       -399.3256322017540469
 Dipole X            :        -63.7034188           68.9169512            5.2135324
 Dipole Y            :         -0.0000000            0.0000000           -0.0000000
 Dipole Z            :          0.0000000            0.0000000            0.0000000
 Magnitude           :                                                    5.2135324
  Basis Set: (AUG-CC-PVTZ AUX)
    Blend: AUG-CC-PVTZ-RI + DEF2-QZVPP-RI
	 Reference Energy          =    -399.3256322017540469 [Eh]
	 Singles Energy            =      -0.0000000000000000 [Eh]
	 Same-Spin Energy          =      -0.0736385426797289 [Eh]
	 Opposite-Spin Energy      =      -0.2340457603180790 [Eh]
	 Correlation Energy        =      -0.3076843029978080 [Eh]
	 Total Energy              =    -399.6333165047518605 [Eh]

	 ================> DF-SCS-MP2 Energies <==================
	-----------------------------------------------------------
	 SCS Same-Spin Scale       =       0.3333333333333333 [-]
	 SCS Opposite-Spin Scale   =       1.2000000000000000 [-]
	 SCS Same-Spin Energy      =      -0.0245461808932430 [Eh]
	 SCS Opposite-Spin Energy  =      -0.2808549123816948 [Eh]
	 SCS Correlation Energy    =      -0.3054010932749378 [Eh]
	 SCS Total Energy          =    -399.6310332950289990 [Eh]
	-----------------------------------------------------------

*** Psi4 exiting successfully. Buy a developer a beer!
