                               Psi4 1.8.2 release

  ==> Input File <==

--------------------------------------------------------------------------
MEMORY 60 GB

molecule dimer {
2 1
O          0.000000     0.000000     0.000000
H         -0.588538     0.000000     0.756918
H         -0.588538     0.000000    -0.756918
Na         2.224558     2.224558     0.000000
Na         2.224558    -2.224558     0.000000

units ang
no_reorient
no_com
symmetry c1
}

set {
basis        aug-cc-pVTZ
scf_type     df
}

energy("mp2")
--------------------------------------------------------------------------

    Molecular point group: c1

    Geometry (in Angstrom), charge = 2, multiplicity = 1:

       Center              X                  Y                   Z               Mass
    ------------   -----------------  -----------------  -----------------  -----------------
         O            0.000000000000     0.000000000000     0.000000000000    15.994914619570
         H           -0.588538000000     0.000000000000     0.756918000000     1.007825032230
         H           -0.588538000000     0.000000000000    -0.756918000000     1.007825032230
         NA           2.224558000000     2.224558000000     0.000000000000    22.989769282000
         NA           2.224558000000    -2.224558000000     0.000000000000    22.989769282000

  Charge       = 2
  Multiplicity = 1
  Basis Set: AUG-CC-PVTZ
    Blend: AUG-CC-PVTZ
  Basis Set: (AUG-CC-PVTZ AUX)
    Blend: AUG-CC-PVTZ-JKFIT + DEF2-UNIVERSAL-JKFIT

    Orbital Energies [Eh]
    ---------------------

    Doubly Occupied:

       1A    -40.856425     2A    -40.856425     3A    -20.890245
       4A     -3.168508     5A     -3.168508     6A     -1.892114
       7A     -1.892099     8A     -1.891728     9A     -1.891727
      10A     -1.891218    11A     -1.891207    12A     -1.675008
      13A     -1.036946    14A     -0.918878    15A     -0.837853

  @DF-RHF Final Energy:  -399.33654521629120

   => Energetics <=

    Nuclear Repulsion Energy =             59.5285751727497399
    One-Electron Energy =                -668.2124558564150902
    Two-Electron Energy =                 209.3473354673741937
    Total Energy =                       -399.3365452162911993
 Dipole X            :        -82.9758612           90.2593669            7.2835057
 Dipole Y            :         -0.0000000            0.0000000           -0.0000000
 Dipole Z            :          0.0000000            0.0000000            0.0000000
 Magnitude           :                                                    7.2835057
  Basis Set: (AUG-CC-PVTZ AUX)
    Blend: AUG-CC-PVTZ-RI + DEF2-QZVPP-RI
	 Reference Energy          =    -399.3365452162911993 [Eh]
	 Singles Energy            =      -0.0000000000000000 [Eh]
	 Same-Spin Energy          =      -0.0728659371737947 [Eh]
	 Opposite-Spin Energy      =      -0.2322944429037679 [Eh]
	 Correlation Energy        =      -0.3051603800775626 [Eh]
	 Total Energy              =    -399.6417055963687517 [Eh]

	 ================> DF-SCS-MP2 Energies <==================
	-----------------------------------------------------------
	 SCS Same-Spin Scale       =       0.3333333333333333 [-]
	 SCS Opposite-Spin Scale   =       1.2000000000000000 [-]
	 SCS Same-Spin Energy      =      -0.0242886457245982 [Eh]
	 SCS Opposite-Spin Energy  =      -0.2787533314845215 [Eh]
	 SCS Correlation Energy    =      -0.3030419772091197 [Eh]
	 SCS Total Energy          =    -399.6395871935003470 [Eh]
	-----------------------------------------------------------

*** Psi4 exiting successfully. Buy a developer a beer!
