                               Psi4 1.8.2 release

  ==> Input File <==

--------------------------------------------------------------------------
MEMORY 60 GB

molecule dimer {
1 1
Gh(O)      0.000000     0.000000     0.000000
Gh(H)     -0.588538     0.000000     0.756918
Gh(H)     -0.588538     0.000000    -0.756918
Gh(Na)     2.395678     2.395678     0.000000
Na         2.395678    -2.395678     0.000000

units ang
no_reorient
no_com
symmetry c1
}

set {
basis        aug-cc-pVTZ
scf_type     df
}

energy("mp2")
--------------------------------------------------------------------------

    Molecular point group: c1

    Geometry (in Angstrom), charge = 1, multiplicity = 1:

       Center              X                  Y                   Z               Mass
    ------------   -----------------  -----------------  -----------------  -----------------
      Gh(O)           0.000000000000     0.000000000000     0.000000000000    15.994914619570
      Gh(H)          -0.588538000000     0.000000000000     0.756918000000     1.007825032230
      Gh(H)          -0.588538000000     0.000000000000    -0.756918000000     1.007825032230
      Gh(NA)          2.395678000000     2.395678000000     0.000000000000    22.989769282000
         NA           2.395678000000    -2.395678000000     0.000000000000    22.989769282000

  Charge       = 1
  Multiplicity = 1
  Basis Set: AUG-CC-PVTZ
    Blend: AUG-CC-PVTZ
  Basis Set: (AUG-CC-PVTZ AUX)
    Blend: AUG-CC-PVTZ-JKFIT + DEF2-UNIVERSAL-JKFIT

    Orbital Energies [Eh]
    ---------------------

    Doubly Occupied:

       1A    -40.763230     2A     -3.075104     3A     -1.798345
       4A     -1.798257     5A     -1.798240

  @DF-RHF Final Energy:  -161.67603326583131

   => Energetics <=

    Nuclear Repulsion Energy =              0.0000000000000000
    One-Electron Energy =                -224.8857157948629037
    Two-Electron Energy =                  63.2096825290316104
    Total Energy =                       -161.6760332658312791
 Dipole X            :        -45.2720735           49.7989284            4.5268549
 Dipole Y            :         45.2721451          -49.7989284           -4.5267832
 Dipole Z            :          0.0000000            0.0000000            0.0000000
 Magnitude           :                                                    6.4018889
  Basis Set: (AUG-CC-PVTZ AUX)
    Blend: AUG-CC-PVTZ-RI + DEF2-QZVPP-RI
	 Reference Energy          =    -161.6760332658313075 [Eh]
	 Singles Energy            =      -0.0000000000000000 [Eh]
	 Same-Spin Energy          =      -0.0021611395652380 [Eh]
	 Opposite-Spin Energy      =      -0.0084801979381127 [Eh]
	 Correlation Energy        =      -0.0106413375033507 [Eh]
	 Total Energy              =    -161.6866746033346658 [Eh]

	 ================> DF-SCS-MP2 Energies <==================
	-----------------------------------------------------------
	 SCS Same-Spin Scale       =       0.3333333333333333 [-]
	 SCS Opposite-Spin Scale   =       1.2000000000000000 [-]
	 SCS Same-Spin Energy      =      -0.0007203798550793 [Eh]
	 SCS Opposite-Spin Energy  =      -0.0101762375257352 [Eh]
	 SCS Correlation Energy    =      -0.0108966173808145 [Eh]
	 SCS Total Energy          =    -161.6869298832121160 [Eh]
	-----------------------------------------------------------

*** Psi4 exiting successfully. Buy a developer a beer!
