                               Psi4 1.8.2 release

  ==> Input File <==

--------------------------------------------------------------------------
MEMORY 60 GB

molecule dimer {
0 1
O          0.000000     0.000000     0.000000
H         -0.588538     0.000000     0.756918
H         -0.588538     0.000000    -0.756918
Gh(Na)     1.711198     1.711198     0.000000
Gh(Na)     1.711198    -1.711198     0.000000

units ang
no_reorient
no_com
symmetry c1
}

set {
basis        aug-cc-pVTZ
scf_type     df
}

energy("mp2")
--------------------------------------------------------------------------

    Molecular point group: c1

    Geometry (in Angstrom), charge = 0, multiplicity = 1:

       Center              X                  Y                   Z               Mass
    ------------   -----------------  -----------------  -----------------  -----------------
         O            0.000000000000     0.000000000000     0.000000000000    15.994914619570
         H           -0.588538000000     0.000000000000     0.756918000000     1.007825032230
         H           -0.588538000000     0.000000000000    -0.756918000000     1.007825032230
      Gh(NA)          1.711198000000     1.711198000000     0.000000000000    22.989769282000
      Gh(NA)          1.711198000000    -1.711198000000     0.000000000000    22.989769282000

  Charge       = 0
  Multiplicity = 1
  Basis Set: AUG-CC-PVTZ
    Blend: AUG-CC-PVTZ
  Basis Set: (AUG-CC-PVTZ AUX)
    Blend: AUG-CC-PVTZ-JKFIT + DEF2-UNIVERSAL-JKFIT

    Orbital Energies [Eh]
    ---------------------

    Doubly Occupied:

       1A    -20.567321     2A     -1.352829     3A     -0.716365
       4A     -0.585015     5A     -0.510268

  @DF-RHF Final Energy:   -76.06062528300617

   => Energetics <=

    Nuclear Repulsion Energy =              9.1801978479270687
    One-Electron Energy =                -123.0180481186385748
    Two-Electron Energy =                  37.7772249877053241
    Total Energy =                        -76.0606252830061749
 Dipole X            :          1.4430994           -2.2243513           -0.7812519
 Dipole Y            :          0.0000000            0.0000000            0.0000000
 Dipole Z            :          0.0000000            0.0000000            0.0000000
 Magnitude           :                                                    0.7812519
  Basis Set: (AUG-CC-PVTZ AUX)
    Blend: AUG-CC-PVTZ-RI + DEF2-QZVPP-RI
	 Reference Energy          =     -76.0606252830061749 [Eh]
	 Singles Energy            =      -0.0000000000000000 [Eh]
	 Same-Spin Energy          =      -0.0684382513969946 [Eh]
	 Opposite-Spin Energy      =      -0.2158309666861229 [Eh]
	 Correlation Energy        =      -0.2842692180831176 [Eh]
	 Total Energy              =     -76.3448945010892857 [Eh]

	 ================> DF-SCS-MP2 Energies <==================
	-----------------------------------------------------------
	 SCS Same-Spin Scale       =       0.3333333333333333 [-]
	 SCS Opposite-Spin Scale   =       1.2000000000000000 [-]
	 SCS Same-Spin Energy      =      -0.0228127504656649 [Eh]
	 SCS Opposite-Spin Energy  =      -0.2589971600233475 [Eh]
	 SCS Correlation Energy    =      -0.2818099104890124 [Eh]
	 SCS Total Energy          =     -76.3424351934951915 [Eh]
	-----------------------------------------------------------

*** Psi4 exiting successfully. Buy a developer a beer!
