                               Psi4 1.8.2 release

  ==> Input File <==

--------------------------------------------------------------------------
MEMORY 60 GB

molecule dimer {
1 1
Gh(O)      0.000000     0.000000     0.000000
Gh(H)     -0.588538     0.000000     0.756918
Gh(H)     -0.588538     0.000000    -0.756918
Na         1.882318     1.882318     0.000000
Gh(Na)     1.882318    -1.882318     0.000000

units ang
no_reorient
no_com
symmetry c1
}

set {
basis        aug-cc-pVTZ
scf_type     df
}

energy("mp2")
--------------------------------------------------------------------------

    Molecular point group: c1

    Geometry (in Angstrom), charge = 1, multiplicity = 1:

       Center              X                  Y                   Z               Mass
    ------------   -----------------  -----------------  -----------------  -----------------
      Gh(O)           0.000000000000     0.000000000000     0.000000000000    15.994914619570
      Gh(H)          -0.588538000000     0.000000000000     0.756918000000     1.007825032230
      Gh(H)          -0.588538000000     0.000000000000    -0.756918000000     1.007825032230
         NA           1.882318000000     1.882318000000     0.000000000000    22.989769282000
      Gh(NA)          1.882318000000    -1.882318000000     0.000000000000    22.989769282000

  Charge       = 1
  Multiplicity = 1
  Basis Set: AUG-CC-PVTZ
    Blend: AUG-CC-PVTZ
  Basis Set: (AUG-CC-PVTZ AUX)
    Blend: AUG-CC-PVTZ-JKFIT + DEF2-UNIVERSAL-JKFIT

    Orbital Energies [Eh]
    ---------------------

    Doubly Occupied:

       1A    -40.762813     2A     -3.074895     3A     -1.798153
       4A     -1.798086     5A     -1.798050

  @DF-RHF Final Energy:  -161.67604255344676

   => Energetics <=

    Nuclear Repulsion Energy =              0.0000000000000000
    One-Electron Energy =                -224.8880898840087355
    Two-Electron Energy =                  63.2120473305619655
    Total Energy =                       -161.6760425534467629
 Dipole X            :        -35.5709869           39.1277205            3.5567336
 Dipole Y            :        -35.5710991           39.1277205            3.5566214
 Dipole Z            :         -0.0000000            0.0000000           -0.0000000
 Magnitude           :                                                    5.0299016
  Basis Set: (AUG-CC-PVTZ AUX)
    Blend: AUG-CC-PVTZ-RI + DEF2-QZVPP-RI
	 Reference Energy          =    -161.6760425534467629 [Eh]
	 Singles Energy            =      -0.0000000000000000 [Eh]
	 Same-Spin Energy          =      -0.0024971622105664 [Eh]
	 Opposite-Spin Energy      =      -0.0094056519891064 [Eh]
	 Correlation Energy        =      -0.0119028141996728 [Eh]
	 Total Energy              =    -161.6879453676464493 [Eh]

	 ================> DF-SCS-MP2 Energies <==================
	-----------------------------------------------------------
	 SCS Same-Spin Scale       =       0.3333333333333333 [-]
	 SCS Opposite-Spin Scale   =       1.2000000000000000 [-]
	 SCS Same-Spin Energy      =      -0.0008323874035221 [Eh]
	 SCS Opposite-Spin Energy  =      -0.0112867823869277 [Eh]
	 SCS Correlation Energy    =      -0.0121191697904498 [Eh]
	 SCS Total Energy          =    -161.6881617232372150 [Eh]
	-----------------------------------------------------------

*** Psi4 exiting successfully. Buy a developer a beer!
