                               Psi4 1.8.2 release

  ==> Input File <==

--------------------------------------------------------------------------
MEMORY 60 GB

molecule dimer {
0 1
O          0.000000     0.000000     0.000000
H         -0.588538     0.000000     0.756918
H         -0.588538     0.000000    -0.756918
Gh(Na)     2.566798     2.566798     0.000000
Gh(Na)     2.566798    -2.566798     0.000000

units ang
no_reorient
no_com
symmetry c1
}

set {
basis        aug-cc-pVTZ
scf_type     df
}

energy("mp2")
--------------------------------------------------------------------------

    Molecular point group: c1

    Geometry (in Angstrom), charge = 0, multiplicity = 1:

       Center              X                  Y                   Z               Mass
    ------------   -----------------  -----------------  -----------------  -----------------
         O            0.000000000000     0.000000000000     0.000000000000    15.994914619570
         H           -0.588538000000     0.000000000000     0.756918000000     1.007825032230
         H           -0.588538000000     0.000000000000    -0.756918000000     1.007825032230
      Gh(NA)          2.566798000000     2.566798000000     0.000000000000    22.989769282000
      Gh(NA)          2.566798000000    -2.566798000000     0.000000000000    22.989769282000

  Charge       = 0
  Multiplicity = 1
  Basis Set: AUG-CC-PVTZ
    Blend: AUG-CC-PVTZ
  Basis Set: (AUG-CC-PVTZ AUX)
    Blend: AUG-CC-PVTZ-JKFIT + DEF2-UNIVERSAL-JKFIT

    Orbital Energies [Eh]
    ---------------------

    Doubly Occupied:

       1A    -20.567575     2A     -1.352971     3A     -0.716505
       4A     -0.585132     5A     -0.510302

  @DF-RHF Final Energy:   -76.06050573633772

   => Energetics <=

    Nuclear Repulsion Energy =              9.1801978479270687
    One-Electron Energy =                -123.0164346045322930
    Two-Electron Energy =                  37.7757310202675143
    Total Energy =                        -76.0605057363377028
 Dipole X            :          1.4419474           -2.2243513           -0.7824039
 Dipole Y            :          0.0000000            0.0000000            0.0000000
 Dipole Z            :          0.0000000            0.0000000            0.0000000
 Magnitude           :                                                    0.7824039
  Basis Set: (AUG-CC-PVTZ AUX)
    Blend: AUG-CC-PVTZ-RI + DEF2-QZVPP-RI
	 Reference Energy          =     -76.0605057363377171 [Eh]
	 Singles Energy            =      -0.0000000000000000 [Eh]
	 Same-Spin Energy          =      -0.0683891652497369 [Eh]
	 Opposite-Spin Energy      =      -0.2153990614247855 [Eh]
	 Correlation Energy        =      -0.2837882266745224 [Eh]
	 Total Energy              =     -76.3442939630122339 [Eh]

	 ================> DF-SCS-MP2 Energies <==================
	-----------------------------------------------------------
	 SCS Same-Spin Scale       =       0.3333333333333333 [-]
	 SCS Opposite-Spin Scale   =       1.2000000000000000 [-]
	 SCS Same-Spin Energy      =      -0.0227963884165790 [Eh]
	 SCS Opposite-Spin Energy  =      -0.2584788737097426 [Eh]
	 SCS Correlation Energy    =      -0.2812752621263216 [Eh]
	 SCS Total Energy          =     -76.3417809984640456 [Eh]
	-----------------------------------------------------------

*** Psi4 exiting successfully. Buy a developer a beer!
