                               Psi4 1.8.2 release

  ==> Input File <==

--------------------------------------------------------------------------
MEMORY 60 GB

molecule dimer {
1 1
Gh(O)      0.000000     0.000000     0.000000
Gh(H)     -0.588538     0.000000     0.756918
Gh(H)     -0.588538     0.000000    -0.756918
Na         3.422397     3.422397     0.000000
Gh(Na)     3.422397    -3.422397     0.000000

units ang
no_reorient
no_com
symmetry c1
}

set {
basis        aug-cc-pVTZ
scf_type     df
}

energy("mp2")
--------------------------------------------------------------------------

    Molecular point group: c1

    Geometry (in Angstrom), charge = 1, multiplicity = 1:

       Center              X                  Y                   Z               Mass
    ------------   -----------------  -----------------  -----------------  -----------------
      Gh(O)           0.000000000000     0.000000000000     0.000000000000    15.994914619570
      Gh(H)          -0.588538000000     0.000000000000     0.756918000000     1.007825032230
      Gh(H)          -0.588538000000     0.000000000000    -0.756918000000     1.007825032230
         NA           3.422397000000     3.422397000000     0.000000000000    22.989769282000
      Gh(NA)          3.422397000000    -3.422397000000     0.000000000000    22.989769282000

  Charge       = 1
  Multiplicity = 1
  Basis Set: AUG-CC-PVTZ
    Blend: AUG-CC-PVTZ
  Basis Set: (AUG-CC-PVTZ AUX)
    Blend: AUG-CC-PVTZ-JKFIT + DEF2-UNIVERSAL-JKFIT

    Orbital Energies [Eh]
    ---------------------

    Doubly Occupied:

       1A    -40.763704     2A     -3.075319     3A     -1.798487
       4A     -1.798465     5A     -1.798460

  @DF-RHF Final Energy:  -161.67602610515797

   => Energetics <=

    Nuclear Repulsion Energy =              0.0000000000000000
    One-Electron Energy =                -224.8831828140477285
    Two-Electron Energy =                  63.2071567088897552
    Total Energy =                       -161.6760261051579732
 Dipole X            :        -64.6740073           71.1413232            6.4673160
 Dipole Y            :        -64.6740342           71.1413232            6.4672890
 Dipole Z            :         -0.0000000            0.0000000           -0.0000000
 Magnitude           :                                                    9.1461469
  Basis Set: (AUG-CC-PVTZ AUX)
    Blend: AUG-CC-PVTZ-RI + DEF2-QZVPP-RI
	 Reference Energy          =    -161.6760261051579732 [Eh]
	 Singles Energy            =      -0.0000000000000000 [Eh]
	 Same-Spin Energy          =      -0.0019586457623366 [Eh]
	 Opposite-Spin Energy      =      -0.0079174772585666 [Eh]
	 Correlation Energy        =      -0.0098761230209032 [Eh]
	 Total Energy              =    -161.6859022281788896 [Eh]

	 ================> DF-SCS-MP2 Energies <==================
	-----------------------------------------------------------
	 SCS Same-Spin Scale       =       0.3333333333333333 [-]
	 SCS Opposite-Spin Scale   =       1.2000000000000000 [-]
	 SCS Same-Spin Energy      =      -0.0006528819207789 [Eh]
	 SCS Opposite-Spin Energy  =      -0.0095009727102800 [Eh]
	 SCS Correlation Energy    =      -0.0101538546310588 [Eh]
	 SCS Total Energy          =    -161.6861799597890297 [Eh]
	-----------------------------------------------------------

*** Psi4 exiting successfully. Buy a developer a beer!
