                               Psi4 1.8.2 release

  ==> Input File <==

--------------------------------------------------------------------------
MEMORY 60 GB

molecule dimer {
2 1
O          0.000000     0.000000     0.000000
H         -0.588538     0.000000     0.756918
H         -0.588538     0.000000    -0.756918
Na         3.422397     3.422397     0.000000
Na         3.422397    -3.422397     0.000000

units ang
no_reorient
no_com
symmetry c1
}

set {
basis        aug-cc-pVTZ
scf_type     df
}

energy("mp2")
--------------------------------------------------------------------------

    Molecular point group: c1

    Geometry (in Angstrom), charge = 2, multiplicity = 1:

       Center              X                  Y                   Z               Mass
    ------------   -----------------  -----------------  -----------------  -----------------
         O            0.000000000000     0.000000000000     0.000000000000    15.994914619570
         H           -0.588538000000     0.000000000000     0.756918000000     1.007825032230
         H           -0.588538000000     0.000000000000    -0.756918000000     1.007825032230
         NA           3.422397000000     3.422397000000     0.000000000000    22.989769282000
         NA           3.422397000000    -3.422397000000     0.000000000000    22.989769282000

  Charge       = 2
  Multiplicity = 1
  Basis Set: AUG-CC-PVTZ
    Blend: AUG-CC-PVTZ
  Basis Set: (AUG-CC-PVTZ AUX)
    Blend: AUG-CC-PVTZ-JKFIT + DEF2-UNIVERSAL-JKFIT

    Orbital Energies [Eh]
    ---------------------

    Doubly Occupied:

       1A    -40.832303     2A    -40.832303     3A    -20.779093
       4A     -3.143912     5A     -3.143912     6A     -1.867174
       7A     -1.867173     8A     -1.867036     9A     -1.867036
      10A     -1.866968    11A     -1.866968    12A     -1.564728
      13A     -0.927964    14A     -0.801766    15A     -0.724143

  @DF-RHF Final Energy:  -399.35141038632622

   => Energetics <=

    Nuclear Repulsion Energy =             42.1488038380125403
    One-Electron Energy =                -635.0954658126111099
    Two-Electron Energy =                 193.5952515882723048
    Total Energy =                       -399.3514103863262790
 Dipole X            :       -128.0514377          140.0582952           12.0068576
 Dipole Y            :         -0.0000000            0.0000000           -0.0000000
 Dipole Z            :         -0.0000000            0.0000000           -0.0000000
 Magnitude           :                                                   12.0068576
  Basis Set: (AUG-CC-PVTZ AUX)
    Blend: AUG-CC-PVTZ-RI + DEF2-QZVPP-RI
	 Reference Energy          =    -399.3514103863262221 [Eh]
	 Singles Energy            =      -0.0000000000000000 [Eh]
	 Same-Spin Energy          =      -0.0721873296230890 [Eh]
	 Opposite-Spin Energy      =      -0.2306419764875006 [Eh]
	 Correlation Energy        =      -0.3028293061105897 [Eh]
	 Total Energy              =    -399.6542396924368177 [Eh]

	 ================> DF-SCS-MP2 Energies <==================
	-----------------------------------------------------------
	 SCS Same-Spin Scale       =       0.3333333333333333 [-]
	 SCS Opposite-Spin Scale   =       1.2000000000000000 [-]
	 SCS Same-Spin Energy      =      -0.0240624432076963 [Eh]
	 SCS Opposite-Spin Energy  =      -0.2767703717850007 [Eh]
	 SCS Correlation Energy    =      -0.3008328149926971 [Eh]
	 SCS Total Energy          =    -399.6522432013189245 [Eh]
	-----------------------------------------------------------

*** Psi4 exiting successfully. Buy a developer a beer!
