                               Psi4 1.8.2 release

  ==> Input File <==

--------------------------------------------------------------------------
MEMORY 60 GB

molecule dimer {
2 1
O          0.000000     0.000000     0.000000
H         -0.588538     0.000000     0.756918
H         -0.588538     0.000000    -0.756918
Na         1.711198     1.711198     0.000000
Na         1.711198    -1.711198     0.000000

units ang
no_reorient
no_com
symmetry c1
}

set {
basis        aug-cc-pVTZ
scf_type     df
}

energy("mp2")
--------------------------------------------------------------------------

    Molecular point group: c1

    Geometry (in Angstrom), charge = 2, multiplicity = 1:

       Center              X                  Y                   Z               Mass
    ------------   -----------------  -----------------  -----------------  -----------------
         O            0.000000000000     0.000000000000     0.000000000000    15.994914619570
         H           -0.588538000000     0.000000000000     0.756918000000     1.007825032230
         H           -0.588538000000     0.000000000000    -0.756918000000     1.007825032230
         NA           1.711198000000     1.711198000000     0.000000000000    22.989769282000
         NA           1.711198000000    -1.711198000000     0.000000000000    22.989769282000

  Charge       = 2
  Multiplicity = 1
  Basis Set: AUG-CC-PVTZ
    Blend: AUG-CC-PVTZ
  Basis Set: (AUG-CC-PVTZ AUX)
    Blend: AUG-CC-PVTZ-JKFIT + DEF2-UNIVERSAL-JKFIT

    Orbital Energies [Eh]
    ---------------------

    Doubly Occupied:

       1A    -40.867554     2A    -40.867554     3A    -20.969627
       4A     -3.182000     5A     -3.181967     6A     -1.906389
       7A     -1.905785     8A     -1.905322     9A     -1.905267
      10A     -1.905027    11A     -1.904398    12A     -1.758310
      13A     -1.118191    14A     -1.011579    15A     -0.927043

  @DF-RHF Final Energy:  -399.32563220175416

   => Energetics <=

    Nuclear Repulsion Energy =             74.2285370945366338
    One-Electron Energy =                -696.4763123456433505
    Two-Electron Energy =                 222.9221430493525986
    Total Energy =                       -399.3256322017541606
 Dipole X            :        -63.7034188           68.9169512            5.2135324
 Dipole Y            :         -0.0000000            0.0000000           -0.0000000
 Dipole Z            :          0.0000000            0.0000000            0.0000000
 Magnitude           :                                                    5.2135324
  Basis Set: (AUG-CC-PVTZ AUX)
    Blend: AUG-CC-PVTZ-RI + DEF2-QZVPP-RI
	 Reference Energy          =    -399.3256322017541606 [Eh]
	 Singles Energy            =      -0.0000000000000000 [Eh]
	 Same-Spin Energy          =      -0.0736385426797271 [Eh]
	 Opposite-Spin Energy      =      -0.2340457603180787 [Eh]
	 Correlation Energy        =      -0.3076843029978057 [Eh]
	 Total Energy              =    -399.6333165047519742 [Eh]

	 ================> DF-SCS-MP2 Energies <==================
	-----------------------------------------------------------
	 SCS Same-Spin Scale       =       0.3333333333333333 [-]
	 SCS Opposite-Spin Scale   =       1.2000000000000000 [-]
	 SCS Same-Spin Energy      =      -0.0245461808932423 [Eh]
	 SCS Opposite-Spin Energy  =      -0.2808549123816944 [Eh]
	 SCS Correlation Energy    =      -0.3054010932749368 [Eh]
	 SCS Total Energy          =    -399.6310332950291127 [Eh]
	-----------------------------------------------------------

*** Psi4 exiting successfully. Buy a developer a beer!
