                               Psi4 1.8.2 release

  ==> Input File <==

--------------------------------------------------------------------------
MEMORY 60 GB

molecule dimer {
2 1
O          0.000000     0.000000     0.000000
H         -0.588538     0.000000     0.756918
H         -0.588538     0.000000    -0.756918
Na         1.882318     1.882318     0.000000
Na         1.882318    -1.882318     0.000000

units ang
no_reorient
no_com
symmetry c1
}

set {
basis        aug-cc-pVTZ
scf_type     df
}

energy("mp2")
--------------------------------------------------------------------------

    Molecular point group: c1

    Geometry (in Angstrom), charge = 2, multiplicity = 1:

       Center              X                  Y                   Z               Mass
    ------------   -----------------  -----------------  -----------------  -----------------
         O            0.000000000000     0.000000000000     0.000000000000    15.994914619570
         H           -0.588538000000     0.000000000000     0.756918000000     1.007825032230
         H           -0.588538000000     0.000000000000    -0.756918000000     1.007825032230
         NA           1.882318000000     1.882318000000     0.000000000000    22.989769282000
         NA           1.882318000000    -1.882318000000     0.000000000000    22.989769282000

  Charge       = 2
  Multiplicity = 1
  Basis Set: AUG-CC-PVTZ
    Blend: AUG-CC-PVTZ
  Basis Set: (AUG-CC-PVTZ AUX)
    Blend: AUG-CC-PVTZ-JKFIT + DEF2-UNIVERSAL-JKFIT

    Orbital Energies [Eh]
    ---------------------

    Doubly Occupied:

       1A    -40.864282     2A    -40.864282     3A    -20.941690
       4A     -3.177232     5A     -3.177224     6A     -1.901191
       7A     -1.901030     8A     -1.900552     9A     -1.900536
      10A     -1.899801    11A     -1.899631    12A     -1.727733
      13A     -1.088395    14A     -0.976855    15A     -0.893795

  @DF-RHF Final Energy:  -399.33158828074301

   => Energetics <=

    Nuclear Repulsion Energy =             68.4584115226732308
    One-Electron Energy =                -685.3515362095224646
    Two-Electron Energy =                 217.5615364061061996
    Total Energy =                       -399.3315882807430057
 Dipole X            :        -70.1317406           76.0310898            5.8993491
 Dipole Y            :         -0.0000000            0.0000000           -0.0000000
 Dipole Z            :         -0.0000000            0.0000000           -0.0000000
 Magnitude           :                                                    5.8993491
  Basis Set: (AUG-CC-PVTZ AUX)
    Blend: AUG-CC-PVTZ-RI + DEF2-QZVPP-RI
	 Reference Energy          =    -399.3315882807430057 [Eh]
	 Singles Energy            =      -0.0000000000000000 [Eh]
	 Same-Spin Energy          =      -0.0732064988636296 [Eh]
	 Opposite-Spin Energy      =      -0.2331163286596165 [Eh]
	 Correlation Energy        =      -0.3063228275232461 [Eh]
	 Total Energy              =    -399.6379111082662234 [Eh]

	 ================> DF-SCS-MP2 Energies <==================
	-----------------------------------------------------------
	 SCS Same-Spin Scale       =       0.3333333333333333 [-]
	 SCS Opposite-Spin Scale   =       1.2000000000000000 [-]
	 SCS Same-Spin Energy      =      -0.0244021662878765 [Eh]
	 SCS Opposite-Spin Energy  =      -0.2797395943915398 [Eh]
	 SCS Correlation Energy    =      -0.3041417606794163 [Eh]
	 SCS Total Energy          =    -399.6357300414224483 [Eh]
	-----------------------------------------------------------

*** Psi4 exiting successfully. Buy a developer a beer!
