                               Psi4 1.8.2 release

  ==> Input File <==

--------------------------------------------------------------------------
MEMORY 60 GB

molecule dimer {
0 1
O      0.000000     0.000000     0.000000
H     -0.588538     0.000000     0.756918
H     -0.588538     0.000000    -0.756918
--
1 1
Na     2.566798     2.566798     0.000000
--
1 1
Na     2.566798    -2.566798     0.000000

units ang
no_reorient
no_com
symmetry c1
}

set {
basis        aug-cc-pVTZ
scf_type     df
}

energy("mp2", bsse_type="cp")
--------------------------------------------------------------------------

                               Psi4 1.8.2 release
    Molecular point group: c1
  Charge       = 0
  Multiplicity = 1
  Basis Set: AUG-CC-PVTZ
    Blend: AUG-CC-PVTZ
  Basis Set: (AUG-CC-PVTZ AUX)
    Blend: AUG-CC-PVTZ-JKFIT + DEF2-UNIVERSAL-JKFIT
  @DF-RHF Final Energy:   -76.06050573633776
    Total Energy =                        -76.0605057363377597
 Dipole X            :          1.4419474           -2.2243513           -0.7824039
 Dipole Y            :          0.0000000            0.0000000            0.0000000
 Dipole Z            :          0.0000000            0.0000000            0.0000000
 Magnitude           :                                                    0.7824039
  Basis Set: (AUG-CC-PVTZ AUX)
    Blend: AUG-CC-PVTZ-RI + DEF2-QZVPP-RI
	 Reference Energy          =     -76.0605057363377597 [Eh]
	 Singles Energy            =      -0.0000000000000000 [Eh]
	 Same-Spin Energy          =      -0.0683891652497355 [Eh]
	 Opposite-Spin Energy      =      -0.2153990614247815 [Eh]
	 Correlation Energy        =      -0.2837882266745171 [Eh]
	 Total Energy              =     -76.3442939630122765 [Eh]
	 SCS Total Energy          =     -76.3417809984640741 [Eh]
                               Psi4 1.8.2 release
    Molecular point group: c1
  Basis Set: AUG-CC-PVTZ
    Blend: AUG-CC-PVTZ
  Basis Set: (AUG-CC-PVTZ AUX)
    Blend: AUG-CC-PVTZ-JKFIT + DEF2-UNIVERSAL-JKFIT
  @DF-RHF Final Energy:  -161.67603157059764
    Total Energy =                       -161.6760315705976438
  Basis Set: (AUG-CC-PVTZ AUX)
                               Psi4 1.8.2 release
  @DF-RHF Final Energy:  -323.24902388123877
    Total Energy =                       -323.2490238812387133
                               Psi4 1.8.2 release
  @DF-RHF Final Energy:  -237.75205022593590
    Total Energy =                       -237.7520502259359034
                               Psi4 1.8.2 release
  @DF-RHF Final Energy:  -237.75205022591089
    Total Energy =                       -237.7520502259108923
                               Psi4 1.8.2 release
  Multiplicity = 1
  @DF-RHF Final Energy:  -161.67603157061893
    Total Energy =                       -161.6760315706189601
	 Singles Energy            =      -0.0000000000000000 [Eh]
	 Same-Spin Energy          =      -0.0020852161810674 [Eh]
	 Opposite-Spin Energy      =      -0.0082695380234998 [Eh]
	 Correlation Energy        =      -0.0103547542045672 [Eh]
	 Total Energy              =    -161.6863863248235020 [Eh]
	 SCS Total Energy          =    -161.6866500883074877 [Eh]
                               Psi4 1.8.2 release
    Molecular point group: c1

    Geometry (in Bohr), charge = 2, multiplicity = 1:

       Center              X                  Y                   Z               Mass
    ------------   -----------------  -----------------  -----------------  -----------------
         O            0.000000000000     0.000000000000     0.000000000000    15.994914619570
         H           -1.112175634425     0.000000000000     1.430367719429     1.007825032230
         H           -1.112175634425     0.000000000000    -1.430367719429     1.007825032230
         NA           4.850545239373     4.850545239373     0.000000000000    22.989769282000
         NA           4.850545239373    -4.850545239373     0.000000000000    22.989769282000

  Charge       = 2
  Multiplicity = 1
  Basis Set: AUG-CC-PVTZ
    Blend: AUG-CC-PVTZ
  Basis Set: (AUG-CC-PVTZ AUX)
    Blend: AUG-CC-PVTZ-JKFIT + DEF2-UNIVERSAL-JKFIT

    Orbital Energies [Eh]
    ---------------------

    Doubly Occupied:

       1A    -40.848702     2A    -40.848702     3A    -20.848541
       4A     -3.160517     5A     -3.160517     6A     -1.883945
       7A     -1.883944     8A     -1.883675     9A     -1.883674
      10A     -1.883412    11A     -1.883411    12A     -1.633589
      13A     -0.996184    14A     -0.874430    15A     -0.794788

  @DF-RHF Final Energy:  -399.34060535807953

   => Energetics <=

    Nuclear Repulsion Energy =             52.9378268815778696
    One-Electron Energy =                -655.6208017030942301
    Two-Electron Energy =                 203.3423694634367962
    Total Energy =                       -399.3406053580795856
 Dipole X            :        -95.8315665          104.4876440            8.6560775
 Dipole Y            :          0.0000000            0.0000000            0.0000000
 Dipole Z            :          0.0000000            0.0000000            0.0000000
 Magnitude           :                                                    8.6560775
  Basis Set: (AUG-CC-PVTZ AUX)
    Blend: AUG-CC-PVTZ-RI + DEF2-QZVPP-RI
	 Reference Energy          =    -399.3406053580795287 [Eh]
	 Singles Energy            =      -0.0000000000000000 [Eh]
	 Same-Spin Energy          =      -0.0724705680726619 [Eh]
	 Opposite-Spin Energy      =      -0.2312685495116849 [Eh]
	 Correlation Energy        =      -0.3037391175843467 [Eh]
	 Total Energy              =    -399.6443444756638996 [Eh]

	 ================> DF-SCS-MP2 Energies <==================
	-----------------------------------------------------------
	 SCS Same-Spin Scale       =       0.3333333333333333 [-]
	 SCS Opposite-Spin Scale   =       1.2000000000000000 [-]
	 SCS Same-Spin Energy      =      -0.0241568560242206 [Eh]
	 SCS Opposite-Spin Energy  =      -0.2775222594140218 [Eh]
	 SCS Correlation Energy    =      -0.3016791154382424 [Eh]
	 SCS Total Energy          =    -399.6422844735177478 [Eh]
	-----------------------------------------------------------

*** Psi4 exiting successfully. Buy a developer a beer!
