                               Psi4 1.8.2 release

  ==> Input File <==

--------------------------------------------------------------------------
MEMORY 60 GB

molecule dimer {
2 1
O          0.000000     0.000000     0.000000
H         -0.588538     0.000000     0.756918
H         -0.588538     0.000000    -0.756918
Na         2.566798     2.566798     0.000000
Na         2.566798    -2.566798     0.000000

units ang
no_reorient
no_com
symmetry c1
}

set {
basis        aug-cc-pVTZ
scf_type     df
}

energy("mp2")
--------------------------------------------------------------------------

    Molecular point group: c1

    Geometry (in Angstrom), charge = 2, multiplicity = 1:

       Center              X                  Y                   Z               Mass
    ------------   -----------------  -----------------  -----------------  -----------------
         O            0.000000000000     0.000000000000     0.000000000000    15.994914619570
         H           -0.588538000000     0.000000000000     0.756918000000     1.007825032230
         H           -0.588538000000     0.000000000000    -0.756918000000     1.007825032230
         NA           2.566798000000     2.566798000000     0.000000000000    22.989769282000
         NA           2.566798000000    -2.566798000000     0.000000000000    22.989769282000

  Charge       = 2
  Multiplicity = 1
  Basis Set: AUG-CC-PVTZ
    Blend: AUG-CC-PVTZ
  Basis Set: (AUG-CC-PVTZ AUX)
    Blend: AUG-CC-PVTZ-JKFIT + DEF2-UNIVERSAL-JKFIT

    Orbital Energies [Eh]
    ---------------------

    Doubly Occupied:

       1A    -40.848702     2A    -40.848702     3A    -20.848541
       4A     -3.160517     5A     -3.160517     6A     -1.883945
       7A     -1.883944     8A     -1.883675     9A     -1.883674
      10A     -1.883412    11A     -1.883411    12A     -1.633589
      13A     -0.996184    14A     -0.874430    15A     -0.794788

  @DF-RHF Final Energy:  -399.34060535807936

   => Energetics <=

    Nuclear Repulsion Energy =             52.9378268815778696
    One-Electron Energy =                -655.6208017030935480
    Two-Electron Energy =                 203.3423694634363414
    Total Energy =                       -399.3406053580793582
 Dipole X            :        -95.8315665          104.4876440            8.6560775
 Dipole Y            :          0.0000000            0.0000000            0.0000000
 Dipole Z            :          0.0000000            0.0000000            0.0000000
 Magnitude           :                                                    8.6560775
  Basis Set: (AUG-CC-PVTZ AUX)
    Blend: AUG-CC-PVTZ-RI + DEF2-QZVPP-RI
	 Reference Energy          =    -399.3406053580793582 [Eh]
	 Singles Energy            =      -0.0000000000000000 [Eh]
	 Same-Spin Energy          =      -0.0724705680726593 [Eh]
	 Opposite-Spin Energy      =      -0.2312685495116809 [Eh]
	 Correlation Energy        =      -0.3037391175843401 [Eh]
	 Total Energy              =    -399.6443444756636723 [Eh]

	 ================> DF-SCS-MP2 Energies <==================
	-----------------------------------------------------------
	 SCS Same-Spin Scale       =       0.3333333333333333 [-]
	 SCS Opposite-Spin Scale   =       1.2000000000000000 [-]
	 SCS Same-Spin Energy      =      -0.0241568560242198 [Eh]
	 SCS Opposite-Spin Energy  =      -0.2775222594140170 [Eh]
	 SCS Correlation Energy    =      -0.3016791154382368 [Eh]
	 SCS Total Energy          =    -399.6422844735175772 [Eh]
	-----------------------------------------------------------

*** Psi4 exiting successfully. Buy a developer a beer!
