                               Psi4 1.8.2 release

  ==> Input File <==

--------------------------------------------------------------------------
MEMORY 60 GB

molecule dimer {
2 1
O          0.000000     0.000000     0.000000
H         -0.588538     0.000000     0.756918
H         -0.588538     0.000000    -0.756918
Na         2.053438     2.053438     0.000000
Na         2.053438    -2.053438     0.000000

units ang
no_reorient
no_com
symmetry c1
}

set {
basis        aug-cc-pVTZ
scf_type     df
}

energy("mp2")
--------------------------------------------------------------------------

    Molecular point group: c1

    Geometry (in Angstrom), charge = 2, multiplicity = 1:

       Center              X                  Y                   Z               Mass
    ------------   -----------------  -----------------  -----------------  -----------------
         O            0.000000000000     0.000000000000     0.000000000000    15.994914619570
         H           -0.588538000000     0.000000000000     0.756918000000     1.007825032230
         H           -0.588538000000     0.000000000000    -0.756918000000     1.007825032230
         NA           2.053438000000     2.053438000000     0.000000000000    22.989769282000
         NA           2.053438000000    -2.053438000000     0.000000000000    22.989769282000

  Charge       = 2
  Multiplicity = 1
  Basis Set: AUG-CC-PVTZ
    Blend: AUG-CC-PVTZ
  Basis Set: (AUG-CC-PVTZ AUX)
    Blend: AUG-CC-PVTZ-JKFIT + DEF2-UNIVERSAL-JKFIT

    Orbital Energies [Eh]
    ---------------------

    Doubly Occupied:

       1A    -40.860432     2A    -40.860432     3A    -20.914871
       4A     -3.172775     5A     -3.172774     6A     -1.896524
       7A     -1.896475     8A     -1.896046     9A     -1.896041
      10A     -1.895362    11A     -1.895319    12A     -1.699872
      13A     -1.061271    14A     -0.945983    15A     -0.864057

  @DF-RHF Final Energy:  -399.33447116430330

   => Energetics <=

    Nuclear Repulsion Energy =             63.6295114897106018
    One-Electron Energy =                -676.0714953084950594
    Two-Electron Energy =                 213.1075126544812122
    Total Energy =                       -399.3344711643032952
 Dipole X            :        -76.5538016           83.1452283            6.5914267
 Dipole Y            :          0.0000000            0.0000000            0.0000000
 Dipole Z            :          0.0000000            0.0000000            0.0000000
 Magnitude           :                                                    6.5914267
  Basis Set: (AUG-CC-PVTZ AUX)
    Blend: AUG-CC-PVTZ-RI + DEF2-QZVPP-RI
	 Reference Energy          =    -399.3344711643032952 [Eh]
	 Singles Energy            =      -0.0000000000000000 [Eh]
	 Same-Spin Energy          =      -0.0730672961614744 [Eh]
	 Opposite-Spin Energy      =      -0.2328242600959642 [Eh]
	 Correlation Energy        =      -0.3058915562574385 [Eh]
	 Total Energy              =    -399.6403627205607449 [Eh]

	 ================> DF-SCS-MP2 Energies <==================
	-----------------------------------------------------------
	 SCS Same-Spin Scale       =       0.3333333333333333 [-]
	 SCS Opposite-Spin Scale   =       1.2000000000000000 [-]
	 SCS Same-Spin Energy      =      -0.0243557653871581 [Eh]
	 SCS Opposite-Spin Energy  =      -0.2793891121151570 [Eh]
	 SCS Correlation Energy    =      -0.3037448775023151 [Eh]
	 SCS Total Energy          =    -399.6382160418056060 [Eh]
	-----------------------------------------------------------

*** Psi4 exiting successfully. Buy a developer a beer!
