                               Psi4 1.9 release

  ==> Input File <==

--------------------------------------------------------------------------
MEMORY 60 GB

molecule dimer {
0 1
O      0.000000     0.000000     0.000000
H     -0.588538     0.000000     0.756918
H     -0.588538     0.000000    -0.756918
--
2 1
Na     1.711198     1.711198     0.000000
Na     1.711198    -1.711198     0.000000

units ang
no_reorient
no_com
symmetry c1
}

set {
basis        aug-cc-pVTZ
scf_type     df
}

energy("mp2", bsse_type="cp")
--------------------------------------------------------------------------

                               Psi4 1.9 release
    Molecular point group: c1
  Charge       = 2
  Multiplicity = 1
  Basis Set: AUG-CC-PVTZ
    Blend: AUG-CC-PVTZ
  Basis Set: (AUG-CC-PVTZ AUX)
    Blend: AUG-CC-PVTZ-JKFIT + DEF2-UNIVERSAL-JKFIT
  @DF-RHF Final Energy:  -323.19772978806151
    Total Energy =                       -323.1977297880615083
 Dipole X            :        -64.6739521           71.1413025            6.4673504
 Dipole Y            :          0.0000000            0.0000000            0.0000000
 Dipole Z            :          0.0000000            0.0000000            0.0000000
 Magnitude           :                                                    6.4673504
  Basis Set: (AUG-CC-PVTZ AUX)
    Blend: AUG-CC-PVTZ-RI + DEF2-QZVPP-RI
	 Reference Energy          =    -323.1977297880615083 [Eh]
	 Singles Energy            =      -0.0000000000000000 [Eh]
	 Same-Spin Energy          =      -0.0056212455526017 [Eh]
	 Opposite-Spin Energy      =      -0.0204156198524016 [Eh]
	 Correlation Energy        =      -0.0260368654050033 [Eh]
	 Total Energy              =    -323.2237666534664982 [Eh]
	 SCS Total Energy          =    -323.2241022804019508 [Eh]
                               Psi4 1.9 release
    Molecular point group: c1
  Multiplicity = 1
  Basis Set: AUG-CC-PVTZ
    Blend: AUG-CC-PVTZ
  Basis Set: (AUG-CC-PVTZ AUX)
    Blend: AUG-CC-PVTZ-JKFIT + DEF2-UNIVERSAL-JKFIT
  @DF-RHF Final Energy:   -76.06062528300130
    Total Energy =                        -76.0606252830012863
  Basis Set: (AUG-CC-PVTZ AUX)
	 Singles Energy            =      -0.0000000000000000 [Eh]
	 Same-Spin Energy          =      -0.0684382513969692 [Eh]
	 Opposite-Spin Energy      =      -0.2158309666859923 [Eh]
	 Correlation Energy        =      -0.2842692180829615 [Eh]
	 Total Energy              =     -76.3448945010842550 [Eh]
	 SCS Total Energy          =     -76.3424351934901466 [Eh]
                               Psi4 1.9 release
    Molecular point group: c1

    Geometry (in Bohr), charge = 2, multiplicity = 1:

       Center              X                  Y                   Z               Mass
    ------------   -----------------  -----------------  -----------------  -----------------
         O            0.000000000000     0.000000000000     0.000000000000    15.994914619570
         H           -1.112175634425     0.000000000000     1.430367719429     1.007825032230
         H           -1.112175634425     0.000000000000    -1.430367719429     1.007825032230
         NA           3.233695566431     3.233695566431     0.000000000000    22.989769282000
         NA           3.233695566431    -3.233695566431     0.000000000000    22.989769282000

  Charge       = 2
  Multiplicity = 1
  Basis Set: AUG-CC-PVTZ
    Blend: AUG-CC-PVTZ
  Basis Set: (AUG-CC-PVTZ AUX)
    Blend: AUG-CC-PVTZ-JKFIT + DEF2-UNIVERSAL-JKFIT

    Orbital Energies [Eh]
    ---------------------

    Doubly Occupied:

       1A    -40.867554     2A    -40.867554     3A    -20.969627
       4A     -3.182000     5A     -3.181967     6A     -1.906389
       7A     -1.905785     8A     -1.905322     9A     -1.905267
      10A     -1.905027    11A     -1.904398    12A     -1.758310
      13A     -1.118191    14A     -1.011579    15A     -0.927043

  @DF-RHF Final Energy:  -399.32563220173972

   => Energetics <=

    Nuclear Repulsion Energy =             74.2285370945366338
    One-Electron Energy =                -696.4763123456481253
    Two-Electron Energy =                 222.9221430493717833
    Total Energy =                       -399.3256322017397224
 Dipole X            :        -63.7034188           68.9169512            5.2135324
 Dipole Y            :          0.0000000            0.0000000            0.0000000
 Dipole Z            :          0.0000000            0.0000000            0.0000000
 Magnitude           :                                                    5.2135324
  Basis Set: (AUG-CC-PVTZ AUX)
    Blend: AUG-CC-PVTZ-RI + DEF2-QZVPP-RI
	 Reference Energy          =    -399.3256322017397224 [Eh]
	 Singles Energy            =      -0.0000000000000000 [Eh]
	 Same-Spin Energy          =      -0.0736385426795486 [Eh]
	 Opposite-Spin Energy      =      -0.2340457603175286 [Eh]
	 Correlation Energy        =      -0.3076843029970773 [Eh]
	 Total Energy              =    -399.6333165047367970 [Eh]

	 ================> DF-SCS-MP2 Energies <==================
	-----------------------------------------------------------
	 SCS Same-Spin Scale       =       0.3333333333333333 [-]
	 SCS Opposite-Spin Scale   =       1.2000000000000000 [-]
	 SCS Same-Spin Energy      =      -0.0245461808931829 [Eh]
	 SCS Opposite-Spin Energy  =      -0.2808549123810343 [Eh]
	 SCS Correlation Energy    =      -0.3054010932742172 [Eh]
	 SCS Total Energy          =    -399.6310332950139355 [Eh]
	-----------------------------------------------------------

*** Psi4 exiting successfully. Buy a developer a beer!
