                               Psi4 1.9 release

  ==> Input File <==

--------------------------------------------------------------------------
MEMORY 60 GB

molecule dimer {
0 1
O      0.000000     0.000000     0.000000
H     -0.588538     0.000000     0.756918
H     -0.588538     0.000000    -0.756918
--
2 1
K      2.752060     2.752060     0.000000
K      2.752060    -2.752060     0.000000

units ang
no_reorient
no_com
symmetry c1
}

set {
basis        aug-cc-pVTZ
scf_type     df
}

energy("mp2", bsse_type="cp")
--------------------------------------------------------------------------

                               Psi4 1.9 release
    Molecular point group: c1
  Charge       = 2
  Multiplicity = 1
  Basis Set: AUG-CC-PVTZ
    Blend: AUG-CC-PVTZ
  Basis Set: (AUG-CC-PVTZ AUX)
    Blend: AUG-CC-PVTZ-JKFIT + DEF2-UNIVERSAL-JKFIT
  @DF-RHF Final Energy: -1197.93930194024801
    Total Energy =                      -1197.9393019402477876
 Dipole X            :       -187.2232858          197.6243079           10.4010221
 Dipole Y            :         -0.0000000            0.0000000           -0.0000000
 Dipole Z            :          0.0000000            0.0000000            0.0000000
 Magnitude           :                                                   10.4010221
  Basis Set: (AUG-CC-PVTZ AUX)
    Blend: AUG-CC-PVTZ-RI + DEF2-QZVPP-RI
	 Reference Energy          =   -1197.9393019402480149 [Eh]
	 Singles Energy            =      -0.0000000000000000 [Eh]
	 Same-Spin Energy          =      -0.0536381876976441 [Eh]
	 Opposite-Spin Energy      =      -0.1241239672941447 [Eh]
	 Correlation Energy        =      -0.1777621549917887 [Eh]
	 Total Energy              =   -1198.1170640952398116 [Eh]
	 SCS Total Energy          =   -1198.1061300969001877 [Eh]
                               Psi4 1.9 release
    Molecular point group: c1
  Multiplicity = 1
  Basis Set: AUG-CC-PVTZ
    Blend: AUG-CC-PVTZ
  Basis Set: (AUG-CC-PVTZ AUX)
    Blend: AUG-CC-PVTZ-JKFIT + DEF2-UNIVERSAL-JKFIT
  @DF-RHF Final Energy:   -76.06049797757370
    Total Energy =                        -76.0604979775737036
  Basis Set: (AUG-CC-PVTZ AUX)
	 Singles Energy            =      -0.0000000000000000 [Eh]
	 Same-Spin Energy          =      -0.0683838738180584 [Eh]
	 Opposite-Spin Energy      =      -0.2153730602488346 [Eh]
	 Correlation Energy        =      -0.2837569340668930 [Eh]
	 Total Energy              =     -76.3442549116405900 [Eh]
	 SCS Total Energy          =     -76.3417402744783260 [Eh]
                               Psi4 1.9 release
    Molecular point group: c1

    Geometry (in Bohr), charge = 2, multiplicity = 1:

       Center              X                  Y                   Z               Mass
    ------------   -----------------  -----------------  -----------------  -----------------
         O            0.000000000000     0.000000000000     0.000000000000    15.994914619570
         H           -1.112175634425     0.000000000000     1.430367719429     1.007825032230
         H           -1.112175634425     0.000000000000    -1.430367719429     1.007825032230
         K            5.200639680827     5.200639680827     0.000000000000    38.963706486400
         K            5.200639680827    -5.200639680827     0.000000000000    38.963706486400

  Charge       = 2
  Multiplicity = 1
  Basis Set: AUG-CC-PVTZ
    Blend: AUG-CC-PVTZ
  Basis Set: (AUG-CC-PVTZ AUX)
    Blend: AUG-CC-PVTZ-JKFIT + DEF2-UNIVERSAL-JKFIT

    Orbital Energies [Eh]
    ---------------------

    Doubly Occupied:

       1A   -133.834966     2A   -133.834966     3A    -20.828979
       4A    -14.790406     5A    -14.790406     6A    -11.820494
       7A    -11.820494     8A    -11.820469     9A    -11.820469
      10A    -11.820443    11A    -11.820443    12A     -2.045549
      13A     -2.045547    14A     -1.614420    15A     -1.252834
      16A     -1.252775    17A     -1.252148    18A     -1.252143
      19A     -1.251468    20A     -1.251454    21A     -0.977218
      22A     -0.854115    23A     -0.775119

  @DF-RHF Final Energy: -1274.02586188605392

   => Energetics <=

    Nuclear Repulsion Energy =             94.3739561963172946
    One-Electron Energy =               -1927.1449860130012439
    Two-Electron Energy =                 558.7451679306300321
    Total Energy =                      -1274.0258618860539173
 Dipole X            :       -186.0242609          195.3999566            9.3756957
 Dipole Y            :         -0.0000000            0.0000000           -0.0000000
 Dipole Z            :         -0.0000000            0.0000000           -0.0000000
 Magnitude           :                                                    9.3756957
  Basis Set: (AUG-CC-PVTZ AUX)
    Blend: AUG-CC-PVTZ-RI + DEF2-QZVPP-RI
	 Reference Energy          =   -1274.0258618860539173 [Eh]
	 Singles Energy            =      -0.0000000000000000 [Eh]
	 Same-Spin Energy          =      -0.1221471803012821 [Eh]
	 Opposite-Spin Energy      =      -0.3390994564106965 [Eh]
	 Correlation Energy        =      -0.4612466367119786 [Eh]
	 Total Energy              =   -1274.4871085227659933 [Eh]

	 ================> DF-SCS-MP2 Energies <==================
	-----------------------------------------------------------
	 SCS Same-Spin Scale       =       0.3333333333333333 [-]
	 SCS Opposite-Spin Scale   =       1.2000000000000000 [-]
	 SCS Same-Spin Energy      =      -0.0407157267670940 [Eh]
	 SCS Opposite-Spin Energy  =      -0.4069193476928358 [Eh]
	 SCS Correlation Energy    =      -0.4476350744599298 [Eh]
	 SCS Total Energy          =   -1274.4734969605137849 [Eh]
	-----------------------------------------------------------

*** Psi4 exiting successfully. Buy a developer a beer!
