                               Psi4 1.9 release

  ==> Input File <==

--------------------------------------------------------------------------
MEMORY 60 GB

molecule dimer {
2 1
O          0.000000     0.000000     0.000000
H         -0.588538     0.000000     0.756918
H         -0.588538     0.000000    -0.756918
K          2.948635     2.948635     0.000000
K          2.948635    -2.948635     0.000000

units ang
no_reorient
no_com
symmetry c1
}

set {
basis        aug-cc-pVTZ
scf_type     df
}

energy("mp2")
--------------------------------------------------------------------------

    Molecular point group: c1

    Geometry (in Angstrom), charge = 2, multiplicity = 1:

       Center              X                  Y                   Z               Mass
    ------------   -----------------  -----------------  -----------------  -----------------
         O            0.000000000000     0.000000000000     0.000000000000    15.994914619570
         H           -0.588538000000     0.000000000000     0.756918000000     1.007825032230
         H           -0.588538000000     0.000000000000    -0.756918000000     1.007825032230
         K            2.948635000000     2.948635000000     0.000000000000    38.963706486400
         K            2.948635000000    -2.948635000000     0.000000000000    38.963706486400

  Charge       = 2
  Multiplicity = 1
  Basis Set: AUG-CC-PVTZ
    Blend: AUG-CC-PVTZ
  Basis Set: (AUG-CC-PVTZ AUX)
    Blend: AUG-CC-PVTZ-JKFIT + DEF2-UNIVERSAL-JKFIT

    Orbital Energies [Eh]
    ---------------------

    Doubly Occupied:

       1A   -133.830960     2A   -133.830960     3A    -20.812029
       4A    -14.786386     5A    -14.786386     6A    -11.816469
       7A    -11.816469     8A    -11.816448     9A    -11.816448
      10A    -11.816430    11A    -11.816430    12A     -2.041491
      13A     -2.041491    14A     -1.597528    15A     -1.248619
      16A     -1.248598    17A     -1.248051    18A     -1.248049
      19A     -1.247555    20A     -1.247550    21A     -0.960505
      22A     -0.836239    23A     -0.757736

  @DF-RHF Final Energy: -1274.02849095558213

   => Energetics <=

    Nuclear Repulsion Energy =             88.7693610439526140
    One-Electron Energy =               -1916.2580404554521465
    Two-Electron Energy =                 553.4601884559175460
    Total Energy =                      -1274.0284909555821287
 Dipole X            :       -199.3650935          209.5159273           10.1508338
 Dipole Y            :         -0.0000000            0.0000000           -0.0000000
 Dipole Z            :          0.0000000            0.0000000            0.0000000
 Magnitude           :                                                   10.1508338
  Basis Set: (AUG-CC-PVTZ AUX)
    Blend: AUG-CC-PVTZ-RI + DEF2-QZVPP-RI
	 Reference Energy          =   -1274.0284909555821287 [Eh]
	 Singles Energy            =      -0.0000000000000000 [Eh]
	 Same-Spin Energy          =      -0.1214667808265502 [Eh]
	 Opposite-Spin Energy      =      -0.3374412090564352 [Eh]
	 Correlation Energy        =      -0.4589079898829854 [Eh]
	 Total Energy              =   -1274.4873989454652019 [Eh]

	 ================> DF-SCS-MP2 Energies <==================
	-----------------------------------------------------------
	 SCS Same-Spin Scale       =       0.3333333333333333 [-]
	 SCS Opposite-Spin Scale   =       1.2000000000000000 [-]
	 SCS Same-Spin Energy      =      -0.0404889269421834 [Eh]
	 SCS Opposite-Spin Energy  =      -0.4049294508677223 [Eh]
	 SCS Correlation Energy    =      -0.4454183778099057 [Eh]
	 SCS Total Energy          =   -1274.4739093333919300 [Eh]
	-----------------------------------------------------------

*** Psi4 exiting successfully. Buy a developer a beer!
