                               Psi4 1.9 release

  ==> Input File <==

--------------------------------------------------------------------------
MEMORY 60 GB

molecule dimer {
1 1
Gh(O)      0.000000     0.000000     0.000000
Gh(H)     -0.588538     0.000000     0.756918
Gh(H)     -0.588538     0.000000    -0.756918
Gh(K)      1.965757     1.965757     0.000000
K          1.965757    -1.965757     0.000000

units ang
no_reorient
no_com
symmetry c1
}

set {
basis        aug-cc-pVTZ
scf_type     df
}

energy("mp2")
--------------------------------------------------------------------------

    Molecular point group: c1

    Geometry (in Angstrom), charge = 1, multiplicity = 1:

       Center              X                  Y                   Z               Mass
    ------------   -----------------  -----------------  -----------------  -----------------
      Gh(O)           0.000000000000     0.000000000000     0.000000000000    15.994914619570
      Gh(H)          -0.588538000000     0.000000000000     0.756918000000     1.007825032230
      Gh(H)          -0.588538000000     0.000000000000    -0.756918000000     1.007825032230
      Gh(K)           1.965757000000     1.965757000000     0.000000000000    38.963706486400
         K            1.965757000000    -1.965757000000     0.000000000000    38.963706486400

  Charge       = 1
  Multiplicity = 1
  Basis Set: AUG-CC-PVTZ
    Blend: AUG-CC-PVTZ
  Basis Set: (AUG-CC-PVTZ AUX)
    Blend: AUG-CC-PVTZ-JKFIT + DEF2-UNIVERSAL-JKFIT

    Orbital Energies [Eh]
    ---------------------

    Doubly Occupied:

       1A   -133.753484     2A    -14.708984     3A    -11.739053
       4A    -11.739049     5A    -11.739049     6A     -1.964248
       7A     -1.170902     8A     -1.170863     9A     -1.170845

  @DF-RHF Final Energy:  -599.01750982963642

   => Energetics <=

    Nuclear Repulsion Energy =              0.0000000000000000
    One-Electron Energy =                -819.7220666718814073
    Two-Electron Energy =                 220.7045568422449833
    Total Energy =                       -599.0175098296364240
 Dipole X            :        -66.8656214           70.5801048            3.7144835
 Dipole Y            :         66.8657228          -70.5801048           -3.7143820
 Dipole Z            :          0.0000000            0.0000000            0.0000000
 Magnitude           :                                                    5.2530012
  Basis Set: (AUG-CC-PVTZ AUX)
    Blend: AUG-CC-PVTZ-RI + DEF2-QZVPP-RI
	 Reference Energy          =    -599.0175098296364240 [Eh]
	 Singles Energy            =      -0.0000000000000000 [Eh]
	 Same-Spin Energy          =      -0.0295370662857526 [Eh]
	 Opposite-Spin Energy      =      -0.0696987578132172 [Eh]
	 Correlation Energy        =      -0.0992358240989699 [Eh]
	 Total Energy              =    -599.1167456537353928 [Eh]

	 ================> DF-SCS-MP2 Energies <==================
	-----------------------------------------------------------
	 SCS Same-Spin Scale       =       0.3333333333333333 [-]
	 SCS Opposite-Spin Scale   =       1.2000000000000000 [-]
	 SCS Same-Spin Energy      =      -0.0098456887619175 [Eh]
	 SCS Opposite-Spin Energy  =      -0.0836385093758607 [Eh]
	 SCS Correlation Energy    =      -0.0934841981377782 [Eh]
	 SCS Total Energy          =    -599.1109940277741543 [Eh]
	-----------------------------------------------------------

*** Psi4 exiting successfully. Buy a developer a beer!
