                               Psi4 1.9 release

  ==> Input File <==

--------------------------------------------------------------------------
MEMORY 60 GB

molecule dimer {
0 1
O      0.000000     0.000000     0.000000
H     -0.588538     0.000000     0.756918
H     -0.588538     0.000000    -0.756918
--
1 1
K      2.752060     2.752060     0.000000
--
1 1
K      2.752060    -2.752060     0.000000

units ang
no_reorient
no_com
symmetry c1
}

set {
basis        aug-cc-pVTZ
scf_type     df
}

energy("mp2", bsse_type="cp")
--------------------------------------------------------------------------

                               Psi4 1.9 release
    Molecular point group: c1
  Charge       = 0
  Multiplicity = 1
  Basis Set: AUG-CC-PVTZ
    Blend: AUG-CC-PVTZ
  Basis Set: (AUG-CC-PVTZ AUX)
    Blend: AUG-CC-PVTZ-JKFIT + DEF2-UNIVERSAL-JKFIT
  @DF-RHF Final Energy:   -76.06049797757373
    Total Energy =                        -76.0604979775737320
 Dipole X            :          1.4418241           -2.2243513           -0.7825272
 Dipole Y            :          0.0000000            0.0000000            0.0000000
 Dipole Z            :         -0.0000000            0.0000000           -0.0000000
 Magnitude           :                                                    0.7825272
  Basis Set: (AUG-CC-PVTZ AUX)
    Blend: AUG-CC-PVTZ-RI + DEF2-QZVPP-RI
	 Reference Energy          =     -76.0604979775737320 [Eh]
	 Singles Energy            =      -0.0000000000000000 [Eh]
	 Same-Spin Energy          =      -0.0683838738180596 [Eh]
	 Opposite-Spin Energy      =      -0.2153730602488375 [Eh]
	 Correlation Energy        =      -0.2837569340668971 [Eh]
	 Total Energy              =     -76.3442549116406326 [Eh]
	 SCS Total Energy          =     -76.3417402744783544 [Eh]
                               Psi4 1.9 release
    Molecular point group: c1
  Basis Set: AUG-CC-PVTZ
    Blend: AUG-CC-PVTZ
  Basis Set: (AUG-CC-PVTZ AUX)
    Blend: AUG-CC-PVTZ-JKFIT + DEF2-UNIVERSAL-JKFIT
  @DF-RHF Final Energy:  -599.01750749095572
    Total Energy =                       -599.0175074909557225
  Basis Set: (AUG-CC-PVTZ AUX)
                               Psi4 1.9 release
  @DF-RHF Final Energy: -1197.93930194024824
    Total Energy =                      -1197.9393019402482423
                               Psi4 1.9 release
  @DF-RHF Final Energy:  -675.09115558730878
    Total Energy =                       -675.0911555873087764
                               Psi4 1.9 release
  @DF-RHF Final Energy:  -675.09115558732435
    Total Energy =                       -675.0911555873243515
                               Psi4 1.9 release
  Multiplicity = 1
  @DF-RHF Final Energy:  -599.01750749094299
    Total Energy =                       -599.0175074909429895
	 Singles Energy            =      -0.0000000000000000 [Eh]
	 Same-Spin Energy          =      -0.0268143071608302 [Eh]
	 Opposite-Spin Energy      =      -0.0620535341576841 [Eh]
	 Correlation Energy        =      -0.0888678413185143 [Eh]
	 Total Energy              =    -599.1063753322614502 [Eh]
	 SCS Total Energy          =    -599.1009098343191681 [Eh]
                               Psi4 1.9 release
    Molecular point group: c1

    Geometry (in Bohr), charge = 2, multiplicity = 1:

       Center              X                  Y                   Z               Mass
    ------------   -----------------  -----------------  -----------------  -----------------
         O            0.000000000000     0.000000000000     0.000000000000    15.994914619570
         H           -1.112175634425     0.000000000000     1.430367719429     1.007825032230
         H           -1.112175634425     0.000000000000    -1.430367719429     1.007825032230
         K            5.200639680827     5.200639680827     0.000000000000    38.963706486400
         K            5.200639680827    -5.200639680827     0.000000000000    38.963706486400

  Charge       = 2
  Multiplicity = 1
  Basis Set: AUG-CC-PVTZ
    Blend: AUG-CC-PVTZ
  Basis Set: (AUG-CC-PVTZ AUX)
    Blend: AUG-CC-PVTZ-JKFIT + DEF2-UNIVERSAL-JKFIT

    Orbital Energies [Eh]
    ---------------------

    Doubly Occupied:

       1A   -133.834966     2A   -133.834966     3A    -20.828979
       4A    -14.790406     5A    -14.790406     6A    -11.820494
       7A    -11.820494     8A    -11.820469     9A    -11.820469
      10A    -11.820443    11A    -11.820443    12A     -2.045549
      13A     -2.045547    14A     -1.614420    15A     -1.252834
      16A     -1.252775    17A     -1.252148    18A     -1.252143
      19A     -1.251468    20A     -1.251454    21A     -0.977218
      22A     -0.854115    23A     -0.775119

  @DF-RHF Final Energy: -1274.02586188605551

   => Energetics <=

    Nuclear Repulsion Energy =             94.3739561963172946
    One-Electron Energy =               -1927.1449860157622425
    Two-Electron Energy =                 558.7451679333894390
    Total Energy =                      -1274.0258618860555089
 Dipole X            :       -186.0242609          195.3999566            9.3756957
 Dipole Y            :         -0.0000000            0.0000000           -0.0000000
 Dipole Z            :          0.0000000            0.0000000            0.0000000
 Magnitude           :                                                    9.3756957
  Basis Set: (AUG-CC-PVTZ AUX)
    Blend: AUG-CC-PVTZ-RI + DEF2-QZVPP-RI
	 Reference Energy          =   -1274.0258618860555089 [Eh]
	 Singles Energy            =      -0.0000000000000000 [Eh]
	 Same-Spin Energy          =      -0.1221471803017260 [Eh]
	 Opposite-Spin Energy      =      -0.3390994564121793 [Eh]
	 Correlation Energy        =      -0.4612466367139053 [Eh]
	 Total Energy              =   -1274.4871085227694039 [Eh]

	 ================> DF-SCS-MP2 Energies <==================
	-----------------------------------------------------------
	 SCS Same-Spin Scale       =       0.3333333333333333 [-]
	 SCS Opposite-Spin Scale   =       1.2000000000000000 [-]
	 SCS Same-Spin Energy      =      -0.0407157267672420 [Eh]
	 SCS Opposite-Spin Energy  =      -0.4069193476946152 [Eh]
	 SCS Correlation Energy    =      -0.4476350744618572 [Eh]
	 SCS Total Energy          =   -1274.4734969605174228 [Eh]
	-----------------------------------------------------------

*** Psi4 exiting successfully. Buy a developer a beer!
