                               Psi4 1.9 release

  ==> Input File <==

--------------------------------------------------------------------------
MEMORY 60 GB

molecule dimer {
0 1
O      0.000000     0.000000     0.000000
H     -0.588538     0.000000     0.756918
H     -0.588538     0.000000    -0.756918
--
1 1
K      1.965757     1.965757     0.000000
--
1 1
K      1.965757    -1.965757     0.000000

units ang
no_reorient
no_com
symmetry c1
}

set {
basis        aug-cc-pVTZ
scf_type     df
}

energy("mp2", bsse_type="cp")
--------------------------------------------------------------------------

                               Psi4 1.9 release
    Molecular point group: c1
  Charge       = 0
  Multiplicity = 1
  Basis Set: AUG-CC-PVTZ
    Blend: AUG-CC-PVTZ
  Basis Set: (AUG-CC-PVTZ AUX)
    Blend: AUG-CC-PVTZ-JKFIT + DEF2-UNIVERSAL-JKFIT
  @DF-RHF Final Energy:   -76.06053024809131
    Total Energy =                        -76.0605302480913110
 Dipole X            :          1.4425737           -2.2243513           -0.7817775
 Dipole Y            :         -0.0000000            0.0000000           -0.0000000
 Dipole Z            :         -0.0000000            0.0000000           -0.0000000
 Magnitude           :                                                    0.7817775
  Basis Set: (AUG-CC-PVTZ AUX)
    Blend: AUG-CC-PVTZ-RI + DEF2-QZVPP-RI
	 Reference Energy          =     -76.0605302480913110 [Eh]
	 Singles Energy            =      -0.0000000000000000 [Eh]
	 Same-Spin Energy          =      -0.0684034707138625 [Eh]
	 Opposite-Spin Energy      =      -0.2155185235487297 [Eh]
	 Correlation Energy        =      -0.2839219942625922 [Eh]
	 Total Energy              =     -76.3444522423539098 [Eh]
	 SCS Total Energy          =     -76.3419536332544055 [Eh]
                               Psi4 1.9 release
    Molecular point group: c1
  Basis Set: AUG-CC-PVTZ
    Blend: AUG-CC-PVTZ
  Basis Set: (AUG-CC-PVTZ AUX)
    Blend: AUG-CC-PVTZ-JKFIT + DEF2-UNIVERSAL-JKFIT
  @DF-RHF Final Energy:  -599.01750982961516
    Total Energy =                       -599.0175098296151646
  Basis Set: (AUG-CC-PVTZ AUX)
                               Psi4 1.9 release
  @DF-RHF Final Energy: -1197.90211698851886
    Total Energy =                      -1197.9021169885190830
                               Psi4 1.9 release
  @DF-RHF Final Energy:  -675.10123879471882
    Total Energy =                       -675.1012387947187108
                               Psi4 1.9 release
  @DF-RHF Final Energy:  -675.10123879469836
    Total Energy =                       -675.1012387946983608
                               Psi4 1.9 release
  Multiplicity = 1
  @DF-RHF Final Energy:  -599.01750982963779
    Total Energy =                       -599.0175098296379019
	 Singles Energy            =      -0.0000000000000000 [Eh]
	 Same-Spin Energy          =      -0.0295370662839306 [Eh]
	 Opposite-Spin Energy      =      -0.0696987578097043 [Eh]
	 Correlation Energy        =      -0.0992358240936350 [Eh]
	 Total Energy              =    -599.1167456537314138 [Eh]
	 SCS Total Energy          =    -599.1109940277707437 [Eh]
                               Psi4 1.9 release
    Molecular point group: c1

    Geometry (in Bohr), charge = 2, multiplicity = 1:

       Center              X                  Y                   Z               Mass
    ------------   -----------------  -----------------  -----------------  -----------------
         O            0.000000000000     0.000000000000     0.000000000000    15.994914619570
         H           -1.112175634425     0.000000000000     1.430367719429     1.007825032230
         H           -1.112175634425     0.000000000000    -1.430367719429     1.007825032230
         K            3.714742359202     3.714742359202     0.000000000000    38.963706486400
         K            3.714742359202    -3.714742359202     0.000000000000    38.963706486400

  Charge       = 2
  Multiplicity = 1
  Basis Set: AUG-CC-PVTZ
    Blend: AUG-CC-PVTZ
  Basis Set: (AUG-CC-PVTZ AUX)
    Blend: AUG-CC-PVTZ-JKFIT + DEF2-UNIVERSAL-JKFIT

    Orbital Energies [Eh]
    ---------------------

    Doubly Occupied:

       1A   -133.852445     2A   -133.852445     3A    -20.919022
       4A    -14.808428     5A    -14.808428     6A    -11.838513
       7A    -11.838513     8A    -11.838462     9A    -11.838462
      10A    -11.838354    11A    -11.838354    12A     -2.065408
      13A     -2.065078    14A     -1.709358    15A     -1.275838
      16A     -1.272541    17A     -1.272469    18A     -1.272107
      19A     -1.271225    20A     -1.270631    21A     -1.069631
      22A     -0.954641    23A     -0.873129

  @DF-RHF Final Energy: -1274.00752154625570

   => Energetics <=

    Nuclear Repulsion Energy =            127.7845064107809776
    One-Electron Energy =               -1992.2970936842884839
    Two-Electron Energy =                 590.5050657272519175
    Total Energy =                      -1274.0075215462557026
 Dipole X            :       -132.7196803          138.9358584            6.2161780
 Dipole Y            :         -0.0000000            0.0000000           -0.0000000
 Dipole Z            :         -0.0000000            0.0000000           -0.0000000
 Magnitude           :                                                    6.2161780
  Basis Set: (AUG-CC-PVTZ AUX)
    Blend: AUG-CC-PVTZ-RI + DEF2-QZVPP-RI
	 Reference Energy          =   -1274.0075215462557026 [Eh]
	 Singles Energy            =      -0.0000000000000000 [Eh]
	 Same-Spin Energy          =      -0.1288283097683664 [Eh]
	 Opposite-Spin Energy      =      -0.3549374521045659 [Eh]
	 Correlation Energy        =      -0.4837657618729323 [Eh]
	 Total Energy              =   -1274.4912873081286762 [Eh]

	 ================> DF-SCS-MP2 Energies <==================
	-----------------------------------------------------------
	 SCS Same-Spin Scale       =       0.3333333333333333 [-]
	 SCS Opposite-Spin Scale   =       1.2000000000000000 [-]
	 SCS Same-Spin Energy      =      -0.0429427699227888 [Eh]
	 SCS Opposite-Spin Energy  =      -0.4259249425254791 [Eh]
	 SCS Correlation Energy    =      -0.4688677124482679 [Eh]
	 SCS Total Energy          =   -1274.4763892587038754 [Eh]
	-----------------------------------------------------------

*** Psi4 exiting successfully. Buy a developer a beer!
