                               Psi4 1.9 release

  ==> Input File <==

--------------------------------------------------------------------------
MEMORY 60 GB

molecule dimer {
2 1
O          0.000000     0.000000     0.000000
H         -0.588538     0.000000     0.756918
H         -0.588538     0.000000    -0.756918
K          3.931514     3.931514     0.000000
K          3.931514    -3.931514     0.000000

units ang
no_reorient
no_com
symmetry c1
}

set {
basis        aug-cc-pVTZ
scf_type     df
}

energy("mp2")
--------------------------------------------------------------------------

    Molecular point group: c1

    Geometry (in Angstrom), charge = 2, multiplicity = 1:

       Center              X                  Y                   Z               Mass
    ------------   -----------------  -----------------  -----------------  -----------------
         O            0.000000000000     0.000000000000     0.000000000000    15.994914619570
         H           -0.588538000000     0.000000000000     0.756918000000     1.007825032230
         H           -0.588538000000     0.000000000000    -0.756918000000     1.007825032230
         K            3.931514000000     3.931514000000     0.000000000000    38.963706486400
         K            3.931514000000    -3.931514000000     0.000000000000    38.963706486400

  Charge       = 2
  Multiplicity = 1
  Basis Set: AUG-CC-PVTZ
    Blend: AUG-CC-PVTZ
  Basis Set: (AUG-CC-PVTZ AUX)
    Blend: AUG-CC-PVTZ-JKFIT + DEF2-UNIVERSAL-JKFIT

    Orbital Energies [Eh]
    ---------------------

    Doubly Occupied:

       1A   -133.814906     2A   -133.814906     3A    -20.752055
       4A    -14.770315     5A    -14.770315     6A    -11.800385
       7A    -11.800385     8A    -11.800374     9A    -11.800374
      10A    -11.800370    11A    -11.800370    12A     -2.025376
      13A     -2.025376    14A     -1.537745    15A     -1.232163
      16A     -1.232163    17A     -1.231890    18A     -1.231890
      19A     -1.231765    20A     -1.231765    21A     -0.901124
      22A     -0.773585    23A     -0.696628

  @DF-RHF Final Energy: -1274.04015573844140

   => Energetics <=

    Nuclear Repulsion Energy =             69.0691546057229715
    One-Electron Energy =               -1878.0661643545943207
    Two-Electron Energy =                 534.9568540104297654
    Total Energy =                      -1274.0401557384416265
 Dipole X            :       -266.1339281          280.0960680           13.9621400
 Dipole Y            :         -0.0000000            0.0000000           -0.0000000
 Dipole Z            :         -0.0000000            0.0000000           -0.0000000
 Magnitude           :                                                   13.9621400
  Basis Set: (AUG-CC-PVTZ AUX)
    Blend: AUG-CC-PVTZ-RI + DEF2-QZVPP-RI
	 Reference Energy          =   -1274.0401557384413991 [Eh]
	 Singles Energy            =      -0.0000000000000000 [Eh]
	 Same-Spin Energy          =      -0.1196190736078871 [Eh]
	 Opposite-Spin Energy      =      -0.3326224041116296 [Eh]
	 Correlation Energy        =      -0.4522414777195167 [Eh]
	 Total Energy              =   -1274.4923972161609527 [Eh]

	 ================> DF-SCS-MP2 Energies <==================
	-----------------------------------------------------------
	 SCS Same-Spin Scale       =       0.3333333333333333 [-]
	 SCS Opposite-Spin Scale   =       1.2000000000000000 [-]
	 SCS Same-Spin Energy      =      -0.0398730245359624 [Eh]
	 SCS Opposite-Spin Energy  =      -0.3991468849339555 [Eh]
	 SCS Correlation Energy    =      -0.4390199094699179 [Eh]
	 SCS Total Energy          =   -1274.4791756479112337 [Eh]
	-----------------------------------------------------------

*** Psi4 exiting successfully. Buy a developer a beer!
