                               Psi4 1.9 release

  ==> Input File <==

--------------------------------------------------------------------------
MEMORY 60 GB

molecule dimer {
0 1
O          0.000000     0.000000     0.000000
H         -0.588538     0.000000     0.756918
H         -0.588538     0.000000    -0.756918
Gh(K)      2.162333     2.162333     0.000000
Gh(K)      2.162333    -2.162333     0.000000

units ang
no_reorient
no_com
symmetry c1
}

set {
basis        aug-cc-pVTZ
scf_type     df
}

energy("mp2")
--------------------------------------------------------------------------

    Molecular point group: c1

    Geometry (in Angstrom), charge = 0, multiplicity = 1:

       Center              X                  Y                   Z               Mass
    ------------   -----------------  -----------------  -----------------  -----------------
         O            0.000000000000     0.000000000000     0.000000000000    15.994914619570
         H           -0.588538000000     0.000000000000     0.756918000000     1.007825032230
         H           -0.588538000000     0.000000000000    -0.756918000000     1.007825032230
      Gh(K)           2.162333000000     2.162333000000     0.000000000000    38.963706486400
      Gh(K)           2.162333000000    -2.162333000000     0.000000000000    38.963706486400

  Charge       = 0
  Multiplicity = 1
  Basis Set: AUG-CC-PVTZ
    Blend: AUG-CC-PVTZ
  Basis Set: (AUG-CC-PVTZ AUX)
    Blend: AUG-CC-PVTZ-JKFIT + DEF2-UNIVERSAL-JKFIT

    Orbital Energies [Eh]
    ---------------------

    Doubly Occupied:

       1A    -20.567513     2A     -1.352932     3A     -0.716467
       4A     -0.585099     5A     -0.510288

  @DF-RHF Final Energy:   -76.06052048815010

   => Energetics <=

    Nuclear Repulsion Energy =              9.1801978479270687
    One-Electron Energy =                -123.0168346581892393
    Two-Electron Energy =                  37.7761163221120739
    Total Energy =                        -76.0605204881501038
 Dipole X            :          1.4425720           -2.2243513           -0.7817793
 Dipole Y            :          0.0000000            0.0000000            0.0000000
 Dipole Z            :          0.0000000            0.0000000            0.0000000
 Magnitude           :                                                    0.7817793
  Basis Set: (AUG-CC-PVTZ AUX)
    Blend: AUG-CC-PVTZ-RI + DEF2-QZVPP-RI
	 Reference Energy          =     -76.0605204881501038 [Eh]
	 Singles Energy            =      -0.0000000000000000 [Eh]
	 Same-Spin Energy          =      -0.0683983868992391 [Eh]
	 Opposite-Spin Energy      =      -0.2154741881092543 [Eh]
	 Correlation Energy        =      -0.2838725750084934 [Eh]
	 Total Energy              =     -76.3443930631585914 [Eh]

	 ================> DF-SCS-MP2 Energies <==================
	-----------------------------------------------------------
	 SCS Same-Spin Scale       =       0.3333333333333333 [-]
	 SCS Opposite-Spin Scale   =       1.2000000000000000 [-]
	 SCS Same-Spin Energy      =      -0.0227994622997464 [Eh]
	 SCS Opposite-Spin Energy  =      -0.2585690257311051 [Eh]
	 SCS Correlation Energy    =      -0.2813684880308515 [Eh]
	 SCS Total Energy          =     -76.3418889761809538 [Eh]
	-----------------------------------------------------------

*** Psi4 exiting successfully. Buy a developer a beer!
