                               Psi4 1.9 release

  ==> Input File <==

--------------------------------------------------------------------------
MEMORY 60 GB

molecule dimer {
0 1
O      0.000000     0.000000     0.000000
H     -0.588538     0.000000     0.756918
H     -0.588538     0.000000    -0.756918
--
2 1
K      2.358908     2.358908     0.000000
K      2.358908    -2.358908     0.000000

units ang
no_reorient
no_com
symmetry c1
}

set {
basis        aug-cc-pVTZ
scf_type     df
}

energy("mp2", bsse_type="cp")
--------------------------------------------------------------------------

                               Psi4 1.9 release
    Molecular point group: c1
  Charge       = 2
  Multiplicity = 1
  Basis Set: AUG-CC-PVTZ
    Blend: AUG-CC-PVTZ
  Basis Set: (AUG-CC-PVTZ AUX)
    Blend: AUG-CC-PVTZ-JKFIT + DEF2-UNIVERSAL-JKFIT
  @DF-RHF Final Energy: -1197.92365844492110
    Total Energy =                      -1197.9236584449211023
 Dipole X            :       -160.4770145          169.3922229            8.9152084
 Dipole Y            :         -0.0000000            0.0000000           -0.0000000
 Dipole Z            :          0.0000000            0.0000000            0.0000000
 Magnitude           :                                                    8.9152084
  Basis Set: (AUG-CC-PVTZ AUX)
    Blend: AUG-CC-PVTZ-RI + DEF2-QZVPP-RI
	 Reference Energy          =   -1197.9236584449211023 [Eh]
	 Singles Energy            =      -0.0000000000000000 [Eh]
	 Same-Spin Energy          =      -0.0556009101330513 [Eh]
	 Opposite-Spin Energy      =      -0.1294436906035647 [Eh]
	 Correlation Energy        =      -0.1850446007366160 [Eh]
	 Total Energy              =   -1198.1087030456576485 [Eh]
	 SCS Total Energy          =   -1198.0975245103563793 [Eh]
                               Psi4 1.9 release
    Molecular point group: c1
  Multiplicity = 1
  Basis Set: AUG-CC-PVTZ
    Blend: AUG-CC-PVTZ
  Basis Set: (AUG-CC-PVTZ AUX)
    Blend: AUG-CC-PVTZ-JKFIT + DEF2-UNIVERSAL-JKFIT
  @DF-RHF Final Energy:   -76.06051148981075
    Total Energy =                        -76.0605114898107502
  Basis Set: (AUG-CC-PVTZ AUX)
	 Singles Energy            =      -0.0000000000000000 [Eh]
	 Same-Spin Energy          =      -0.0683931820946820 [Eh]
	 Opposite-Spin Energy      =      -0.2154384417855975 [Eh]
	 Correlation Energy        =      -0.2838316238802795 [Eh]
	 Total Energy              =     -76.3443431136910249 [Eh]
	 SCS Total Energy          =     -76.3418353473183657 [Eh]
                               Psi4 1.9 release
    Molecular point group: c1

    Geometry (in Bohr), charge = 2, multiplicity = 1:

       Center              X                  Y                   Z               Mass
    ------------   -----------------  -----------------  -----------------  -----------------
         O            0.000000000000     0.000000000000     0.000000000000    15.994914619570
         H           -1.112175634425     0.000000000000     1.430367719429     1.007825032230
         H           -1.112175634425     0.000000000000    -1.430367719429     1.007825032230
         K            4.457690075151     4.457690075151     0.000000000000    38.963706486400
         K            4.457690075151    -4.457690075151     0.000000000000    38.963706486400

  Charge       = 2
  Multiplicity = 1
  Basis Set: AUG-CC-PVTZ
    Blend: AUG-CC-PVTZ
  Basis Set: (AUG-CC-PVTZ AUX)
    Blend: AUG-CC-PVTZ-JKFIT + DEF2-UNIVERSAL-JKFIT

    Orbital Energies [Eh]
    ---------------------

    Doubly Occupied:

       1A   -133.843771     2A   -133.843771     3A    -20.869789
       4A    -14.799281     5A    -14.799281     6A    -11.829380
       7A    -11.829380     8A    -11.829344     9A    -11.829344
      10A    -11.829290    11A    -11.829290    12A     -2.054645
      13A     -2.054622    14A     -1.655625    15A     -1.262580
      16A     -1.262141    17A     -1.261419    18A     -1.261374
      19A     -1.260209    20A     -1.260093    21A     -1.017776
      22A     -0.898061    23A     -0.817835

  @DF-RHF Final Energy: -1274.01996277542639

   => Energetics <=

    Nuclear Repulsion Energy =            108.3396914458627123
    One-Electron Energy =               -1954.3227032264599075
    Two-Electron Energy =                 571.9630490051708875
    Total Energy =                      -1274.0199627754263929
 Dipole X            :       -159.3604574          167.1678716            7.8074142
 Dipole Y            :          0.0000000            0.0000000            0.0000000
 Dipole Z            :         -0.0000000            0.0000000           -0.0000000
 Magnitude           :                                                    7.8074142
  Basis Set: (AUG-CC-PVTZ AUX)
    Blend: AUG-CC-PVTZ-RI + DEF2-QZVPP-RI
	 Reference Energy          =   -1274.0199627754263929 [Eh]
	 Singles Energy            =      -0.0000000000000000 [Eh]
	 Same-Spin Energy          =      -0.1244325584362914 [Eh]
	 Opposite-Spin Energy      =      -0.3446046530775388 [Eh]
	 Correlation Energy        =      -0.4690372115138303 [Eh]
	 Total Energy              =   -1274.4889999869401436 [Eh]

	 ================> DF-SCS-MP2 Energies <==================
	-----------------------------------------------------------
	 SCS Same-Spin Scale       =       0.3333333333333333 [-]
	 SCS Opposite-Spin Scale   =       1.2000000000000000 [-]
	 SCS Same-Spin Energy      =      -0.0414775194787638 [Eh]
	 SCS Opposite-Spin Energy  =      -0.4135255836930466 [Eh]
	 SCS Correlation Energy    =      -0.4550031031718104 [Eh]
	 SCS Total Energy          =   -1274.4749658785981410 [Eh]
	-----------------------------------------------------------

*** Psi4 exiting successfully. Buy a developer a beer!
