                               Psi4 1.9 release

  ==> Input File <==

--------------------------------------------------------------------------
MEMORY 60 GB

molecule dimer {
0 1
O      0.000000     0.000000     0.000000
H     -0.588538     0.000000     0.756918
H     -0.588538     0.000000    -0.756918
--
2 1
K      1.965757     1.965757     0.000000
K      1.965757    -1.965757     0.000000

units ang
no_reorient
no_com
symmetry c1
}

set {
basis        aug-cc-pVTZ
scf_type     df
}

energy("mp2", bsse_type="cp")
--------------------------------------------------------------------------

                               Psi4 1.9 release
    Molecular point group: c1
  Charge       = 2
  Multiplicity = 1
  Basis Set: AUG-CC-PVTZ
    Blend: AUG-CC-PVTZ
  Basis Set: (AUG-CC-PVTZ AUX)
    Blend: AUG-CC-PVTZ-JKFIT + DEF2-UNIVERSAL-JKFIT
  @DF-RHF Final Energy: -1197.90211698852158
    Total Energy =                      -1197.9021169885215841
 Dipole X            :       -133.7308969          141.1602096            7.4293128
 Dipole Y            :         -0.0000000            0.0000000           -0.0000000
 Dipole Z            :         -0.0000000            0.0000000           -0.0000000
 Magnitude           :                                                    7.4293128
  Basis Set: (AUG-CC-PVTZ AUX)
    Blend: AUG-CC-PVTZ-RI + DEF2-QZVPP-RI
	 Reference Energy          =   -1197.9021169885215841 [Eh]
	 Singles Energy            =      -0.0000000000000000 [Eh]
	 Same-Spin Energy          =      -0.0591420543887648 [Eh]
	 Opposite-Spin Energy      =      -0.1394879164216408 [Eh]
	 Correlation Energy        =      -0.1986299708104056 [Eh]
	 Total Energy              =   -1198.1007469593319001 [Eh]
	 SCS Total Energy          =   -1198.0892165063571611 [Eh]
                               Psi4 1.9 release
    Molecular point group: c1
  Multiplicity = 1
  Basis Set: AUG-CC-PVTZ
    Blend: AUG-CC-PVTZ
  Basis Set: (AUG-CC-PVTZ AUX)
    Blend: AUG-CC-PVTZ-JKFIT + DEF2-UNIVERSAL-JKFIT
  @DF-RHF Final Energy:   -76.06053024809134
    Total Energy =                        -76.0605302480913394
  Basis Set: (AUG-CC-PVTZ AUX)
	 Singles Energy            =      -0.0000000000000000 [Eh]
	 Same-Spin Energy          =      -0.0684034707138627 [Eh]
	 Opposite-Spin Energy      =      -0.2155185235487291 [Eh]
	 Correlation Energy        =      -0.2839219942625917 [Eh]
	 Total Energy              =     -76.3444522423539382 [Eh]
	 SCS Total Energy          =     -76.3419536332544340 [Eh]
                               Psi4 1.9 release
    Molecular point group: c1

    Geometry (in Bohr), charge = 2, multiplicity = 1:

       Center              X                  Y                   Z               Mass
    ------------   -----------------  -----------------  -----------------  -----------------
         O            0.000000000000     0.000000000000     0.000000000000    15.994914619570
         H           -1.112175634425     0.000000000000     1.430367719429     1.007825032230
         H           -1.112175634425     0.000000000000    -1.430367719429     1.007825032230
         K            3.714742359202     3.714742359202     0.000000000000    38.963706486400
         K            3.714742359202    -3.714742359202     0.000000000000    38.963706486400

  Charge       = 2
  Multiplicity = 1
  Basis Set: AUG-CC-PVTZ
    Blend: AUG-CC-PVTZ
  Basis Set: (AUG-CC-PVTZ AUX)
    Blend: AUG-CC-PVTZ-JKFIT + DEF2-UNIVERSAL-JKFIT

    Orbital Energies [Eh]
    ---------------------

    Doubly Occupied:

       1A   -133.852445     2A   -133.852445     3A    -20.919022
       4A    -14.808428     5A    -14.808428     6A    -11.838513
       7A    -11.838513     8A    -11.838462     9A    -11.838462
      10A    -11.838354    11A    -11.838354    12A     -2.065408
      13A     -2.065078    14A     -1.709358    15A     -1.275838
      16A     -1.272541    17A     -1.272469    18A     -1.272107
      19A     -1.271225    20A     -1.270631    21A     -1.069631
      22A     -0.954641    23A     -0.873129

  @DF-RHF Final Energy: -1274.00752154625502

   => Energetics <=

    Nuclear Repulsion Energy =            127.7845064107809776
    One-Electron Energy =               -1992.2970936805184010
    Two-Electron Energy =                 590.5050657234826303
    Total Energy =                      -1274.0075215462547931
 Dipole X            :       -132.7196803          138.9358584            6.2161780
 Dipole Y            :         -0.0000000            0.0000000           -0.0000000
 Dipole Z            :          0.0000000            0.0000000            0.0000000
 Magnitude           :                                                    6.2161780
  Basis Set: (AUG-CC-PVTZ AUX)
    Blend: AUG-CC-PVTZ-RI + DEF2-QZVPP-RI
	 Reference Energy          =   -1274.0075215462550204 [Eh]
	 Singles Energy            =      -0.0000000000000000 [Eh]
	 Same-Spin Energy          =      -0.1288283097653908 [Eh]
	 Opposite-Spin Energy      =      -0.3549374520996310 [Eh]
	 Correlation Energy        =      -0.4837657618650218 [Eh]
	 Total Energy              =   -1274.4912873081200360 [Eh]

	 ================> DF-SCS-MP2 Energies <==================
	-----------------------------------------------------------
	 SCS Same-Spin Scale       =       0.3333333333333333 [-]
	 SCS Opposite-Spin Scale   =       1.2000000000000000 [-]
	 SCS Same-Spin Energy      =      -0.0429427699217969 [Eh]
	 SCS Opposite-Spin Energy  =      -0.4259249425195571 [Eh]
	 SCS Correlation Energy    =      -0.4688677124413541 [Eh]
	 SCS Total Energy          =   -1274.4763892586963721 [Eh]
	-----------------------------------------------------------

*** Psi4 exiting successfully. Buy a developer a beer!
