                               Psi4 1.9 release

  ==> Input File <==

--------------------------------------------------------------------------
MEMORY 60 GB

molecule dimer {
1 1
Gh(O)      0.000000     0.000000     0.000000
Gh(H)     -0.588538     0.000000     0.756918
Gh(H)     -0.588538     0.000000    -0.756918
K          2.162333     2.162333     0.000000
Gh(K)      2.162333    -2.162333     0.000000

units ang
no_reorient
no_com
symmetry c1
}

set {
basis        aug-cc-pVTZ
scf_type     df
}

energy("mp2")
--------------------------------------------------------------------------

    Molecular point group: c1

    Geometry (in Angstrom), charge = 1, multiplicity = 1:

       Center              X                  Y                   Z               Mass
    ------------   -----------------  -----------------  -----------------  -----------------
      Gh(O)           0.000000000000     0.000000000000     0.000000000000    15.994914619570
      Gh(H)          -0.588538000000     0.000000000000     0.756918000000     1.007825032230
      Gh(H)          -0.588538000000     0.000000000000    -0.756918000000     1.007825032230
         K            2.162333000000     2.162333000000     0.000000000000    38.963706486400
      Gh(K)           2.162333000000    -2.162333000000     0.000000000000    38.963706486400

  Charge       = 1
  Multiplicity = 1
  Basis Set: AUG-CC-PVTZ
    Blend: AUG-CC-PVTZ
  Basis Set: (AUG-CC-PVTZ AUX)
    Blend: AUG-CC-PVTZ-JKFIT + DEF2-UNIVERSAL-JKFIT

    Orbital Energies [Eh]
    ---------------------

    Doubly Occupied:

       1A   -133.753594     2A    -14.709074     3A    -11.739142
       4A    -11.739138     5A    -11.739137     6A     -1.964295
       7A     -1.170929     8A     -1.170895     9A     -1.170883

  @DF-RHF Final Energy:  -599.01750893117071

   => Energetics <=

    Nuclear Repulsion Energy =              0.0000000000000000
    One-Electron Energy =                -819.7208485752897786
    Two-Electron Energy =                 220.7033396441190121
    Total Energy =                       -599.0175089311708234
 Dipole X            :        -73.5521267           77.6381261            4.0859994
 Dipole Y            :        -73.5522724           77.6381261            4.0858536
 Dipole Z            :         -0.0000000            0.0000000           -0.0000000
 Magnitude           :                                                    5.7783727
  Basis Set: (AUG-CC-PVTZ AUX)
    Blend: AUG-CC-PVTZ-RI + DEF2-QZVPP-RI
	 Reference Energy          =    -599.0175089311707097 [Eh]
	 Singles Energy            =      -0.0000000000000000 [Eh]
	 Same-Spin Energy          =      -0.0285441276605168 [Eh]
	 Opposite-Spin Energy      =      -0.0668521367206200 [Eh]
	 Correlation Energy        =      -0.0953962643811367 [Eh]
	 Total Energy              =    -599.1129051955518889 [Eh]

	 ================> DF-SCS-MP2 Energies <==================
	-----------------------------------------------------------
	 SCS Same-Spin Scale       =       0.3333333333333333 [-]
	 SCS Opposite-Spin Scale   =       1.2000000000000000 [-]
	 SCS Same-Spin Energy      =      -0.0095147092201723 [Eh]
	 SCS Opposite-Spin Energy  =      -0.0802225640647439 [Eh]
	 SCS Correlation Energy    =      -0.0897372732849162 [Eh]
	 SCS Total Energy          =    -599.1072462044555778 [Eh]
	-----------------------------------------------------------

*** Psi4 exiting successfully. Buy a developer a beer!
