                               Psi4 1.9 release

  ==> Input File <==

--------------------------------------------------------------------------
MEMORY 60 GB

molecule dimer {
0 1
O          0.000000     0.000000     0.000000
H         -0.588538     0.000000     0.756918
H         -0.588538     0.000000    -0.756918
Gh(K)      1.965757     1.965757     0.000000
Gh(K)      1.965757    -1.965757     0.000000

units ang
no_reorient
no_com
symmetry c1
}

set {
basis        aug-cc-pVTZ
scf_type     df
}

energy("mp2")
--------------------------------------------------------------------------

    Molecular point group: c1

    Geometry (in Angstrom), charge = 0, multiplicity = 1:

       Center              X                  Y                   Z               Mass
    ------------   -----------------  -----------------  -----------------  -----------------
         O            0.000000000000     0.000000000000     0.000000000000    15.994914619570
         H           -0.588538000000     0.000000000000     0.756918000000     1.007825032230
         H           -0.588538000000     0.000000000000    -0.756918000000     1.007825032230
      Gh(K)           1.965757000000     1.965757000000     0.000000000000    38.963706486400
      Gh(K)           1.965757000000    -1.965757000000     0.000000000000    38.963706486400

  Charge       = 0
  Multiplicity = 1
  Basis Set: AUG-CC-PVTZ
    Blend: AUG-CC-PVTZ
  Basis Set: (AUG-CC-PVTZ AUX)
    Blend: AUG-CC-PVTZ-JKFIT + DEF2-UNIVERSAL-JKFIT

    Orbital Energies [Eh]
    ---------------------

    Doubly Occupied:

       1A    -20.567498     2A     -1.352924     3A     -0.716460
       4A     -0.585090     5A     -0.510289

  @DF-RHF Final Energy:   -76.06053024809134

   => Energetics <=

    Nuclear Repulsion Energy =              9.1801978479270687
    One-Electron Energy =                -123.0169324296491737
    Two-Electron Energy =                  37.7762043336307798
    Total Energy =                        -76.0605302480913394
 Dipole X            :          1.4425737           -2.2243513           -0.7817775
 Dipole Y            :         -0.0000000            0.0000000           -0.0000000
 Dipole Z            :         -0.0000000            0.0000000           -0.0000000
 Magnitude           :                                                    0.7817775
  Basis Set: (AUG-CC-PVTZ AUX)
    Blend: AUG-CC-PVTZ-RI + DEF2-QZVPP-RI
	 Reference Energy          =     -76.0605302480913394 [Eh]
	 Singles Energy            =      -0.0000000000000000 [Eh]
	 Same-Spin Energy          =      -0.0684034707138635 [Eh]
	 Opposite-Spin Energy      =      -0.2155185235487300 [Eh]
	 Correlation Energy        =      -0.2839219942625935 [Eh]
	 Total Energy              =     -76.3444522423539382 [Eh]

	 ================> DF-SCS-MP2 Energies <==================
	-----------------------------------------------------------
	 SCS Same-Spin Scale       =       0.3333333333333333 [-]
	 SCS Opposite-Spin Scale   =       1.2000000000000000 [-]
	 SCS Same-Spin Energy      =      -0.0228011569046212 [Eh]
	 SCS Opposite-Spin Energy  =      -0.2586222282584760 [Eh]
	 SCS Correlation Energy    =      -0.2814233851630972 [Eh]
	 SCS Total Energy          =     -76.3419536332544340 [Eh]
	-----------------------------------------------------------

*** Psi4 exiting successfully. Buy a developer a beer!
