                               Psi4 1.9 release

  ==> Input File <==

--------------------------------------------------------------------------
MEMORY 60 GB

molecule dimer {
2 1
O          0.000000     0.000000     0.000000
H         -0.588538     0.000000     0.756918
H         -0.588538     0.000000    -0.756918
K          2.555484     2.555484     0.000000
K          2.555484    -2.555484     0.000000

units ang
no_reorient
no_com
symmetry c1
}

set {
basis        aug-cc-pVTZ
scf_type     df
}

energy("mp2")
--------------------------------------------------------------------------

    Molecular point group: c1

    Geometry (in Angstrom), charge = 2, multiplicity = 1:

       Center              X                  Y                   Z               Mass
    ------------   -----------------  -----------------  -----------------  -----------------
         O            0.000000000000     0.000000000000     0.000000000000    15.994914619570
         H           -0.588538000000     0.000000000000     0.756918000000     1.007825032230
         H           -0.588538000000     0.000000000000    -0.756918000000     1.007825032230
         K            2.555484000000     2.555484000000     0.000000000000    38.963706486400
         K            2.555484000000    -2.555484000000     0.000000000000    38.963706486400

  Charge       = 2
  Multiplicity = 1
  Basis Set: AUG-CC-PVTZ
    Blend: AUG-CC-PVTZ
  Basis Set: (AUG-CC-PVTZ AUX)
    Blend: AUG-CC-PVTZ-JKFIT + DEF2-UNIVERSAL-JKFIT

    Orbital Energies [Eh]
    ---------------------

    Doubly Occupied:

       1A   -133.839253     2A   -133.839253     3A    -20.848184
       4A    -14.794716     5A    -14.794716     6A    -11.824809
       7A    -11.824809     8A    -11.824779     9A    -11.824779
      10A    -11.824743    11A    -11.824743    12A     -2.049928
      13A     -2.049922    14A     -1.633664    15A     -1.257455
      16A     -1.257294    17A     -1.256593    18A     -1.256578
      19A     -1.255668    20A     -1.255626    21A     -0.996206
      22A     -0.874586    23A     -0.795017

  @DF-RHF Final Energy: -1274.02309690474954

   => Energetics <=

    Nuclear Repulsion Energy =            100.8277565568338332
    One-Electron Energy =               -1939.6950619646220275
    Two-Electron Energy =                 564.8442085030384305
    Total Energy =                      -1274.0230969047497638
 Dipole X            :       -172.6892520          181.2839141            8.5946621
 Dipole Y            :         -0.0000000            0.0000000           -0.0000000
 Dipole Z            :         -0.0000000            0.0000000           -0.0000000
 Magnitude           :                                                    8.5946621
  Basis Set: (AUG-CC-PVTZ AUX)
    Blend: AUG-CC-PVTZ-RI + DEF2-QZVPP-RI
	 Reference Energy          =   -1274.0230969047495364 [Eh]
	 Singles Energy            =      -0.0000000000000000 [Eh]
	 Same-Spin Energy          =      -0.1230864539463994 [Eh]
	 Opposite-Spin Energy      =      -0.3413517364765257 [Eh]
	 Correlation Energy        =      -0.4644381904229251 [Eh]
	 Total Energy              =   -1274.4875350951724613 [Eh]

	 ================> DF-SCS-MP2 Energies <==================
	-----------------------------------------------------------
	 SCS Same-Spin Scale       =       0.3333333333333333 [-]
	 SCS Opposite-Spin Scale   =       1.2000000000000000 [-]
	 SCS Same-Spin Energy      =      -0.0410288179821331 [Eh]
	 SCS Opposite-Spin Energy  =      -0.4096220837718308 [Eh]
	 SCS Correlation Energy    =      -0.4506509017539639 [Eh]
	 SCS Total Energy          =   -1274.4737478065035248 [Eh]
	-----------------------------------------------------------

*** Psi4 exiting successfully. Buy a developer a beer!
