                               Psi4 1.9 release

  ==> Input File <==

--------------------------------------------------------------------------
MEMORY 60 GB

molecule dimer {
0 1
O      0.000000     0.000000     0.000000
H     -0.588538     0.000000     0.756918
H     -0.588538     0.000000    -0.756918
--
2 1
K      2.948635     2.948635     0.000000
K      2.948635    -2.948635     0.000000

units ang
no_reorient
no_com
symmetry c1
}

set {
basis        aug-cc-pVTZ
scf_type     df
}

energy("mp2", bsse_type="cp")
--------------------------------------------------------------------------

                               Psi4 1.9 release
    Molecular point group: c1
  Charge       = 2
  Multiplicity = 1
  Basis Set: AUG-CC-PVTZ
    Blend: AUG-CC-PVTZ
  Basis Set: (AUG-CC-PVTZ AUX)
    Blend: AUG-CC-PVTZ-JKFIT + DEF2-UNIVERSAL-JKFIT
  @DF-RHF Final Energy: -1197.94560564845392
    Total Energy =                      -1197.9456056484539204
 Dipole X            :       -200.5962932          211.7402786           11.1439854
 Dipole Y            :          0.0000000            0.0000000            0.0000000
 Dipole Z            :          0.0000000            0.0000000            0.0000000
 Magnitude           :                                                   11.1439854
  Basis Set: (AUG-CC-PVTZ AUX)
    Blend: AUG-CC-PVTZ-RI + DEF2-QZVPP-RI
	 Reference Energy          =   -1197.9456056484539204 [Eh]
	 Singles Energy            =      -0.0000000000000000 [Eh]
	 Same-Spin Energy          =      -0.0530393342985675 [Eh]
	 Opposite-Spin Energy      =      -0.1225174935880237 [Eh]
	 Correlation Energy        =      -0.1755568278865912 [Eh]
	 Total Energy              =   -1198.1211624763404870 [Eh]
	 SCS Total Energy          =   -1198.1103064188591816 [Eh]
                               Psi4 1.9 release
    Molecular point group: c1
  Multiplicity = 1
  Basis Set: AUG-CC-PVTZ
    Blend: AUG-CC-PVTZ
  Basis Set: (AUG-CC-PVTZ AUX)
    Blend: AUG-CC-PVTZ-JKFIT + DEF2-UNIVERSAL-JKFIT
  @DF-RHF Final Energy:   -76.06049464414663
    Total Energy =                        -76.0604946441466439
  Basis Set: (AUG-CC-PVTZ AUX)
	 Singles Energy            =      -0.0000000000000000 [Eh]
	 Same-Spin Energy          =      -0.0683803170231393 [Eh]
	 Opposite-Spin Energy      =      -0.2153470555004795 [Eh]
	 Correlation Energy        =      -0.2837273725236188 [Eh]
	 Total Energy              =     -76.3442220166702441 [Eh]
	 SCS Total Energy          =     -76.3417045497549225 [Eh]
                               Psi4 1.9 release
    Molecular point group: c1

    Geometry (in Bohr), charge = 2, multiplicity = 1:

       Center              X                  Y                   Z               Mass
    ------------   -----------------  -----------------  -----------------  -----------------
         O            0.000000000000     0.000000000000     0.000000000000    15.994914619570
         H           -1.112175634425     0.000000000000     1.430367719429     1.007825032230
         H           -1.112175634425     0.000000000000    -1.430367719429     1.007825032230
         K            5.572112593939     5.572112593939     0.000000000000    38.963706486400
         K            5.572112593939    -5.572112593939     0.000000000000    38.963706486400

  Charge       = 2
  Multiplicity = 1
  Basis Set: AUG-CC-PVTZ
    Blend: AUG-CC-PVTZ
  Basis Set: (AUG-CC-PVTZ AUX)
    Blend: AUG-CC-PVTZ-JKFIT + DEF2-UNIVERSAL-JKFIT

    Orbital Energies [Eh]
    ---------------------

    Doubly Occupied:

       1A   -133.830960     2A   -133.830960     3A    -20.812029
       4A    -14.786386     5A    -14.786386     6A    -11.816469
       7A    -11.816469     8A    -11.816448     9A    -11.816448
      10A    -11.816430    11A    -11.816430    12A     -2.041491
      13A     -2.041491    14A     -1.597528    15A     -1.248619
      16A     -1.248598    17A     -1.248051    18A     -1.248049
      19A     -1.247555    20A     -1.247550    21A     -0.960505
      22A     -0.836239    23A     -0.757736

  @DF-RHF Final Energy: -1274.02849095558122

   => Energetics <=

    Nuclear Repulsion Energy =             88.7693610439526140
    One-Electron Energy =               -1916.2580404569775965
    Two-Electron Energy =                 553.4601884574437918
    Total Energy =                      -1274.0284909555812192
 Dipole X            :       -199.3650935          209.5159273           10.1508338
 Dipole Y            :         -0.0000000            0.0000000           -0.0000000
 Dipole Z            :         -0.0000000            0.0000000           -0.0000000
 Magnitude           :                                                   10.1508338
  Basis Set: (AUG-CC-PVTZ AUX)
    Blend: AUG-CC-PVTZ-RI + DEF2-QZVPP-RI
	 Reference Energy          =   -1274.0284909555812192 [Eh]
	 Singles Energy            =      -0.0000000000000000 [Eh]
	 Same-Spin Energy          =      -0.1214667808270464 [Eh]
	 Opposite-Spin Energy      =      -0.3374412090573680 [Eh]
	 Correlation Energy        =      -0.4589079898844144 [Eh]
	 Total Energy              =   -1274.4873989454656567 [Eh]

	 ================> DF-SCS-MP2 Energies <==================
	-----------------------------------------------------------
	 SCS Same-Spin Scale       =       0.3333333333333333 [-]
	 SCS Opposite-Spin Scale   =       1.2000000000000000 [-]
	 SCS Same-Spin Energy      =      -0.0404889269423488 [Eh]
	 SCS Opposite-Spin Energy  =      -0.4049294508688416 [Eh]
	 SCS Correlation Energy    =      -0.4454183778111904 [Eh]
	 SCS Total Energy          =   -1274.4739093333923847 [Eh]
	-----------------------------------------------------------

*** Psi4 exiting successfully. Buy a developer a beer!
