                               Psi4 1.9 release

  ==> Input File <==

--------------------------------------------------------------------------
MEMORY 60 GB

molecule dimer {
0 1
O      0.000000     0.000000     0.000000
H     -0.588538     0.000000     0.756918
H     -0.588538     0.000000    -0.756918
--
1 1
K      2.948635     2.948635     0.000000
--
1 1
K      2.948635    -2.948635     0.000000

units ang
no_reorient
no_com
symmetry c1
}

set {
basis        aug-cc-pVTZ
scf_type     df
}

energy("mp2", bsse_type="cp")
--------------------------------------------------------------------------

                               Psi4 1.9 release
    Molecular point group: c1
  Charge       = 0
  Multiplicity = 1
  Basis Set: AUG-CC-PVTZ
    Blend: AUG-CC-PVTZ
  Basis Set: (AUG-CC-PVTZ AUX)
    Blend: AUG-CC-PVTZ-JKFIT + DEF2-UNIVERSAL-JKFIT
  @DF-RHF Final Energy:   -76.06049464414663
    Total Energy =                        -76.0604946441466439
 Dipole X            :          1.4417113           -2.2243513           -0.7826400
 Dipole Y            :         -0.0000000            0.0000000           -0.0000000
 Dipole Z            :          0.0000000            0.0000000            0.0000000
 Magnitude           :                                                    0.7826400
  Basis Set: (AUG-CC-PVTZ AUX)
    Blend: AUG-CC-PVTZ-RI + DEF2-QZVPP-RI
	 Reference Energy          =     -76.0604946441466296 [Eh]
	 Singles Energy            =      -0.0000000000000000 [Eh]
	 Same-Spin Energy          =      -0.0683803170231367 [Eh]
	 Opposite-Spin Energy      =      -0.2153470555004726 [Eh]
	 Correlation Energy        =      -0.2837273725236093 [Eh]
	 Total Energy              =     -76.3442220166702441 [Eh]
	 SCS Total Energy          =     -76.3417045497549083 [Eh]
                               Psi4 1.9 release
    Molecular point group: c1
  Basis Set: AUG-CC-PVTZ
    Blend: AUG-CC-PVTZ
  Basis Set: (AUG-CC-PVTZ AUX)
    Blend: AUG-CC-PVTZ-JKFIT + DEF2-UNIVERSAL-JKFIT
  @DF-RHF Final Energy:  -599.01750721337191
    Total Energy =                       -599.0175072133719141
  Basis Set: (AUG-CC-PVTZ AUX)
                               Psi4 1.9 release
  @DF-RHF Final Energy: -1197.94560564845415
    Total Energy =                      -1197.9456056484541477
                               Psi4 1.9 release
  @DF-RHF Final Energy:  -675.08927263794828
    Total Energy =                       -675.0892726379483975
                               Psi4 1.9 release
  @DF-RHF Final Energy:  -675.08927263793441
    Total Energy =                       -675.0892726379343003
                               Psi4 1.9 release
  Multiplicity = 1
  @DF-RHF Final Energy:  -599.01750721338931
    Total Energy =                       -599.0175072133893082
	 Singles Energy            =      -0.0000000000000000 [Eh]
	 Same-Spin Energy          =      -0.0265140882510620 [Eh]
	 Opposite-Spin Energy      =      -0.0612471539566230 [Eh]
	 Correlation Energy        =      -0.0877612422076850 [Eh]
	 Total Energy              =    -599.1052684555969563 [Eh]
	 SCS Total Energy          =    -599.0998418275543145 [Eh]
                               Psi4 1.9 release
    Molecular point group: c1

    Geometry (in Bohr), charge = 2, multiplicity = 1:

       Center              X                  Y                   Z               Mass
    ------------   -----------------  -----------------  -----------------  -----------------
         O            0.000000000000     0.000000000000     0.000000000000    15.994914619570
         H           -1.112175634425     0.000000000000     1.430367719429     1.007825032230
         H           -1.112175634425     0.000000000000    -1.430367719429     1.007825032230
         K            5.572112593939     5.572112593939     0.000000000000    38.963706486400
         K            5.572112593939    -5.572112593939     0.000000000000    38.963706486400

  Charge       = 2
  Multiplicity = 1
  Basis Set: AUG-CC-PVTZ
    Blend: AUG-CC-PVTZ
  Basis Set: (AUG-CC-PVTZ AUX)
    Blend: AUG-CC-PVTZ-JKFIT + DEF2-UNIVERSAL-JKFIT

    Orbital Energies [Eh]
    ---------------------

    Doubly Occupied:

       1A   -133.830960     2A   -133.830960     3A    -20.812029
       4A    -14.786386     5A    -14.786386     6A    -11.816469
       7A    -11.816469     8A    -11.816448     9A    -11.816448
      10A    -11.816430    11A    -11.816430    12A     -2.041491
      13A     -2.041491    14A     -1.597528    15A     -1.248619
      16A     -1.248598    17A     -1.248051    18A     -1.248049
      19A     -1.247555    20A     -1.247550    21A     -0.960505
      22A     -0.836239    23A     -0.757736

  @DF-RHF Final Energy: -1274.02849095558304

   => Energetics <=

    Nuclear Repulsion Energy =             88.7693610439526140
    One-Electron Energy =               -1916.2580404577665831
    Two-Electron Energy =                 553.4601884582309594
    Total Energy =                      -1274.0284909555830382
 Dipole X            :       -199.3650935          209.5159273           10.1508338
 Dipole Y            :         -0.0000000            0.0000000           -0.0000000
 Dipole Z            :         -0.0000000            0.0000000           -0.0000000
 Magnitude           :                                                   10.1508338
  Basis Set: (AUG-CC-PVTZ AUX)
    Blend: AUG-CC-PVTZ-RI + DEF2-QZVPP-RI
	 Reference Energy          =   -1274.0284909555830382 [Eh]
	 Singles Energy            =      -0.0000000000000000 [Eh]
	 Same-Spin Energy          =      -0.1214667808265663 [Eh]
	 Opposite-Spin Energy      =      -0.3374412090557683 [Eh]
	 Correlation Energy        =      -0.4589079898823346 [Eh]
	 Total Energy              =   -1274.4873989454654293 [Eh]

	 ================> DF-SCS-MP2 Energies <==================
	-----------------------------------------------------------
	 SCS Same-Spin Scale       =       0.3333333333333333 [-]
	 SCS Opposite-Spin Scale   =       1.2000000000000000 [-]
	 SCS Same-Spin Energy      =      -0.0404889269421888 [Eh]
	 SCS Opposite-Spin Energy  =      -0.4049294508669219 [Eh]
	 SCS Correlation Energy    =      -0.4454183778091107 [Eh]
	 SCS Total Energy          =   -1274.4739093333921574 [Eh]
	-----------------------------------------------------------

*** Psi4 exiting successfully. Buy a developer a beer!
