                               Psi4 1.9 release

  ==> Input File <==

--------------------------------------------------------------------------
MEMORY 60 GB

molecule dimer {
0 1
O      0.000000     0.000000     0.000000
H     -0.588538     0.000000     0.756918
H     -0.588538     0.000000    -0.756918
--
1 1
K      2.162333     2.162333     0.000000
--
1 1
K      2.162333    -2.162333     0.000000

units ang
no_reorient
no_com
symmetry c1
}

set {
basis        aug-cc-pVTZ
scf_type     df
}

energy("mp2", bsse_type="cp")
--------------------------------------------------------------------------

                               Psi4 1.9 release
    Molecular point group: c1
  Charge       = 0
  Multiplicity = 1
  Basis Set: AUG-CC-PVTZ
    Blend: AUG-CC-PVTZ
  Basis Set: (AUG-CC-PVTZ AUX)
    Blend: AUG-CC-PVTZ-JKFIT + DEF2-UNIVERSAL-JKFIT
  @DF-RHF Final Energy:   -76.06052048815019
    Total Energy =                        -76.0605204881501891
 Dipole X            :          1.4425720           -2.2243513           -0.7817793
 Dipole Y            :          0.0000000            0.0000000            0.0000000
 Dipole Z            :          0.0000000            0.0000000            0.0000000
 Magnitude           :                                                    0.7817793
  Basis Set: (AUG-CC-PVTZ AUX)
    Blend: AUG-CC-PVTZ-RI + DEF2-QZVPP-RI
	 Reference Energy          =     -76.0605204881501891 [Eh]
	 Singles Energy            =      -0.0000000000000000 [Eh]
	 Same-Spin Energy          =      -0.0683983868992399 [Eh]
	 Opposite-Spin Energy      =      -0.2154741881092571 [Eh]
	 Correlation Energy        =      -0.2838725750084970 [Eh]
	 Total Energy              =     -76.3443930631586909 [Eh]
	 SCS Total Energy          =     -76.3418889761810391 [Eh]
                               Psi4 1.9 release
    Molecular point group: c1
  Basis Set: AUG-CC-PVTZ
    Blend: AUG-CC-PVTZ
  Basis Set: (AUG-CC-PVTZ AUX)
    Blend: AUG-CC-PVTZ-JKFIT + DEF2-UNIVERSAL-JKFIT
  @DF-RHF Final Energy:  -599.01750893117105
    Total Energy =                       -599.0175089311710508
  Basis Set: (AUG-CC-PVTZ AUX)
                               Psi4 1.9 release
  @DF-RHF Final Energy: -1197.91381183607155
    Total Energy =                      -1197.9138118360715453
                               Psi4 1.9 release
  @DF-RHF Final Energy:  -675.09914346722724
    Total Energy =                       -675.0991434672272362
                               Psi4 1.9 release
  @DF-RHF Final Energy:  -675.09914346716346
    Total Energy =                       -675.0991434671634579
                               Psi4 1.9 release
  Multiplicity = 1
  @DF-RHF Final Energy:  -599.01750893122494
    Total Energy =                       -599.0175089312249384
	 Singles Energy            =      -0.0000000000000000 [Eh]
	 Same-Spin Energy          =      -0.0285441276532438 [Eh]
	 Opposite-Spin Energy      =      -0.0668521367071625 [Eh]
	 Correlation Energy        =      -0.0953962643604063 [Eh]
	 Total Energy              =    -599.1129051955853129 [Eh]
	 SCS Total Energy          =    -599.1072462044912754 [Eh]
                               Psi4 1.9 release
    Molecular point group: c1

    Geometry (in Bohr), charge = 2, multiplicity = 1:

       Center              X                  Y                   Z               Mass
    ------------   -----------------  -----------------  -----------------  -----------------
         O            0.000000000000     0.000000000000     0.000000000000    15.994914619570
         H           -1.112175634425     0.000000000000     1.430367719429     1.007825032230
         H           -1.112175634425     0.000000000000    -1.430367719429     1.007825032230
         K            4.086217162040     4.086217162040     0.000000000000    38.963706486400
         K            4.086217162040    -4.086217162040     0.000000000000    38.963706486400

  Charge       = 2
  Multiplicity = 1
  Basis Set: AUG-CC-PVTZ
    Blend: AUG-CC-PVTZ
  Basis Set: (AUG-CC-PVTZ AUX)
    Blend: AUG-CC-PVTZ-JKFIT + DEF2-UNIVERSAL-JKFIT

    Orbital Energies [Eh]
    ---------------------

    Doubly Occupied:

       1A   -133.848324     2A   -133.848324     3A    -20.893646
       4A    -14.803957     5A    -14.803957     6A    -11.834058
       7A    -11.834058     8A    -11.834016     9A    -11.834016
      10A    -11.833937    11A    -11.833937    12A     -2.059742
      13A     -2.059654    14A     -1.680691    15A     -1.268449
      16A     -1.267244    17A     -1.266677    18A     -1.266538
      19A     -1.265256    20A     -1.264964    21A     -1.042187
      22A     -0.924828    23A     -0.843887

  @DF-RHF Final Energy: -1274.01562964445043

   => Energetics <=

    Nuclear Repulsion Energy =            117.1934568567861419
    One-Electron Energy =               -1971.5934794037279971
    Two-Electron Energy =                 580.3843929024915269
    Total Energy =                      -1274.0156296444504278
 Dipole X            :       -146.0377001          153.0519009            7.0142008
 Dipole Y            :          0.0000000            0.0000000            0.0000000
 Dipole Z            :         -0.0000000            0.0000000           -0.0000000
 Magnitude           :                                                    7.0142008
  Basis Set: (AUG-CC-PVTZ AUX)
    Blend: AUG-CC-PVTZ-RI + DEF2-QZVPP-RI
	 Reference Energy          =   -1274.0156296444504278 [Eh]
	 Singles Energy            =      -0.0000000000000000 [Eh]
	 Same-Spin Energy          =      -0.1262690909973978 [Eh]
	 Opposite-Spin Energy      =      -0.3490392025044027 [Eh]
	 Correlation Energy        =      -0.4753082935018005 [Eh]
	 Total Energy              =   -1274.4909379379521397 [Eh]

	 ================> DF-SCS-MP2 Energies <==================
	-----------------------------------------------------------
	 SCS Same-Spin Scale       =       0.3333333333333333 [-]
	 SCS Opposite-Spin Scale   =       1.2000000000000000 [-]
	 SCS Same-Spin Energy      =      -0.0420896969991326 [Eh]
	 SCS Opposite-Spin Energy  =      -0.4188470430052832 [Eh]
	 SCS Correlation Energy    =      -0.4609367400044158 [Eh]
	 SCS Total Energy          =   -1274.4765663844548271 [Eh]
	-----------------------------------------------------------

*** Psi4 exiting successfully. Buy a developer a beer!
