                               Psi4 1.9 release

  ==> Input File <==

--------------------------------------------------------------------------
MEMORY 60 GB

molecule dimer {
0 1
O          0.000000     0.000000     0.000000
H         -0.588538     0.000000     0.756918
H         -0.588538     0.000000    -0.756918
Gh(K)      2.948635     2.948635     0.000000
Gh(K)      2.948635    -2.948635     0.000000

units ang
no_reorient
no_com
symmetry c1
}

set {
basis        aug-cc-pVTZ
scf_type     df
}

energy("mp2")
--------------------------------------------------------------------------

    Molecular point group: c1

    Geometry (in Angstrom), charge = 0, multiplicity = 1:

       Center              X                  Y                   Z               Mass
    ------------   -----------------  -----------------  -----------------  -----------------
         O            0.000000000000     0.000000000000     0.000000000000    15.994914619570
         H           -0.588538000000     0.000000000000     0.756918000000     1.007825032230
         H           -0.588538000000     0.000000000000    -0.756918000000     1.007825032230
      Gh(K)           2.948635000000     2.948635000000     0.000000000000    38.963706486400
      Gh(K)           2.948635000000    -2.948635000000     0.000000000000    38.963706486400

  Charge       = 0
  Multiplicity = 1
  Basis Set: AUG-CC-PVTZ
    Blend: AUG-CC-PVTZ
  Basis Set: (AUG-CC-PVTZ AUX)
    Blend: AUG-CC-PVTZ-JKFIT + DEF2-UNIVERSAL-JKFIT

    Orbital Energies [Eh]
    ---------------------

    Doubly Occupied:

       1A    -20.567596     2A     -1.352981     3A     -0.716513
       4A     -0.585139     5A     -0.510303

  @DF-RHF Final Energy:   -76.06049464414687

   => Energetics <=

    Nuclear Repulsion Energy =              9.1801978479270687
    One-Electron Energy =                -123.0163181221979585
    Two-Electron Energy =                  37.7756256301240114
    Total Energy =                        -76.0604946441468712
 Dipole X            :          1.4417113           -2.2243513           -0.7826400
 Dipole Y            :         -0.0000000            0.0000000           -0.0000000
 Dipole Z            :          0.0000000            0.0000000            0.0000000
 Magnitude           :                                                    0.7826400
  Basis Set: (AUG-CC-PVTZ AUX)
    Blend: AUG-CC-PVTZ-RI + DEF2-QZVPP-RI
	 Reference Energy          =     -76.0604946441468712 [Eh]
	 Singles Energy            =      -0.0000000000000000 [Eh]
	 Same-Spin Energy          =      -0.0683803170231374 [Eh]
	 Opposite-Spin Energy      =      -0.2153470555004738 [Eh]
	 Correlation Energy        =      -0.2837273725236111 [Eh]
	 Total Energy              =     -76.3442220166704857 [Eh]

	 ================> DF-SCS-MP2 Energies <==================
	-----------------------------------------------------------
	 SCS Same-Spin Scale       =       0.3333333333333333 [-]
	 SCS Opposite-Spin Scale   =       1.2000000000000000 [-]
	 SCS Same-Spin Energy      =      -0.0227934390077125 [Eh]
	 SCS Opposite-Spin Energy  =      -0.2584164666005685 [Eh]
	 SCS Correlation Energy    =      -0.2812099056082810 [Eh]
	 SCS Total Energy          =     -76.3417045497551499 [Eh]
	-----------------------------------------------------------

*** Psi4 exiting successfully. Buy a developer a beer!
