                               Psi4 1.9 release

  ==> Input File <==

--------------------------------------------------------------------------
MEMORY 60 GB

molecule dimer {
1 1
Gh(O)      0.000000     0.000000     0.000000
Gh(H)     -0.588538     0.000000     0.756918
Gh(H)     -0.588538     0.000000    -0.756918
Gh(K)      2.948635     2.948635     0.000000
K          2.948635    -2.948635     0.000000

units ang
no_reorient
no_com
symmetry c1
}

set {
basis        aug-cc-pVTZ
scf_type     df
}

energy("mp2")
--------------------------------------------------------------------------

    Molecular point group: c1

    Geometry (in Angstrom), charge = 1, multiplicity = 1:

       Center              X                  Y                   Z               Mass
    ------------   -----------------  -----------------  -----------------  -----------------
      Gh(O)           0.000000000000     0.000000000000     0.000000000000    15.994914619570
      Gh(H)          -0.588538000000     0.000000000000     0.756918000000     1.007825032230
      Gh(H)          -0.588538000000     0.000000000000    -0.756918000000     1.007825032230
      Gh(K)           2.948635000000     2.948635000000     0.000000000000    38.963706486400
         K            2.948635000000    -2.948635000000     0.000000000000    38.963706486400

  Charge       = 1
  Multiplicity = 1
  Basis Set: AUG-CC-PVTZ
    Blend: AUG-CC-PVTZ
  Basis Set: (AUG-CC-PVTZ AUX)
    Blend: AUG-CC-PVTZ-JKFIT + DEF2-UNIVERSAL-JKFIT

    Orbital Energies [Eh]
    ---------------------

    Doubly Occupied:

       1A   -133.753813     2A    -14.709252     3A    -11.739317
       4A    -11.739314     5A    -11.739313     6A     -1.964385
       7A     -1.170982     8A     -1.170959     9A     -1.170954

  @DF-RHF Final Energy:  -599.01750721338999

   => Energetics <=

    Nuclear Repulsion Energy =              0.0000000000000000
    One-Electron Energy =                -819.7184368324027446
    Two-Electron Energy =                 220.7009296190127543
    Total Energy =                       -599.0175072133899903
 Dipole X            :       -100.2982129          105.8701393            5.5719264
 Dipole Y            :        100.2982024         -105.8701393           -5.5719369
 Dipole Z            :          0.0000000            0.0000000            0.0000000
 Magnitude           :                                                    7.8799013
  Basis Set: (AUG-CC-PVTZ AUX)
    Blend: AUG-CC-PVTZ-RI + DEF2-QZVPP-RI
	 Reference Energy          =    -599.0175072133899903 [Eh]
	 Singles Energy            =      -0.0000000000000000 [Eh]
	 Same-Spin Energy          =      -0.0265140882527085 [Eh]
	 Opposite-Spin Energy      =      -0.0612471539593411 [Eh]
	 Correlation Energy        =      -0.0877612422120495 [Eh]
	 Total Energy              =    -599.1052684556020722 [Eh]

	 ================> DF-SCS-MP2 Energies <==================
	-----------------------------------------------------------
	 SCS Same-Spin Scale       =       0.3333333333333333 [-]
	 SCS Opposite-Spin Scale   =       1.2000000000000000 [-]
	 SCS Same-Spin Energy      =      -0.0088380294175695 [Eh]
	 SCS Opposite-Spin Energy  =      -0.0734965847512093 [Eh]
	 SCS Correlation Energy    =      -0.0823346141687788 [Eh]
	 SCS Total Energy          =    -599.0998418275587483 [Eh]
	-----------------------------------------------------------

*** Psi4 exiting successfully. Buy a developer a beer!
