                               Psi4 1.9 release

  ==> Input File <==

--------------------------------------------------------------------------
MEMORY 60 GB

molecule dimer {
0 1
O      0.000000     0.000000     0.000000
H     -0.588538     0.000000     0.756918
H     -0.588538     0.000000    -0.756918
--
1 1
K      3.931514     3.931514     0.000000
--
1 1
K      3.931514    -3.931514     0.000000

units ang
no_reorient
no_com
symmetry c1
}

set {
basis        aug-cc-pVTZ
scf_type     df
}

energy("mp2", bsse_type="cp")
--------------------------------------------------------------------------

                               Psi4 1.9 release
    Molecular point group: c1
  Charge       = 0
  Multiplicity = 1
  Basis Set: AUG-CC-PVTZ
    Blend: AUG-CC-PVTZ
  Basis Set: (AUG-CC-PVTZ AUX)
    Blend: AUG-CC-PVTZ-JKFIT + DEF2-UNIVERSAL-JKFIT
  @DF-RHF Final Energy:   -76.06048571423968
    Total Energy =                        -76.0604857142396753
 Dipole X            :          1.4417713           -2.2243513           -0.7825800
 Dipole Y            :          0.0000000            0.0000000            0.0000000
 Dipole Z            :         -0.0000000            0.0000000           -0.0000000
 Magnitude           :                                                    0.7825800
  Basis Set: (AUG-CC-PVTZ AUX)
    Blend: AUG-CC-PVTZ-RI + DEF2-QZVPP-RI
	 Reference Energy          =     -76.0604857142396753 [Eh]
	 Singles Energy            =      -0.0000000000000000 [Eh]
	 Same-Spin Energy          =      -0.0683739438114820 [Eh]
	 Opposite-Spin Energy      =      -0.2152904894894258 [Eh]
	 Correlation Energy        =      -0.2836644333009078 [Eh]
	 Total Energy              =     -76.3441501475405886 [Eh]
	 SCS Total Energy          =     -76.3416256162308144 [Eh]
                               Psi4 1.9 release
    Molecular point group: c1
  Basis Set: AUG-CC-PVTZ
    Blend: AUG-CC-PVTZ
  Basis Set: (AUG-CC-PVTZ AUX)
    Blend: AUG-CC-PVTZ-JKFIT + DEF2-UNIVERSAL-JKFIT
  @DF-RHF Final Energy:  -599.01750626470039
    Total Energy =                       -599.0175062647003870
  Basis Set: (AUG-CC-PVTZ AUX)
                               Psi4 1.9 release
  @DF-RHF Final Energy: -1197.96781389067132
    Total Energy =                      -1197.9678138906713230
                               Psi4 1.9 release
  @DF-RHF Final Energy:  -675.08392615236403
    Total Energy =                       -675.0839261523640289
                               Psi4 1.9 release
  @DF-RHF Final Energy:  -675.08392615230025
    Total Energy =                       -675.0839261523002506
                               Psi4 1.9 release
  Multiplicity = 1
  @DF-RHF Final Energy:  -599.01750626475348
    Total Energy =                       -599.0175062647534787
	 Singles Energy            =      -0.0000000000000000 [Eh]
	 Same-Spin Energy          =      -0.0256563587553863 [Eh]
	 Opposite-Spin Energy      =      -0.0588539316004530 [Eh]
	 Correlation Energy        =      -0.0845102903558392 [Eh]
	 Total Energy              =    -599.1020165551093442 [Eh]
	 SCS Total Energy          =    -599.0966831022591350 [Eh]
                               Psi4 1.9 release
    Molecular point group: c1

    Geometry (in Bohr), charge = 2, multiplicity = 1:

       Center              X                  Y                   Z               Mass
    ------------   -----------------  -----------------  -----------------  -----------------
         O            0.000000000000     0.000000000000     0.000000000000    15.994914619570
         H           -1.112175634425     0.000000000000     1.430367719429     1.007825032230
         H           -1.112175634425     0.000000000000    -1.430367719429     1.007825032230
         K            7.429484718403     7.429484718403     0.000000000000    38.963706486400
         K            7.429484718403    -7.429484718403     0.000000000000    38.963706486400

  Charge       = 2
  Multiplicity = 1
  Basis Set: AUG-CC-PVTZ
    Blend: AUG-CC-PVTZ
  Basis Set: (AUG-CC-PVTZ AUX)
    Blend: AUG-CC-PVTZ-JKFIT + DEF2-UNIVERSAL-JKFIT

    Orbital Energies [Eh]
    ---------------------

    Doubly Occupied:

       1A   -133.814906     2A   -133.814906     3A    -20.752055
       4A    -14.770315     5A    -14.770315     6A    -11.800385
       7A    -11.800385     8A    -11.800374     9A    -11.800374
      10A    -11.800370    11A    -11.800370    12A     -2.025376
      13A     -2.025376    14A     -1.537745    15A     -1.232163
      16A     -1.232163    17A     -1.231890    18A     -1.231890
      19A     -1.231765    20A     -1.231765    21A     -0.901124
      22A     -0.773585    23A     -0.696628

  @DF-RHF Final Energy: -1274.04015573844185

   => Energetics <=

    Nuclear Repulsion Energy =             69.0691546057229715
    One-Electron Energy =               -1878.0661643565267696
    Two-Electron Energy =                 534.9568540123619869
    Total Energy =                      -1274.0401557384416265
 Dipole X            :       -266.1339281          280.0960680           13.9621400
 Dipole Y            :         -0.0000000            0.0000000           -0.0000000
 Dipole Z            :         -0.0000000            0.0000000           -0.0000000
 Magnitude           :                                                   13.9621400
  Basis Set: (AUG-CC-PVTZ AUX)
    Blend: AUG-CC-PVTZ-RI + DEF2-QZVPP-RI
	 Reference Energy          =   -1274.0401557384418538 [Eh]
	 Singles Energy            =      -0.0000000000000000 [Eh]
	 Same-Spin Energy          =      -0.1196190736045014 [Eh]
	 Opposite-Spin Energy      =      -0.3326224041040085 [Eh]
	 Correlation Energy        =      -0.4522414777085099 [Eh]
	 Total Energy              =   -1274.4923972161502661 [Eh]

	 ================> DF-SCS-MP2 Energies <==================
	-----------------------------------------------------------
	 SCS Same-Spin Scale       =       0.3333333333333333 [-]
	 SCS Opposite-Spin Scale   =       1.2000000000000000 [-]
	 SCS Same-Spin Energy      =      -0.0398730245348338 [Eh]
	 SCS Opposite-Spin Energy  =      -0.3991468849248102 [Eh]
	 SCS Correlation Energy    =      -0.4390199094596440 [Eh]
	 SCS Total Energy          =   -1274.4791756479014566 [Eh]
	-----------------------------------------------------------

*** Psi4 exiting successfully. Buy a developer a beer!
