                               Psi4 1.9 release

  ==> Input File <==

--------------------------------------------------------------------------
MEMORY 60 GB

molecule dimer {
1 1
Gh(O)      0.000000     0.000000     0.000000
Gh(H)     -0.588538     0.000000     0.756918
Gh(H)     -0.588538     0.000000    -0.756918
K          2.358908     2.358908     0.000000
Gh(K)      2.358908    -2.358908     0.000000

units ang
no_reorient
no_com
symmetry c1
}

set {
basis        aug-cc-pVTZ
scf_type     df
}

energy("mp2")
--------------------------------------------------------------------------

    Molecular point group: c1

    Geometry (in Angstrom), charge = 1, multiplicity = 1:

       Center              X                  Y                   Z               Mass
    ------------   -----------------  -----------------  -----------------  -----------------
      Gh(O)           0.000000000000     0.000000000000     0.000000000000    15.994914619570
      Gh(H)          -0.588538000000     0.000000000000     0.756918000000     1.007825032230
      Gh(H)          -0.588538000000     0.000000000000    -0.756918000000     1.007825032230
         K            2.358908000000     2.358908000000     0.000000000000    38.963706486400
      Gh(K)           2.358908000000    -2.358908000000     0.000000000000    38.963706486400

  Charge       = 1
  Multiplicity = 1
  Basis Set: AUG-CC-PVTZ
    Blend: AUG-CC-PVTZ
  Basis Set: (AUG-CC-PVTZ AUX)
    Blend: AUG-CC-PVTZ-JKFIT + DEF2-UNIVERSAL-JKFIT

    Orbital Energies [Eh]
    ---------------------

    Doubly Occupied:

       1A   -133.753652     2A    -14.709124     3A    -11.739190
       4A    -11.739186     5A    -11.739185     6A     -1.964324
       7A     -1.170945     8A     -1.170913     9A     -1.170904

  @DF-RHF Final Energy:  -599.01750826639909

   => Energetics <=

    Nuclear Repulsion Energy =              0.0000000000000000
    One-Electron Energy =                -819.7201772666434181
    Two-Electron Energy =                 220.7026690002442990
    Total Energy =                       -599.0175082663990906
 Dipole X            :        -80.2386336           84.6961114            4.4574778
 Dipole Y            :        -80.2387344           84.6961114            4.4573770
 Dipole Z            :         -0.0000000            0.0000000           -0.0000000
 Magnitude           :                                                    6.3037543
  Basis Set: (AUG-CC-PVTZ AUX)
    Blend: AUG-CC-PVTZ-RI + DEF2-QZVPP-RI
	 Reference Energy          =    -599.0175082663990906 [Eh]
	 Singles Energy            =      -0.0000000000000000 [Eh]
	 Same-Spin Energy          =      -0.0277929049783914 [Eh]
	 Opposite-Spin Energy      =      -0.0647136196027130 [Eh]
	 Correlation Energy        =      -0.0925065245811044 [Eh]
	 Total Energy              =    -599.1100147909802445 [Eh]

	 ================> DF-SCS-MP2 Energies <==================
	-----------------------------------------------------------
	 SCS Same-Spin Scale       =       0.3333333333333333 [-]
	 SCS Opposite-Spin Scale   =       1.2000000000000000 [-]
	 SCS Same-Spin Energy      =      -0.0092643016594638 [Eh]
	 SCS Opposite-Spin Energy  =      -0.0776563435232556 [Eh]
	 SCS Correlation Energy    =      -0.0869206451827194 [Eh]
	 SCS Total Energy          =    -599.1044289115818628 [Eh]
	-----------------------------------------------------------

*** Psi4 exiting successfully. Buy a developer a beer!
