                               Psi4 1.9 release

  ==> Input File <==

--------------------------------------------------------------------------
MEMORY 60 GB

molecule dimer {
1 1
Gh(O)      0.000000     0.000000     0.000000
Gh(H)     -0.588538     0.000000     0.756918
Gh(H)     -0.588538     0.000000    -0.756918
Gh(K)      3.931514     3.931514     0.000000
K          3.931514    -3.931514     0.000000

units ang
no_reorient
no_com
symmetry c1
}

set {
basis        aug-cc-pVTZ
scf_type     df
}

energy("mp2")
--------------------------------------------------------------------------

    Molecular point group: c1

    Geometry (in Angstrom), charge = 1, multiplicity = 1:

       Center              X                  Y                   Z               Mass
    ------------   -----------------  -----------------  -----------------  -----------------
      Gh(O)           0.000000000000     0.000000000000     0.000000000000    15.994914619570
      Gh(H)          -0.588538000000     0.000000000000     0.756918000000     1.007825032230
      Gh(H)          -0.588538000000     0.000000000000    -0.756918000000     1.007825032230
      Gh(K)           3.931514000000     3.931514000000     0.000000000000    38.963706486400
         K            3.931514000000    -3.931514000000     0.000000000000    38.963706486400

  Charge       = 1
  Multiplicity = 1
  Basis Set: AUG-CC-PVTZ
    Blend: AUG-CC-PVTZ
  Basis Set: (AUG-CC-PVTZ AUX)
    Blend: AUG-CC-PVTZ-JKFIT + DEF2-UNIVERSAL-JKFIT

    Orbital Energies [Eh]
    ---------------------

    Doubly Occupied:

       1A   -133.753936     2A    -14.709354     3A    -11.739416
       4A    -11.739414     5A    -11.739414     6A     -1.964434
       7A     -1.171007     8A     -1.170997     9A     -1.170995

  @DF-RHF Final Energy:  -599.01750626475337

   => Energetics <=

    Nuclear Repulsion Energy =              0.0000000000000000
    One-Electron Energy =                -819.7170763436191692
    Two-Electron Energy =                 220.6995700788658041
    Total Energy =                       -599.0175062647533650
 Dipole X            :       -133.7307420          141.1602096            7.4294676
 Dipole Y            :        133.7307696         -141.1602096           -7.4294400
 Dipole Z            :         -0.0000000            0.0000000           -0.0000000
 Magnitude           :                                                   10.5068343
  Basis Set: (AUG-CC-PVTZ AUX)
    Blend: AUG-CC-PVTZ-RI + DEF2-QZVPP-RI
	 Reference Energy          =    -599.0175062647533650 [Eh]
	 Singles Energy            =      -0.0000000000000000 [Eh]
	 Same-Spin Energy          =      -0.0256563587559481 [Eh]
	 Opposite-Spin Energy      =      -0.0588539316011999 [Eh]
	 Correlation Energy        =      -0.0845102903571480 [Eh]
	 Total Energy              =    -599.1020165551104810 [Eh]

	 ================> DF-SCS-MP2 Energies <==================
	-----------------------------------------------------------
	 SCS Same-Spin Scale       =       0.3333333333333333 [-]
	 SCS Opposite-Spin Scale   =       1.2000000000000000 [-]
	 SCS Same-Spin Energy      =      -0.0085521195853160 [Eh]
	 SCS Opposite-Spin Energy  =      -0.0706247179214399 [Eh]
	 SCS Correlation Energy    =      -0.0791768375067559 [Eh]
	 SCS Total Energy          =    -599.0966831022601582 [Eh]
	-----------------------------------------------------------

*** Psi4 exiting successfully. Buy a developer a beer!
