                               Psi4 1.9 release

  ==> Input File <==

--------------------------------------------------------------------------
MEMORY 60 GB

molecule dimer {
1 1
Gh(O)      0.000000     0.000000     0.000000
Gh(H)     -0.588538     0.000000     0.756918
Gh(H)     -0.588538     0.000000    -0.756918
Gh(K)      2.752060     2.752060     0.000000
K          2.752060    -2.752060     0.000000

units ang
no_reorient
no_com
symmetry c1
}

set {
basis        aug-cc-pVTZ
scf_type     df
}

energy("mp2")
--------------------------------------------------------------------------

    Molecular point group: c1

    Geometry (in Angstrom), charge = 1, multiplicity = 1:

       Center              X                  Y                   Z               Mass
    ------------   -----------------  -----------------  -----------------  -----------------
      Gh(O)           0.000000000000     0.000000000000     0.000000000000    15.994914619570
      Gh(H)          -0.588538000000     0.000000000000     0.756918000000     1.007825032230
      Gh(H)          -0.588538000000     0.000000000000    -0.756918000000     1.007825032230
      Gh(K)           2.752060000000     2.752060000000     0.000000000000    38.963706486400
         K            2.752060000000    -2.752060000000     0.000000000000    38.963706486400

  Charge       = 1
  Multiplicity = 1
  Basis Set: AUG-CC-PVTZ
    Blend: AUG-CC-PVTZ
  Basis Set: (AUG-CC-PVTZ AUX)
    Blend: AUG-CC-PVTZ-JKFIT + DEF2-UNIVERSAL-JKFIT

    Orbital Energies [Eh]
    ---------------------

    Doubly Occupied:

       1A   -133.753758     2A    -14.709209     3A    -11.739274
       4A    -11.739270     5A    -11.739270     6A     -1.964365
       7A     -1.170970     8A     -1.170943     9A     -1.170937

  @DF-RHF Final Energy:  -599.01750749094253

   => Energetics <=

    Nuclear Repulsion Energy =              0.0000000000000000
    One-Electron Energy =                -819.7190233359162903
    Two-Electron Energy =                 220.7015158449736987
    Total Energy =                       -599.0175074909425348
 Dipole X            :        -93.6117358           98.8121539            5.2004181
 Dipole Y            :         93.6117316          -98.8121539           -5.2004224
 Dipole Z            :         -0.0000000            0.0000000           -0.0000000
 Magnitude           :                                                    7.3545048
  Basis Set: (AUG-CC-PVTZ AUX)
    Blend: AUG-CC-PVTZ-RI + DEF2-QZVPP-RI
	 Reference Energy          =    -599.0175074909425348 [Eh]
	 Singles Energy            =      -0.0000000000000000 [Eh]
	 Same-Spin Energy          =      -0.0268143071612735 [Eh]
	 Opposite-Spin Energy      =      -0.0620535341584128 [Eh]
	 Correlation Energy        =      -0.0888678413196863 [Eh]
	 Total Energy              =    -599.1063753322622460 [Eh]

	 ================> DF-SCS-MP2 Energies <==================
	-----------------------------------------------------------
	 SCS Same-Spin Scale       =       0.3333333333333333 [-]
	 SCS Opposite-Spin Scale   =       1.2000000000000000 [-]
	 SCS Same-Spin Energy      =      -0.0089381023870912 [Eh]
	 SCS Opposite-Spin Energy  =      -0.0744642409900954 [Eh]
	 SCS Correlation Energy    =      -0.0834023433771865 [Eh]
	 SCS Total Energy          =    -599.1009098343197365 [Eh]
	-----------------------------------------------------------

*** Psi4 exiting successfully. Buy a developer a beer!
