                               Psi4 1.9 release

  ==> Input File <==

--------------------------------------------------------------------------
MEMORY 60 GB

molecule dimer {
0 1
O      0.000000     0.000000     0.000000
H     -0.588538     0.000000     0.756918
H     -0.588538     0.000000    -0.756918
--
1 1
K      2.555484     2.555484     0.000000
--
1 1
K      2.555484    -2.555484     0.000000

units ang
no_reorient
no_com
symmetry c1
}

set {
basis        aug-cc-pVTZ
scf_type     df
}

energy("mp2", bsse_type="cp")
--------------------------------------------------------------------------

                               Psi4 1.9 release
    Molecular point group: c1
  Charge       = 0
  Multiplicity = 1
  Basis Set: AUG-CC-PVTZ
    Blend: AUG-CC-PVTZ
  Basis Set: (AUG-CC-PVTZ AUX)
    Blend: AUG-CC-PVTZ-JKFIT + DEF2-UNIVERSAL-JKFIT
  @DF-RHF Final Energy:   -76.06050334319826
    Total Energy =                        -76.0605033431982491
 Dipole X            :          1.4420549           -2.2243513           -0.7822964
 Dipole Y            :         -0.0000000            0.0000000           -0.0000000
 Dipole Z            :          0.0000000            0.0000000            0.0000000
 Magnitude           :                                                    0.7822964
  Basis Set: (AUG-CC-PVTZ AUX)
    Blend: AUG-CC-PVTZ-RI + DEF2-QZVPP-RI
	 Reference Energy          =     -76.0605033431982633 [Eh]
	 Singles Energy            =      -0.0000000000000000 [Eh]
	 Same-Spin Energy          =      -0.0683883314063959 [Eh]
	 Opposite-Spin Energy      =      -0.2154051036043927 [Eh]
	 Correlation Energy        =      -0.2837934350107886 [Eh]
	 Total Energy              =     -76.3442967782090562 [Eh]
	 SCS Total Energy          =     -76.3417855779923400 [Eh]
                               Psi4 1.9 release
    Molecular point group: c1
  Basis Set: AUG-CC-PVTZ
    Blend: AUG-CC-PVTZ
  Basis Set: (AUG-CC-PVTZ AUX)
    Blend: AUG-CC-PVTZ-JKFIT + DEF2-UNIVERSAL-JKFIT
  @DF-RHF Final Energy:  -599.01750781567750
    Total Energy =                       -599.0175078156776181
  Basis Set: (AUG-CC-PVTZ AUX)
                               Psi4 1.9 release
  @DF-RHF Final Energy: -1197.93205901580313
    Total Energy =                      -1197.9320590158031337
                               Psi4 1.9 release
  @DF-RHF Final Energy:  -675.09346519980079
    Total Energy =                       -675.0934651998007894
                               Psi4 1.9 release
  @DF-RHF Final Energy:  -675.09346520010092
    Total Energy =                       -675.0934652001010363
                               Psi4 1.9 release
  Multiplicity = 1
  @DF-RHF Final Energy:  -599.01750781542000
    Total Energy =                       -599.0175078154200037
	 Singles Energy            =      -0.0000000000000000 [Eh]
	 Same-Spin Energy          =      -0.0272212429810085 [Eh]
	 Opposite-Spin Energy      =      -0.0631432346045920 [Eh]
	 Correlation Energy        =      -0.0903644775856005 [Eh]
	 Total Energy              =    -599.1078722930055847 [Eh]
	 SCS Total Energy          =    -599.1023534446057965 [Eh]
                               Psi4 1.9 release
    Molecular point group: c1

    Geometry (in Bohr), charge = 2, multiplicity = 1:

       Center              X                  Y                   Z               Mass
    ------------   -----------------  -----------------  -----------------  -----------------
         O            0.000000000000     0.000000000000     0.000000000000    15.994914619570
         H           -1.112175634425     0.000000000000     1.430367719429     1.007825032230
         H           -1.112175634425     0.000000000000    -1.430367719429     1.007825032230
         K            4.829164877989     4.829164877989     0.000000000000    38.963706486400
         K            4.829164877989    -4.829164877989     0.000000000000    38.963706486400

  Charge       = 2
  Multiplicity = 1
  Basis Set: AUG-CC-PVTZ
    Blend: AUG-CC-PVTZ
  Basis Set: (AUG-CC-PVTZ AUX)
    Blend: AUG-CC-PVTZ-JKFIT + DEF2-UNIVERSAL-JKFIT

    Orbital Energies [Eh]
    ---------------------

    Doubly Occupied:

       1A   -133.839253     2A   -133.839253     3A    -20.848184
       4A    -14.794716     5A    -14.794716     6A    -11.824809
       7A    -11.824809     8A    -11.824779     9A    -11.824779
      10A    -11.824743    11A    -11.824743    12A     -2.049928
      13A     -2.049922    14A     -1.633664    15A     -1.257455
      16A     -1.257294    17A     -1.256593    18A     -1.256578
      19A     -1.255668    20A     -1.255626    21A     -0.996206
      22A     -0.874586    23A     -0.795017

  @DF-RHF Final Energy: -1274.02309690474976

   => Energetics <=

    Nuclear Repulsion Energy =            100.8277565568338332
    One-Electron Energy =               -1939.6950619644310336
    Two-Electron Energy =                 564.8442085028473230
    Total Energy =                      -1274.0230969047497638
 Dipole X            :       -172.6892520          181.2839141            8.5946621
 Dipole Y            :         -0.0000000            0.0000000           -0.0000000
 Dipole Z            :          0.0000000            0.0000000            0.0000000
 Magnitude           :                                                    8.5946621
  Basis Set: (AUG-CC-PVTZ AUX)
    Blend: AUG-CC-PVTZ-RI + DEF2-QZVPP-RI
	 Reference Energy          =   -1274.0230969047497638 [Eh]
	 Singles Energy            =      -0.0000000000000000 [Eh]
	 Same-Spin Energy          =      -0.1230864539461205 [Eh]
	 Opposite-Spin Energy      =      -0.3413517364757225 [Eh]
	 Correlation Energy        =      -0.4644381904218430 [Eh]
	 Total Energy              =   -1274.4875350951715518 [Eh]

	 ================> DF-SCS-MP2 Energies <==================
	-----------------------------------------------------------
	 SCS Same-Spin Scale       =       0.3333333333333333 [-]
	 SCS Opposite-Spin Scale   =       1.2000000000000000 [-]
	 SCS Same-Spin Energy      =      -0.0410288179820402 [Eh]
	 SCS Opposite-Spin Energy  =      -0.4096220837708670 [Eh]
	 SCS Correlation Energy    =      -0.4506509017529071 [Eh]
	 SCS Total Energy          =   -1274.4737478065026153 [Eh]
	-----------------------------------------------------------

*** Psi4 exiting successfully. Buy a developer a beer!
