                               Psi4 1.9 release

  ==> Input File <==

--------------------------------------------------------------------------
MEMORY 60 GB

molecule dimer {
2 1
O          0.000000     0.000000     0.000000
H         -0.588538     0.000000     0.756918
H         -0.588538     0.000000    -0.756918
K          2.162333     2.162333     0.000000
K          2.162333    -2.162333     0.000000

units ang
no_reorient
no_com
symmetry c1
}

set {
basis        aug-cc-pVTZ
scf_type     df
}

energy("mp2")
--------------------------------------------------------------------------

    Molecular point group: c1

    Geometry (in Angstrom), charge = 2, multiplicity = 1:

       Center              X                  Y                   Z               Mass
    ------------   -----------------  -----------------  -----------------  -----------------
         O            0.000000000000     0.000000000000     0.000000000000    15.994914619570
         H           -0.588538000000     0.000000000000     0.756918000000     1.007825032230
         H           -0.588538000000     0.000000000000    -0.756918000000     1.007825032230
         K            2.162333000000     2.162333000000     0.000000000000    38.963706486400
         K            2.162333000000    -2.162333000000     0.000000000000    38.963706486400

  Charge       = 2
  Multiplicity = 1
  Basis Set: AUG-CC-PVTZ
    Blend: AUG-CC-PVTZ
  Basis Set: (AUG-CC-PVTZ AUX)
    Blend: AUG-CC-PVTZ-JKFIT + DEF2-UNIVERSAL-JKFIT

    Orbital Energies [Eh]
    ---------------------

    Doubly Occupied:

       1A   -133.848324     2A   -133.848324     3A    -20.893646
       4A    -14.803957     5A    -14.803957     6A    -11.834058
       7A    -11.834058     8A    -11.834016     9A    -11.834016
      10A    -11.833937    11A    -11.833937    12A     -2.059742
      13A     -2.059654    14A     -1.680691    15A     -1.268449
      16A     -1.267244    17A     -1.266677    18A     -1.266538
      19A     -1.265256    20A     -1.264964    21A     -1.042187
      22A     -0.924828    23A     -0.843887

  @DF-RHF Final Energy: -1274.01562964445088

   => Energetics <=

    Nuclear Repulsion Energy =            117.1934568567861419
    One-Electron Energy =               -1971.5934794006102493
    Two-Electron Energy =                 580.3843928993734380
    Total Energy =                      -1274.0156296444506552
 Dipole X            :       -146.0377001          153.0519009            7.0142008
 Dipole Y            :         -0.0000000            0.0000000           -0.0000000
 Dipole Z            :         -0.0000000            0.0000000           -0.0000000
 Magnitude           :                                                    7.0142008
  Basis Set: (AUG-CC-PVTZ AUX)
    Blend: AUG-CC-PVTZ-RI + DEF2-QZVPP-RI
	 Reference Energy          =   -1274.0156296444508826 [Eh]
	 Singles Energy            =      -0.0000000000000000 [Eh]
	 Same-Spin Energy          =      -0.1262690909948547 [Eh]
	 Opposite-Spin Energy      =      -0.3490392024990600 [Eh]
	 Correlation Energy        =      -0.4753082934939147 [Eh]
	 Total Energy              =   -1274.4909379379448637 [Eh]

	 ================> DF-SCS-MP2 Energies <==================
	-----------------------------------------------------------
	 SCS Same-Spin Scale       =       0.3333333333333333 [-]
	 SCS Opposite-Spin Scale   =       1.2000000000000000 [-]
	 SCS Same-Spin Energy      =      -0.0420896969982849 [Eh]
	 SCS Opposite-Spin Energy  =      -0.4188470429988720 [Eh]
	 SCS Correlation Energy    =      -0.4609367399971569 [Eh]
	 SCS Total Energy          =   -1274.4765663844480059 [Eh]
	-----------------------------------------------------------

*** Psi4 exiting successfully. Buy a developer a beer!
