                               Psi4 1.9 release

  ==> Input File <==

--------------------------------------------------------------------------
MEMORY 60 GB

molecule dimer {
2 1
O          0.000000     0.000000     0.000000
H         -0.588538     0.000000     0.756918
H         -0.588538     0.000000    -0.756918
K          2.752060     2.752060     0.000000
K          2.752060    -2.752060     0.000000

units ang
no_reorient
no_com
symmetry c1
}

set {
basis        aug-cc-pVTZ
scf_type     df
}

energy("mp2")
--------------------------------------------------------------------------

    Molecular point group: c1

    Geometry (in Angstrom), charge = 2, multiplicity = 1:

       Center              X                  Y                   Z               Mass
    ------------   -----------------  -----------------  -----------------  -----------------
         O            0.000000000000     0.000000000000     0.000000000000    15.994914619570
         H           -0.588538000000     0.000000000000     0.756918000000     1.007825032230
         H           -0.588538000000     0.000000000000    -0.756918000000     1.007825032230
         K            2.752060000000     2.752060000000     0.000000000000    38.963706486400
         K            2.752060000000    -2.752060000000     0.000000000000    38.963706486400

  Charge       = 2
  Multiplicity = 1
  Basis Set: AUG-CC-PVTZ
    Blend: AUG-CC-PVTZ
  Basis Set: (AUG-CC-PVTZ AUX)
    Blend: AUG-CC-PVTZ-JKFIT + DEF2-UNIVERSAL-JKFIT

    Orbital Energies [Eh]
    ---------------------

    Doubly Occupied:

       1A   -133.834966     2A   -133.834966     3A    -20.828979
       4A    -14.790406     5A    -14.790406     6A    -11.820494
       7A    -11.820494     8A    -11.820469     9A    -11.820469
      10A    -11.820443    11A    -11.820443    12A     -2.045549
      13A     -2.045547    14A     -1.614420    15A     -1.252834
      16A     -1.252775    17A     -1.252148    18A     -1.252143
      19A     -1.251468    20A     -1.251454    21A     -0.977218
      22A     -0.854115    23A     -0.775119

  @DF-RHF Final Energy: -1274.02586188605324

   => Energetics <=

    Nuclear Repulsion Energy =             94.3739561963172946
    One-Electron Energy =               -1927.1449860132102003
    Two-Electron Energy =                 558.7451679308396706
    Total Energy =                      -1274.0258618860532351
 Dipole X            :       -186.0242609          195.3999566            9.3756957
 Dipole Y            :          0.0000000            0.0000000            0.0000000
 Dipole Z            :          0.0000000            0.0000000            0.0000000
 Magnitude           :                                                    9.3756957
  Basis Set: (AUG-CC-PVTZ AUX)
    Blend: AUG-CC-PVTZ-RI + DEF2-QZVPP-RI
	 Reference Energy          =   -1274.0258618860532351 [Eh]
	 Singles Energy            =      -0.0000000000000000 [Eh]
	 Same-Spin Energy          =      -0.1221471803020665 [Eh]
	 Opposite-Spin Energy      =      -0.3390994564117651 [Eh]
	 Correlation Energy        =      -0.4612466367138316 [Eh]
	 Total Energy              =   -1274.4871085227671301 [Eh]

	 ================> DF-SCS-MP2 Energies <==================
	-----------------------------------------------------------
	 SCS Same-Spin Scale       =       0.3333333333333333 [-]
	 SCS Opposite-Spin Scale   =       1.2000000000000000 [-]
	 SCS Same-Spin Energy      =      -0.0407157267673555 [Eh]
	 SCS Opposite-Spin Energy  =      -0.4069193476941181 [Eh]
	 SCS Correlation Energy    =      -0.4476350744614736 [Eh]
	 SCS Total Energy          =   -1274.4734969605146944 [Eh]
	-----------------------------------------------------------

*** Psi4 exiting successfully. Buy a developer a beer!
