                               Psi4 1.9 release

  ==> Input File <==

--------------------------------------------------------------------------
MEMORY 60 GB

molecule dimer {
2 1
O          0.000000     0.000000     0.000000
H         -0.588538     0.000000     0.756918
H         -0.588538     0.000000    -0.756918
K          2.358908     2.358908     0.000000
K          2.358908    -2.358908     0.000000

units ang
no_reorient
no_com
symmetry c1
}

set {
basis        aug-cc-pVTZ
scf_type     df
}

energy("mp2")
--------------------------------------------------------------------------

    Molecular point group: c1

    Geometry (in Angstrom), charge = 2, multiplicity = 1:

       Center              X                  Y                   Z               Mass
    ------------   -----------------  -----------------  -----------------  -----------------
         O            0.000000000000     0.000000000000     0.000000000000    15.994914619570
         H           -0.588538000000     0.000000000000     0.756918000000     1.007825032230
         H           -0.588538000000     0.000000000000    -0.756918000000     1.007825032230
         K            2.358908000000     2.358908000000     0.000000000000    38.963706486400
         K            2.358908000000    -2.358908000000     0.000000000000    38.963706486400

  Charge       = 2
  Multiplicity = 1
  Basis Set: AUG-CC-PVTZ
    Blend: AUG-CC-PVTZ
  Basis Set: (AUG-CC-PVTZ AUX)
    Blend: AUG-CC-PVTZ-JKFIT + DEF2-UNIVERSAL-JKFIT

    Orbital Energies [Eh]
    ---------------------

    Doubly Occupied:

       1A   -133.843771     2A   -133.843771     3A    -20.869789
       4A    -14.799281     5A    -14.799281     6A    -11.829380
       7A    -11.829380     8A    -11.829344     9A    -11.829344
      10A    -11.829290    11A    -11.829290    12A     -2.054645
      13A     -2.054622    14A     -1.655625    15A     -1.262580
      16A     -1.262141    17A     -1.261419    18A     -1.261374
      19A     -1.260209    20A     -1.260093    21A     -1.017776
      22A     -0.898061    23A     -0.817835

  @DF-RHF Final Energy: -1274.01996277542776

   => Energetics <=

    Nuclear Repulsion Energy =            108.3396914458627123
    One-Electron Energy =               -1954.3227032269160190
    Two-Electron Energy =                 571.9630490056255212
    Total Energy =                      -1274.0199627754277572
 Dipole X            :       -159.3604574          167.1678716            7.8074142
 Dipole Y            :         -0.0000000            0.0000000           -0.0000000
 Dipole Z            :         -0.0000000            0.0000000           -0.0000000
 Magnitude           :                                                    7.8074142
  Basis Set: (AUG-CC-PVTZ AUX)
    Blend: AUG-CC-PVTZ-RI + DEF2-QZVPP-RI
	 Reference Energy          =   -1274.0199627754277572 [Eh]
	 Singles Energy            =      -0.0000000000000000 [Eh]
	 Same-Spin Energy          =      -0.1244325584365775 [Eh]
	 Opposite-Spin Energy      =      -0.3446046530782739 [Eh]
	 Correlation Energy        =      -0.4690372115148514 [Eh]
	 Total Energy              =   -1274.4889999869426447 [Eh]

	 ================> DF-SCS-MP2 Energies <==================
	-----------------------------------------------------------
	 SCS Same-Spin Scale       =       0.3333333333333333 [-]
	 SCS Opposite-Spin Scale   =       1.2000000000000000 [-]
	 SCS Same-Spin Energy      =      -0.0414775194788592 [Eh]
	 SCS Opposite-Spin Energy  =      -0.4135255836939287 [Eh]
	 SCS Correlation Energy    =      -0.4550031031727879 [Eh]
	 SCS Total Energy          =   -1274.4749658786006421 [Eh]
	-----------------------------------------------------------

*** Psi4 exiting successfully. Buy a developer a beer!
