                               Psi4 1.9 release

  ==> Input File <==

--------------------------------------------------------------------------
MEMORY 60 GB

molecule dimer {
1 1
Gh(O)      0.000000     0.000000     0.000000
Gh(H)     -0.588538     0.000000     0.756918
Gh(H)     -0.588538     0.000000    -0.756918
Gh(K)      2.555484     2.555484     0.000000
K          2.555484    -2.555484     0.000000

units ang
no_reorient
no_com
symmetry c1
}

set {
basis        aug-cc-pVTZ
scf_type     df
}

energy("mp2")
--------------------------------------------------------------------------

    Molecular point group: c1

    Geometry (in Angstrom), charge = 1, multiplicity = 1:

       Center              X                  Y                   Z               Mass
    ------------   -----------------  -----------------  -----------------  -----------------
      Gh(O)           0.000000000000     0.000000000000     0.000000000000    15.994914619570
      Gh(H)          -0.588538000000     0.000000000000     0.756918000000     1.007825032230
      Gh(H)          -0.588538000000     0.000000000000    -0.756918000000     1.007825032230
      Gh(K)           2.555484000000     2.555484000000     0.000000000000    38.963706486400
         K            2.555484000000    -2.555484000000     0.000000000000    38.963706486400

  Charge       = 1
  Multiplicity = 1
  Basis Set: AUG-CC-PVTZ
    Blend: AUG-CC-PVTZ
  Basis Set: (AUG-CC-PVTZ AUX)
    Blend: AUG-CC-PVTZ-JKFIT + DEF2-UNIVERSAL-JKFIT

    Orbital Energies [Eh]
    ---------------------

    Doubly Occupied:

       1A   -133.753701     2A    -14.709163     3A    -11.739228
       4A    -11.739225     5A    -11.739224     6A     -1.964345
       7A     -1.170957     8A     -1.170927     9A     -1.170920

  @DF-RHF Final Energy:  -599.01750781542012

   => Energetics <=

    Nuclear Repulsion Energy =              0.0000000000000000
    One-Electron Energy =                -819.7196415242233343
    Two-Electron Energy =                 220.7021337088031885
    Total Energy =                       -599.0175078154201174
 Dipole X            :        -86.9251950           91.7541327            4.8289377
 Dipole Y            :         86.9252310          -91.7541327           -4.8289017
 Dipole Z            :         -0.0000000            0.0000000           -0.0000000
 Magnitude           :                                                    6.8291237
  Basis Set: (AUG-CC-PVTZ AUX)
    Blend: AUG-CC-PVTZ-RI + DEF2-QZVPP-RI
	 Reference Energy          =    -599.0175078154201174 [Eh]
	 Singles Energy            =      -0.0000000000000000 [Eh]
	 Same-Spin Energy          =      -0.0272212429811965 [Eh]
	 Opposite-Spin Energy      =      -0.0631432346049273 [Eh]
	 Correlation Energy        =      -0.0903644775861238 [Eh]
	 Total Energy              =    -599.1078722930062668 [Eh]

	 ================> DF-SCS-MP2 Energies <==================
	-----------------------------------------------------------
	 SCS Same-Spin Scale       =       0.3333333333333333 [-]
	 SCS Opposite-Spin Scale   =       1.2000000000000000 [-]
	 SCS Same-Spin Energy      =      -0.0090737476603988 [Eh]
	 SCS Opposite-Spin Energy  =      -0.0757718815259128 [Eh]
	 SCS Correlation Energy    =      -0.0848456291863116 [Eh]
	 SCS Total Energy          =    -599.1023534446064787 [Eh]
	-----------------------------------------------------------

*** Psi4 exiting successfully. Buy a developer a beer!
