                               Psi4 1.9 release

  ==> Input File <==

--------------------------------------------------------------------------
MEMORY 60 GB

molecule dimer {
2 1
O          0.000000     0.000000     0.000000
H         -0.588538     0.000000     0.756918
H         -0.588538     0.000000    -0.756918
K          1.965757     1.965757     0.000000
K          1.965757    -1.965757     0.000000

units ang
no_reorient
no_com
symmetry c1
}

set {
basis        aug-cc-pVTZ
scf_type     df
}

energy("mp2")
--------------------------------------------------------------------------

    Molecular point group: c1

    Geometry (in Angstrom), charge = 2, multiplicity = 1:

       Center              X                  Y                   Z               Mass
    ------------   -----------------  -----------------  -----------------  -----------------
         O            0.000000000000     0.000000000000     0.000000000000    15.994914619570
         H           -0.588538000000     0.000000000000     0.756918000000     1.007825032230
         H           -0.588538000000     0.000000000000    -0.756918000000     1.007825032230
         K            1.965757000000     1.965757000000     0.000000000000    38.963706486400
         K            1.965757000000    -1.965757000000     0.000000000000    38.963706486400

  Charge       = 2
  Multiplicity = 1
  Basis Set: AUG-CC-PVTZ
    Blend: AUG-CC-PVTZ
  Basis Set: (AUG-CC-PVTZ AUX)
    Blend: AUG-CC-PVTZ-JKFIT + DEF2-UNIVERSAL-JKFIT

    Orbital Energies [Eh]
    ---------------------

    Doubly Occupied:

       1A   -133.852445     2A   -133.852445     3A    -20.919022
       4A    -14.808428     5A    -14.808428     6A    -11.838513
       7A    -11.838513     8A    -11.838462     9A    -11.838462
      10A    -11.838354    11A    -11.838354    12A     -2.065408
      13A     -2.065078    14A     -1.709358    15A     -1.275838
      16A     -1.272541    17A     -1.272469    18A     -1.272107
      19A     -1.271225    20A     -1.270631    21A     -1.069631
      22A     -0.954641    23A     -0.873129

  @DF-RHF Final Energy: -1274.00752154625593

   => Energetics <=

    Nuclear Repulsion Energy =            127.7845064107809776
    One-Electron Energy =               -1992.2970936827809965
    Two-Electron Energy =                 590.5050657257442026
    Total Energy =                      -1274.0075215462557026
 Dipole X            :       -132.7196803          138.9358584            6.2161780
 Dipole Y            :          0.0000000            0.0000000            0.0000000
 Dipole Z            :          0.0000000            0.0000000            0.0000000
 Magnitude           :                                                    6.2161780
  Basis Set: (AUG-CC-PVTZ AUX)
    Blend: AUG-CC-PVTZ-RI + DEF2-QZVPP-RI
	 Reference Energy          =   -1274.0075215462559299 [Eh]
	 Singles Energy            =      -0.0000000000000000 [Eh]
	 Same-Spin Energy          =      -0.1288283097673499 [Eh]
	 Opposite-Spin Energy      =      -0.3549374521033449 [Eh]
	 Correlation Energy        =      -0.4837657618706949 [Eh]
	 Total Energy              =   -1274.4912873081266298 [Eh]

	 ================> DF-SCS-MP2 Energies <==================
	-----------------------------------------------------------
	 SCS Same-Spin Scale       =       0.3333333333333333 [-]
	 SCS Opposite-Spin Scale   =       1.2000000000000000 [-]
	 SCS Same-Spin Energy      =      -0.0429427699224500 [Eh]
	 SCS Opposite-Spin Energy  =      -0.4259249425240139 [Eh]
	 SCS Correlation Energy    =      -0.4688677124464639 [Eh]
	 SCS Total Energy          =   -1274.4763892587022838 [Eh]
	-----------------------------------------------------------

*** Psi4 exiting successfully. Buy a developer a beer!
