                               Psi4 1.8.2 release

  ==> Input File <==

--------------------------------------------------------------------------
MEMORY 60 GB

molecule dimer {
-1 1
Gh(O)      0.000000     0.000000     0.000000
Gh(H)      0.588538     0.756918     0.000000
Gh(H)      0.588538    -0.756918     0.000000
Gh(F)      2.895602     2.895602     0.000000
F          2.895602    -2.895602     0.000000

units ang
no_reorient
no_com
symmetry c1
}

set {
basis        aug-cc-pVTZ
scf_type     df
}

energy("mp2")
--------------------------------------------------------------------------

    Molecular point group: c1

    Geometry (in Angstrom), charge = -1, multiplicity = 1:

       Center              X                  Y                   Z               Mass
    ------------   -----------------  -----------------  -----------------  -----------------
      Gh(O)           0.000000000000     0.000000000000     0.000000000000    15.994914619570
      Gh(H)           0.588538000000     0.756918000000     0.000000000000     1.007825032230
      Gh(H)           0.588538000000    -0.756918000000     0.000000000000     1.007825032230
      Gh(F)           2.895602000000     2.895602000000     0.000000000000    18.998403162730
         F            2.895602000000    -2.895602000000     0.000000000000    18.998403162730

  Charge       = -1
  Multiplicity = 1
  Basis Set: AUG-CC-PVTZ
    Blend: AUG-CC-PVTZ
  Basis Set: (AUG-CC-PVTZ AUX)
    Blend: AUG-CC-PVTZ-JKFIT

    Orbital Energies [Eh]
    ---------------------

    Doubly Occupied:

       1A    -25.833748     2A     -1.076041     3A     -0.180978
       4A     -0.180971     5A     -0.180968

  @DF-RHF Final Energy:   -99.45082114381097

   => Energetics <=

    Nuclear Repulsion Energy =              0.0000000000000000
    One-Electron Energy =                -143.9962287827432021
    Two-Electron Energy =                  44.5454076389322324
    Total Energy =                        -99.4508211438109697
 Dipole X            :        -54.7182827           49.2470527           -5.4712300
 Dipole Y            :         54.7184442          -49.2470527            5.4713915
 Dipole Z            :          0.0000000            0.0000000            0.0000000
 Magnitude           :                                                    7.7376019
  Basis Set: (AUG-CC-PVTZ AUX)
    Blend: AUG-CC-PVTZ-RI
	 Reference Energy          =     -99.4508211438109697 [Eh]
	 Singles Energy            =      -0.0000000000000000 [Eh]
	 Same-Spin Energy          =      -0.0815777718424877 [Eh]
	 Opposite-Spin Energy      =      -0.2263177475912301 [Eh]
	 Correlation Energy        =      -0.3078955194337178 [Eh]
	 Total Energy              =     -99.7587166632446838 [Eh]

	 ================> DF-SCS-MP2 Energies <==================
	-----------------------------------------------------------
	 SCS Same-Spin Scale       =       0.3333333333333333 [-]
	 SCS Opposite-Spin Scale   =       1.2000000000000000 [-]
	 SCS Same-Spin Energy      =      -0.0271925906141626 [Eh]
	 SCS Opposite-Spin Energy  =      -0.2715812971094761 [Eh]
	 SCS Correlation Energy    =      -0.2987738877236387 [Eh]
	 SCS Total Energy          =     -99.7495950315346107 [Eh]
	-----------------------------------------------------------

*** Psi4 exiting successfully. Buy a developer a beer!
