                               Psi4 1.9 release

  ==> Input File <==

--------------------------------------------------------------------------
MEMORY 60 GB

molecule dimer {
0 1
O      0.000000     0.000000     0.000000
H      0.588538     0.756918     0.000000
H      0.588538    -0.756918     0.000000
--
-2 1
F      2.123442     2.123442     0.000000
F      2.123442    -2.123442     0.000000

units ang
no_reorient
no_com
symmetry c1
}

set {
basis        aug-cc-pVTZ
scf_type     df
}

energy("mp2", bsse_type="cp")
--------------------------------------------------------------------------

                               Psi4 1.9 release
    Molecular point group: c1
  Charge       = -2
  Multiplicity = 1
  Basis Set: AUG-CC-PVTZ
    Blend: AUG-CC-PVTZ
  Basis Set: (AUG-CC-PVTZ AUX)
    Blend: AUG-CC-PVTZ-JKFIT
  @DF-RHF Final Energy:  -198.77939231185979
    Total Energy =                       -198.7793923118597945
 Dipole X            :        -80.2650471           72.2290288           -8.0360183
 Dipole Y            :          0.0000000            0.0000000            0.0000000
 Dipole Z            :         -0.0000000            0.0000000           -0.0000000
 Magnitude           :                                                    8.0360183
  Basis Set: (AUG-CC-PVTZ AUX)
    Blend: AUG-CC-PVTZ-RI
	 Reference Energy          =    -198.7793923118597945 [Eh]
	 Singles Energy            =      -0.0000000000000000 [Eh]
	 Same-Spin Energy          =      -0.1636755176340704 [Eh]
	 Opposite-Spin Energy      =      -0.4547598306060642 [Eh]
	 Correlation Energy        =      -0.6184353482401347 [Eh]
	 Total Energy              =    -199.3978276600999209 [Eh]
	 SCS Total Energy          =    -199.3796626144651043 [Eh]
                               Psi4 1.9 release
    Molecular point group: c1
  Multiplicity = 1
  Basis Set: AUG-CC-PVTZ
    Blend: AUG-CC-PVTZ
  Basis Set: (AUG-CC-PVTZ AUX)
    Blend: AUG-CC-PVTZ-JKFIT
  @DF-RHF Final Energy:   -76.06052005979740
    Total Energy =                        -76.0605200597973834
  Basis Set: (AUG-CC-PVTZ AUX)
	 Singles Energy            =      -0.0000000000000000 [Eh]
	 Same-Spin Energy          =      -0.0684211729201025 [Eh]
	 Opposite-Spin Energy      =      -0.2161051031168489 [Eh]
	 Correlation Energy        =      -0.2845262760369514 [Eh]
	 Total Energy              =     -76.3450463358343541 [Eh]
	 SCS Total Energy          =     -76.3426532411776435 [Eh]
                               Psi4 1.9 release
    Molecular point group: c1

    Geometry (in Bohr), charge = -2, multiplicity = 1:

       Center              X                  Y                   Z               Mass
    ------------   -----------------  -----------------  -----------------  -----------------
         O            0.000000000000     0.000000000000     0.000000000000    15.994914619570
         H            1.112175634425     1.430367719429     0.000000000000     1.007825032230
         H            1.112175634425    -1.430367719429     0.000000000000     1.007825032230
         F            4.012723823294     4.012723823294     0.000000000000    18.998403162730
         F            4.012723823294    -4.012723823294     0.000000000000    18.998403162730

  Charge       = -2
  Multiplicity = 1
  Basis Set: AUG-CC-PVTZ
    Blend: AUG-CC-PVTZ
  Basis Set: (AUG-CC-PVTZ AUX)
    Blend: AUG-CC-PVTZ-JKFIT

    Orbital Energies [Eh]
    ---------------------

    Doubly Occupied:

       1A    -25.741426     2A    -25.741426     3A    -20.192675
       4A     -0.990010     5A     -0.986333     6A     -0.978342
       7A     -0.347451     8A     -0.227149     9A     -0.144928
      10A     -0.091477    11A     -0.091207    12A     -0.090215
      13A     -0.090114    14A     -0.090066    15A     -0.088872

  @DF-RHF Final Energy:  -274.89459763229559

   => Energetics <=

    Nuclear Repulsion Energy =             52.2016213943225509
    One-Electron Energy =                -502.4090554956630399
    Two-Electron Energy =                 175.3128364690449246
    Total Energy =                       -274.8945976322955858
 Dipole X            :        -81.1924989           74.4533801           -6.7391188
 Dipole Y            :         -0.0000000            0.0000000           -0.0000000
 Dipole Z            :          0.0000000            0.0000000            0.0000000
 Magnitude           :                                                    6.7391188
  Basis Set: (AUG-CC-PVTZ AUX)
    Blend: AUG-CC-PVTZ-RI
	 Reference Energy          =    -274.8945976322955858 [Eh]
	 Singles Energy            =      -0.0000000000000000 [Eh]
	 Same-Spin Energy          =      -0.2334794202219098 [Eh]
	 Opposite-Spin Energy      =      -0.6700144384472383 [Eh]
	 Correlation Energy        =      -0.9034938586691481 [Eh]
	 Total Energy              =    -275.7980914909647367 [Eh]

	 ================> DF-SCS-MP2 Energies <==================
	-----------------------------------------------------------
	 SCS Same-Spin Scale       =       0.3333333333333333 [-]
	 SCS Opposite-Spin Scale   =       1.2000000000000000 [-]
	 SCS Same-Spin Energy      =      -0.0778264734073033 [Eh]
	 SCS Opposite-Spin Energy  =      -0.8040173261366860 [Eh]
	 SCS Correlation Energy    =      -0.8818437995439893 [Eh]
	 SCS Total Energy          =    -275.7764414318396007 [Eh]
	-----------------------------------------------------------

*** Psi4 exiting successfully. Buy a developer a beer!
