                               Psi4 1.9 release

  ==> Input File <==

--------------------------------------------------------------------------
MEMORY 60 GB

molecule dimer {
0 1
O      0.000000     0.000000     0.000000
H      0.588538     0.756918     0.000000
H      0.588538    -0.756918     0.000000
--
-2 1
F      2.316482     2.316482     0.000000
F      2.316482    -2.316482     0.000000

units ang
no_reorient
no_com
symmetry c1
}

set {
basis        aug-cc-pVTZ
scf_type     df
}

energy("mp2", bsse_type="cp")
--------------------------------------------------------------------------

                               Psi4 1.9 release
    Molecular point group: c1
  Charge       = -2
  Multiplicity = 1
  Basis Set: AUG-CC-PVTZ
    Blend: AUG-CC-PVTZ
  Basis Set: (AUG-CC-PVTZ AUX)
    Blend: AUG-CC-PVTZ-JKFIT
  @DF-RHF Final Energy:  -198.78904547263085
    Total Energy =                       -198.7890454726308462
 Dipole X            :        -87.5587794           78.7952980           -8.7634814
 Dipole Y            :         -0.0000000            0.0000000           -0.0000000
 Dipole Z            :          0.0000000            0.0000000            0.0000000
 Magnitude           :                                                    8.7634814
  Basis Set: (AUG-CC-PVTZ AUX)
    Blend: AUG-CC-PVTZ-RI
	 Reference Energy          =    -198.7890454726308462 [Eh]
	 Singles Energy            =      -0.0000000000000000 [Eh]
	 Same-Spin Energy          =      -0.1634879874663931 [Eh]
	 Opposite-Spin Energy      =      -0.4538744810506766 [Eh]
	 Correlation Energy        =      -0.6173624685170697 [Eh]
	 Total Energy              =    -199.4064079411479042 [Eh]
	 SCS Total Energy          =    -199.3881908457137797 [Eh]
                               Psi4 1.9 release
    Molecular point group: c1
  Multiplicity = 1
  Basis Set: AUG-CC-PVTZ
    Blend: AUG-CC-PVTZ
  Basis Set: (AUG-CC-PVTZ AUX)
    Blend: AUG-CC-PVTZ-JKFIT
  @DF-RHF Final Energy:   -76.06051253556039
    Total Energy =                        -76.0605125355603917
  Basis Set: (AUG-CC-PVTZ AUX)
	 Singles Energy            =      -0.0000000000000000 [Eh]
	 Same-Spin Energy          =      -0.0684080053825019 [Eh]
	 Opposite-Spin Energy      =      -0.2159217014286936 [Eh]
	 Correlation Energy        =      -0.2843297068111955 [Eh]
	 Total Energy              =     -76.3448422423715840 [Eh]
	 SCS Total Energy          =     -76.3424212457356646 [Eh]
                               Psi4 1.9 release
    Molecular point group: c1

    Geometry (in Bohr), charge = -2, multiplicity = 1:

       Center              X                  Y                   Z               Mass
    ------------   -----------------  -----------------  -----------------  -----------------
         O            0.000000000000     0.000000000000     0.000000000000    15.994914619570
         H            1.112175634425     1.430367719429     0.000000000000     1.007825032230
         H            1.112175634425    -1.430367719429     0.000000000000     1.007825032230
         F            4.377516554553     4.377516554553     0.000000000000    18.998403162730
         F            4.377516554553    -4.377516554553     0.000000000000    18.998403162730

  Charge       = -2
  Multiplicity = 1
  Basis Set: AUG-CC-PVTZ
    Blend: AUG-CC-PVTZ
  Basis Set: (AUG-CC-PVTZ AUX)
    Blend: AUG-CC-PVTZ-JKFIT

    Orbital Energies [Eh]
    ---------------------

    Doubly Occupied:

       1A    -25.745929     2A    -25.745928     3A    -20.226577
       4A     -1.014513     5A     -0.989371     6A     -0.989121
       7A     -0.378026     8A     -0.256005     9A     -0.176357
      10A     -0.095278    11A     -0.094411    12A     -0.094291
      13A     -0.093962    14A     -0.093799    15A     -0.093074

  @DF-RHF Final Energy:  -274.89563186261609

   => Energetics <=

    Nuclear Repulsion Energy =             48.4862512299135204
    One-Electron Energy =                -494.5904840098546629
    Two-Electron Energy =                 171.2086009173250432
    Total Energy =                       -274.8956318626160851
 Dipole X            :        -88.5781502           81.0196493           -7.5585009
 Dipole Y            :         -0.0000000            0.0000000           -0.0000000
 Dipole Z            :         -0.0000000            0.0000000           -0.0000000
 Magnitude           :                                                    7.5585009
  Basis Set: (AUG-CC-PVTZ AUX)
    Blend: AUG-CC-PVTZ-RI
	 Reference Energy          =    -274.8956318626160851 [Eh]
	 Singles Energy            =      -0.0000000000000000 [Eh]
	 Same-Spin Energy          =      -0.2327233962716583 [Eh]
	 Opposite-Spin Energy      =      -0.6690560220937676 [Eh]
	 Correlation Energy        =      -0.9017794183654259 [Eh]
	 Total Energy              =    -275.7974112809815210 [Eh]

	 ================> DF-SCS-MP2 Energies <==================
	-----------------------------------------------------------
	 SCS Same-Spin Scale       =       0.3333333333333333 [-]
	 SCS Opposite-Spin Scale   =       1.2000000000000000 [-]
	 SCS Same-Spin Energy      =      -0.0775744654238861 [Eh]
	 SCS Opposite-Spin Energy  =      -0.8028672265125211 [Eh]
	 SCS Correlation Energy    =      -0.8804416919364072 [Eh]
	 SCS Total Energy          =    -275.7760735545525108 [Eh]
	-----------------------------------------------------------

*** Psi4 exiting successfully. Buy a developer a beer!
