                               Psi4 1.8.2 release

  ==> Input File <==

--------------------------------------------------------------------------
MEMORY 60 GB

molecule dimer {
-1 1
Gh(O)      0.000000     0.000000     0.000000
Gh(H)      0.588538     0.756918     0.000000
Gh(H)      0.588538    -0.756918     0.000000
F          2.702562     2.702562     0.000000
Gh(F)      2.702562    -2.702562     0.000000

units ang
no_reorient
no_com
symmetry c1
}

set {
basis        aug-cc-pVTZ
scf_type     df
}

energy("mp2")
--------------------------------------------------------------------------

    Molecular point group: c1

    Geometry (in Angstrom), charge = -1, multiplicity = 1:

       Center              X                  Y                   Z               Mass
    ------------   -----------------  -----------------  -----------------  -----------------
      Gh(O)           0.000000000000     0.000000000000     0.000000000000    15.994914619570
      Gh(H)           0.588538000000     0.756918000000     0.000000000000     1.007825032230
      Gh(H)           0.588538000000    -0.756918000000     0.000000000000     1.007825032230
         F            2.702562000000     2.702562000000     0.000000000000    18.998403162730
      Gh(F)           2.702562000000    -2.702562000000     0.000000000000    18.998403162730

  Charge       = -1
  Multiplicity = 1
  Basis Set: AUG-CC-PVTZ
    Blend: AUG-CC-PVTZ
  Basis Set: (AUG-CC-PVTZ AUX)
    Blend: AUG-CC-PVTZ-JKFIT

    Orbital Energies [Eh]
    ---------------------

    Doubly Occupied:

       1A    -25.833742     2A     -1.076034     3A     -0.180976
       4A     -0.180967     5A     -0.180960

  @DF-RHF Final Energy:   -99.45082539667658

   => Energetics <=

    Nuclear Repulsion Energy =              0.0000000000000000
    One-Electron Energy =                -143.9962929643780569
    Two-Electron Energy =                  44.5454675677014791
    Total Energy =                        -99.4508253966765778
 Dipole X            :        -51.0701883           45.9639182           -5.1062701
 Dipole Y            :        -51.0702044           45.9639182           -5.1062863
 Dipole Z            :         -0.0000000            0.0000000           -0.0000000
 Magnitude           :                                                    7.2213679
  Basis Set: (AUG-CC-PVTZ AUX)
    Blend: AUG-CC-PVTZ-RI
	 Reference Energy          =     -99.4508253966765778 [Eh]
	 Singles Energy            =      -0.0000000000000000 [Eh]
	 Same-Spin Energy          =      -0.0815889502220741 [Eh]
	 Opposite-Spin Energy      =      -0.2263854024733286 [Eh]
	 Correlation Energy        =      -0.3079743526954027 [Eh]
	 Total Energy              =     -99.7587997493719740 [Eh]

	 ================> DF-SCS-MP2 Energies <==================
	-----------------------------------------------------------
	 SCS Same-Spin Scale       =       0.3333333333333333 [-]
	 SCS Opposite-Spin Scale   =       1.2000000000000000 [-]
	 SCS Same-Spin Energy      =      -0.0271963167406914 [Eh]
	 SCS Opposite-Spin Energy  =      -0.2716624829679943 [Eh]
	 SCS Correlation Energy    =      -0.2988587997086857 [Eh]
	 SCS Total Energy          =     -99.7496841963852603 [Eh]
	-----------------------------------------------------------

*** Psi4 exiting successfully. Buy a developer a beer!
