                               Psi4 1.8.2 release

  ==> Input File <==

--------------------------------------------------------------------------
MEMORY 60 GB

molecule dimer {
-2 1
O          0.000000     0.000000     0.000000
H          0.588538     0.756918     0.000000
H          0.588538    -0.756918     0.000000
F          1.930402     1.930402     0.000000
F          1.930402    -1.930402     0.000000

units ang
no_reorient
no_com
symmetry c1
}

set {
basis        aug-cc-pVTZ
scf_type     df
}

energy("mp2")
--------------------------------------------------------------------------

    Molecular point group: c1

    Geometry (in Angstrom), charge = -2, multiplicity = 1:

       Center              X                  Y                   Z               Mass
    ------------   -----------------  -----------------  -----------------  -----------------
         O            0.000000000000     0.000000000000     0.000000000000    15.994914619570
         H            0.588538000000     0.756918000000     0.000000000000     1.007825032230
         H            0.588538000000    -0.756918000000     0.000000000000     1.007825032230
         F            1.930402000000     1.930402000000     0.000000000000    18.998403162730
         F            1.930402000000    -1.930402000000     0.000000000000    18.998403162730

  Charge       = -2
  Multiplicity = 1
  Basis Set: AUG-CC-PVTZ
    Blend: AUG-CC-PVTZ
  Basis Set: (AUG-CC-PVTZ AUX)
    Blend: AUG-CC-PVTZ-JKFIT

    Orbital Energies [Eh]
    ---------------------

    Doubly Occupied:

       1A    -25.736522     2A    -25.736521     3A    -20.150087
       4A     -0.987685     5A     -0.984832     6A     -0.940329
       7A     -0.313973     8A     -0.196803     9A     -0.109468
      10A     -0.089376    11A     -0.087050    12A     -0.084971
      13A     -0.084024    14A     -0.084021    15A     -0.083830

  @DF-RHF Final Energy:  -274.89061331079205

   => Energetics <=

    Nuclear Repulsion Energy =             56.7095818654778583
    One-Electron Energy =                -511.8614033194656940
    Two-Electron Energy =                 180.2612081431958018
    Total Energy =                       -274.8906133107920482
 Dipole X            :        -73.7718025           67.8871109           -5.8846916
 Dipole Y            :         -0.0000000            0.0000000           -0.0000000
 Dipole Z            :          0.0000000            0.0000000            0.0000000
 Magnitude           :                                                    5.8846916
  Basis Set: (AUG-CC-PVTZ AUX)
    Blend: AUG-CC-PVTZ-RI
	 Reference Energy          =    -274.8906133107920482 [Eh]
	 Singles Energy            =      -0.0000000000000000 [Eh]
	 Same-Spin Energy          =      -0.2347033937199555 [Eh]
	 Opposite-Spin Energy      =      -0.6711618399689020 [Eh]
	 Correlation Energy        =      -0.9058652336888575 [Eh]
	 Total Energy              =    -275.7964785444809195 [Eh]

	 ================> DF-SCS-MP2 Energies <==================
	-----------------------------------------------------------
	 SCS Same-Spin Scale       =       0.3333333333333333 [-]
	 SCS Opposite-Spin Scale   =       1.2000000000000000 [-]
	 SCS Same-Spin Energy      =      -0.0782344645733185 [Eh]
	 SCS Opposite-Spin Energy  =      -0.8053942079626824 [Eh]
	 SCS Correlation Energy    =      -0.8836286725360009 [Eh]
	 SCS Total Energy          =    -275.7742419833280678 [Eh]
	-----------------------------------------------------------

*** Psi4 exiting successfully. Buy a developer a beer!
