                               Psi4 1.9 release

  ==> Input File <==

--------------------------------------------------------------------------
MEMORY 60 GB

molecule dimer {
0 1
O      0.000000     0.000000     0.000000
H      0.588538     0.756918     0.000000
H      0.588538    -0.756918     0.000000
--
-2 1
F      2.895602     2.895602     0.000000
F      2.895602    -2.895602     0.000000

units ang
no_reorient
no_com
symmetry c1
}

set {
basis        aug-cc-pVTZ
scf_type     df
}

energy("mp2", bsse_type="cp")
--------------------------------------------------------------------------

                               Psi4 1.9 release
    Molecular point group: c1
  Charge       = -2
  Multiplicity = 1
  Basis Set: AUG-CC-PVTZ
    Blend: AUG-CC-PVTZ
  Basis Set: (AUG-CC-PVTZ AUX)
    Blend: AUG-CC-PVTZ-JKFIT
  @DF-RHF Final Energy:  -198.81085812507138
    Total Energy =                       -198.8108581250713769
 Dipole X            :       -109.4426112           98.4941055          -10.9485058
 Dipole Y            :         -0.0000000            0.0000000           -0.0000000
 Dipole Z            :         -0.0000000            0.0000000           -0.0000000
 Magnitude           :                                                   10.9485058
  Basis Set: (AUG-CC-PVTZ AUX)
    Blend: AUG-CC-PVTZ-RI
	 Reference Energy          =    -198.8108581250713769 [Eh]
	 Singles Energy            =      -0.0000000000000000 [Eh]
	 Same-Spin Energy          =      -0.1632215684077761 [Eh]
	 Opposite-Spin Energy      =      -0.4527753495683528 [Eh]
	 Correlation Energy        =      -0.6159969179761289 [Eh]
	 Total Energy              =    -199.4268550430475102 [Eh]
	 SCS Total Energy          =    -199.4085957340226685 [Eh]
                               Psi4 1.9 release
    Molecular point group: c1
  Multiplicity = 1
  Basis Set: AUG-CC-PVTZ
    Blend: AUG-CC-PVTZ
  Basis Set: (AUG-CC-PVTZ AUX)
    Blend: AUG-CC-PVTZ-JKFIT
  @DF-RHF Final Energy:   -76.06049247343338
    Total Energy =                        -76.0604924734333849
  Basis Set: (AUG-CC-PVTZ AUX)
	 Singles Energy            =      -0.0000000000000000 [Eh]
	 Same-Spin Energy          =      -0.0683765823670419 [Eh]
	 Opposite-Spin Energy      =      -0.2153602539607552 [Eh]
	 Correlation Energy        =      -0.2837368363277971 [Eh]
	 Total Energy              =     -76.3442293097611753 [Eh]
	 SCS Total Energy          =     -76.3417169723086317 [Eh]
                               Psi4 1.9 release
    Molecular point group: c1

    Geometry (in Bohr), charge = -2, multiplicity = 1:

       Center              X                  Y                   Z               Mass
    ------------   -----------------  -----------------  -----------------  -----------------
         O            0.000000000000     0.000000000000     0.000000000000    15.994914619570
         H            1.112175634425     1.430367719429     0.000000000000     1.007825032230
         H            1.112175634425    -1.430367719429     0.000000000000     1.007825032230
         F            5.471894748328     5.471894748328     0.000000000000    18.998403162730
         F            5.471894748328    -5.471894748328     0.000000000000    18.998403162730

  Charge       = -2
  Multiplicity = 1
  Basis Set: AUG-CC-PVTZ
    Blend: AUG-CC-PVTZ
  Basis Set: (AUG-CC-PVTZ AUX)
    Blend: AUG-CC-PVTZ-JKFIT

    Orbital Energies [Eh]
    ---------------------

    Doubly Occupied:

       1A    -25.757658     2A    -25.757658     3A    -20.298030
       4A     -1.084413     5A     -1.000035     6A     -1.000034
       7A     -0.447666     8A     -0.322364     9A     -0.244884
      10A     -0.105268    11A     -0.104984    12A     -0.104981
      13A     -0.104972    14A     -0.104931    15A     -0.104778

  @DF-RHF Final Energy:  -274.89854890681187

   => Energetics <=

    Nuclear Repulsion Energy =             40.4227675729033251
    One-Electron Energy =                -477.5573163844924807
    Two-Electron Energy =                 162.2359999047773158
    Total Energy =                       -274.8985489068118682
 Dipole X            :       -110.6311500          100.7184567           -9.9126933
 Dipole Y            :          0.0000000            0.0000000            0.0000000
 Dipole Z            :          0.0000000            0.0000000            0.0000000
 Magnitude           :                                                    9.9126933
  Basis Set: (AUG-CC-PVTZ AUX)
    Blend: AUG-CC-PVTZ-RI
	 Reference Energy          =    -274.8985489068118682 [Eh]
	 Singles Energy            =      -0.0000000000000000 [Eh]
	 Same-Spin Energy          =      -0.2317474141158055 [Eh]
	 Opposite-Spin Energy      =      -0.6675276657560693 [Eh]
	 Correlation Energy        =      -0.8992750798718747 [Eh]
	 Total Energy              =    -275.7978239866837384 [Eh]

	 ================> DF-SCS-MP2 Energies <==================
	-----------------------------------------------------------
	 SCS Same-Spin Scale       =       0.3333333333333333 [-]
	 SCS Opposite-Spin Scale   =       1.2000000000000000 [-]
	 SCS Same-Spin Energy      =      -0.0772491380386018 [Eh]
	 SCS Opposite-Spin Energy  =      -0.8010331989072831 [Eh]
	 SCS Correlation Energy    =      -0.8782823369458850 [Eh]
	 SCS Total Energy          =    -275.7768312437577265 [Eh]
	-----------------------------------------------------------

*** Psi4 exiting successfully. Buy a developer a beer!
