                               Psi4 1.8.2 release

  ==> Input File <==

--------------------------------------------------------------------------
MEMORY 60 GB

molecule dimer {
-1 1
Gh(O)      0.000000     0.000000     0.000000
Gh(H)      0.588538     0.756918     0.000000
Gh(H)      0.588538    -0.756918     0.000000
F          2.123442     2.123442     0.000000
Gh(F)      2.123442    -2.123442     0.000000

units ang
no_reorient
no_com
symmetry c1
}

set {
basis        aug-cc-pVTZ
scf_type     df
}

energy("mp2")
--------------------------------------------------------------------------

    Molecular point group: c1

    Geometry (in Angstrom), charge = -1, multiplicity = 1:

       Center              X                  Y                   Z               Mass
    ------------   -----------------  -----------------  -----------------  -----------------
      Gh(O)           0.000000000000     0.000000000000     0.000000000000    15.994914619570
      Gh(H)           0.588538000000     0.756918000000     0.000000000000     1.007825032230
      Gh(H)           0.588538000000    -0.756918000000     0.000000000000     1.007825032230
         F            2.123442000000     2.123442000000     0.000000000000    18.998403162730
      Gh(F)           2.123442000000    -2.123442000000     0.000000000000    18.998403162730

  Charge       = -1
  Multiplicity = 1
  Basis Set: AUG-CC-PVTZ
    Blend: AUG-CC-PVTZ
  Basis Set: (AUG-CC-PVTZ AUX)
    Blend: AUG-CC-PVTZ-JKFIT

    Orbital Energies [Eh]
    ---------------------

    Doubly Occupied:

       1A    -25.833755     2A     -1.076024     3A     -0.181006
       4A     -0.180950     5A     -0.180945

  @DF-RHF Final Energy:   -99.45086351398707

   => Energetics <=

    Nuclear Repulsion Energy =              0.0000000000000000
    One-Electron Energy =                -143.9963673920425435
    Two-Electron Energy =                  44.5455038780554702
    Total Energy =                        -99.4508635139870734
 Dipole X            :        -40.1269056           36.1145144           -4.0123912
 Dipole Y            :        -40.1273931           36.1145144           -4.0128787
 Dipole Z            :          0.0000000            0.0000000            0.0000000
 Magnitude           :                                                    5.6747228
  Basis Set: (AUG-CC-PVTZ AUX)
    Blend: AUG-CC-PVTZ-RI
	 Reference Energy          =     -99.4508635139870734 [Eh]
	 Singles Energy            =      -0.0000000000000000 [Eh]
	 Same-Spin Energy          =      -0.0816638822485329 [Eh]
	 Opposite-Spin Energy      =      -0.2270516698946766 [Eh]
	 Correlation Energy        =      -0.3087155521432096 [Eh]
	 Total Energy              =     -99.7595790661302857 [Eh]

	 ================> DF-SCS-MP2 Energies <==================
	-----------------------------------------------------------
	 SCS Same-Spin Scale       =       0.3333333333333333 [-]
	 SCS Opposite-Spin Scale   =       1.2000000000000000 [-]
	 SCS Same-Spin Energy      =      -0.0272212940828443 [Eh]
	 SCS Opposite-Spin Energy  =      -0.2724620038736120 [Eh]
	 SCS Correlation Energy    =      -0.2996832979564563 [Eh]
	 SCS Total Energy          =     -99.7505468119435363 [Eh]
	-----------------------------------------------------------

*** Psi4 exiting successfully. Buy a developer a beer!
