                               Psi4 1.8.2 release

  ==> Input File <==

--------------------------------------------------------------------------
MEMORY 60 GB

molecule dimer {
-1 1
Gh(O)      0.000000     0.000000     0.000000
Gh(H)      0.588538     0.756918     0.000000
Gh(H)      0.588538    -0.756918     0.000000
F          2.316482     2.316482     0.000000
Gh(F)      2.316482    -2.316482     0.000000

units ang
no_reorient
no_com
symmetry c1
}

set {
basis        aug-cc-pVTZ
scf_type     df
}

energy("mp2")
--------------------------------------------------------------------------

    Molecular point group: c1

    Geometry (in Angstrom), charge = -1, multiplicity = 1:

       Center              X                  Y                   Z               Mass
    ------------   -----------------  -----------------  -----------------  -----------------
      Gh(O)           0.000000000000     0.000000000000     0.000000000000    15.994914619570
      Gh(H)           0.588538000000     0.756918000000     0.000000000000     1.007825032230
      Gh(H)           0.588538000000    -0.756918000000     0.000000000000     1.007825032230
         F            2.316482000000     2.316482000000     0.000000000000    18.998403162730
      Gh(F)           2.316482000000    -2.316482000000     0.000000000000    18.998403162730

  Charge       = -1
  Multiplicity = 1
  Basis Set: AUG-CC-PVTZ
    Blend: AUG-CC-PVTZ
  Basis Set: (AUG-CC-PVTZ AUX)
    Blend: AUG-CC-PVTZ-JKFIT

    Orbital Energies [Eh]
    ---------------------

    Doubly Occupied:

       1A    -25.833729     2A     -1.076019     3A     -0.180999
       4A     -0.180943     5A     -0.180937

  @DF-RHF Final Energy:   -99.45084974529142

   => Energetics <=

    Nuclear Repulsion Energy =              0.0000000000000000
    One-Electron Energy =                -143.9964470929479319
    Two-Electron Energy =                  44.5455973476565035
    Total Energy =                        -99.4508497452914355
 Dipole X            :        -43.7744931           39.3976490           -4.3768441
 Dipole Y            :        -43.7746779           39.3976490           -4.3770289
 Dipole Z            :         -0.0000000            0.0000000           -0.0000000
 Magnitude           :                                                    6.1899230
  Basis Set: (AUG-CC-PVTZ AUX)
    Blend: AUG-CC-PVTZ-RI
	 Reference Energy          =     -99.4508497452914213 [Eh]
	 Singles Energy            =      -0.0000000000000000 [Eh]
	 Same-Spin Energy          =      -0.0816325738541831 [Eh]
	 Opposite-Spin Energy      =      -0.2267216094403140 [Eh]
	 Correlation Energy        =      -0.3083541832944972 [Eh]
	 Total Energy              =     -99.7592039285859187 [Eh]

	 ================> DF-SCS-MP2 Energies <==================
	-----------------------------------------------------------
	 SCS Same-Spin Scale       =       0.3333333333333333 [-]
	 SCS Opposite-Spin Scale   =       1.2000000000000000 [-]
	 SCS Same-Spin Energy      =      -0.0272108579513944 [Eh]
	 SCS Opposite-Spin Energy  =      -0.2720659313283768 [Eh]
	 SCS Correlation Energy    =      -0.2992767892797712 [Eh]
	 SCS Total Energy          =     -99.7501265345711943 [Eh]
	-----------------------------------------------------------

*** Psi4 exiting successfully. Buy a developer a beer!
