                               Psi4 1.8.2 release

  ==> Input File <==

--------------------------------------------------------------------------
MEMORY 60 GB

molecule dimer {
-2 1
O          0.000000     0.000000     0.000000
H          0.588538     0.756918     0.000000
H          0.588538    -0.756918     0.000000
F          2.702562     2.702562     0.000000
F          2.702562    -2.702562     0.000000

units ang
no_reorient
no_com
symmetry c1
}

set {
basis        aug-cc-pVTZ
scf_type     df
}

energy("mp2")
--------------------------------------------------------------------------

    Molecular point group: c1

    Geometry (in Angstrom), charge = -2, multiplicity = 1:

       Center              X                  Y                   Z               Mass
    ------------   -----------------  -----------------  -----------------  -----------------
         O            0.000000000000     0.000000000000     0.000000000000    15.994914619570
         H            0.588538000000     0.756918000000     0.000000000000     1.007825032230
         H            0.588538000000    -0.756918000000     0.000000000000     1.007825032230
         F            2.702562000000     2.702562000000     0.000000000000    18.998403162730
         F            2.702562000000    -2.702562000000     0.000000000000    18.998403162730

  Charge       = -2
  Multiplicity = 1
  Basis Set: AUG-CC-PVTZ
    Blend: AUG-CC-PVTZ
  Basis Set: (AUG-CC-PVTZ AUX)
    Blend: AUG-CC-PVTZ-JKFIT

    Orbital Energies [Eh]
    ---------------------

    Doubly Occupied:

       1A    -25.754009     2A    -25.754009     3A    -20.277908
       4A     -1.064487     5A     -0.996515     6A     -0.996514
       7A     -0.427700     8A     -0.303286     9A     -0.225419
      10A     -0.101956    11A     -0.101509    12A     -0.101500
      13A     -0.101438    14A     -0.101354    15A     -0.101097

  @DF-RHF Final Energy:  -274.89723023166380

   => Energetics <=

    Nuclear Repulsion Energy =             42.7126727131957153
    One-Electron Energy =                -482.4023995136483904
    Two-Electron Energy =                 164.7924965687888630
    Total Energy =                       -274.8972302316637979
 Dipole X            :       -103.2921080           94.1521876           -9.1399204
 Dipole Y            :         -0.0000000            0.0000000           -0.0000000
 Dipole Z            :          0.0000000            0.0000000            0.0000000
 Magnitude           :                                                    9.1399204
  Basis Set: (AUG-CC-PVTZ AUX)
    Blend: AUG-CC-PVTZ-RI
	 Reference Energy          =    -274.8972302316637979 [Eh]
	 Singles Energy            =      -0.0000000000000000 [Eh]
	 Same-Spin Energy          =      -0.2319398178104074 [Eh]
	 Opposite-Spin Energy      =      -0.6678240997585112 [Eh]
	 Correlation Energy        =      -0.8997639175689186 [Eh]
	 Total Energy              =    -275.7969941492327166 [Eh]

	 ================> DF-SCS-MP2 Energies <==================
	-----------------------------------------------------------
	 SCS Same-Spin Scale       =       0.3333333333333333 [-]
	 SCS Opposite-Spin Scale   =       1.2000000000000000 [-]
	 SCS Same-Spin Energy      =      -0.0773132726034691 [Eh]
	 SCS Opposite-Spin Energy  =      -0.8013889197102134 [Eh]
	 SCS Correlation Energy    =      -0.8787021923136825 [Eh]
	 SCS Total Energy          =    -275.7759324239775083 [Eh]
	-----------------------------------------------------------

*** Psi4 exiting successfully. Buy a developer a beer!
