                               Psi4 1.8.2 release

  ==> Input File <==

--------------------------------------------------------------------------
MEMORY 60 GB

molecule dimer {
0 1
O          0.000000     0.000000     0.000000
H          0.588538     0.756918     0.000000
H          0.588538    -0.756918     0.000000
Gh(F)      2.702562     2.702562     0.000000
Gh(F)      2.702562    -2.702562     0.000000

units ang
no_reorient
no_com
symmetry c1
}

set {
basis        aug-cc-pVTZ
scf_type     df
}

energy("mp2")
--------------------------------------------------------------------------

    Molecular point group: c1

    Geometry (in Angstrom), charge = 0, multiplicity = 1:

       Center              X                  Y                   Z               Mass
    ------------   -----------------  -----------------  -----------------  -----------------
         O            0.000000000000     0.000000000000     0.000000000000    15.994914619570
         H            0.588538000000     0.756918000000     0.000000000000     1.007825032230
         H            0.588538000000    -0.756918000000     0.000000000000     1.007825032230
      Gh(F)           2.702562000000     2.702562000000     0.000000000000    18.998403162730
      Gh(F)           2.702562000000    -2.702562000000     0.000000000000    18.998403162730

  Charge       = 0
  Multiplicity = 1
  Basis Set: AUG-CC-PVTZ
    Blend: AUG-CC-PVTZ
  Basis Set: (AUG-CC-PVTZ AUX)
    Blend: AUG-CC-PVTZ-JKFIT

    Orbital Energies [Eh]
    ---------------------

    Doubly Occupied:

       1A    -20.567612     2A     -1.352982     3A     -0.716514
       4A     -0.585131     5A     -0.510303

  @DF-RHF Final Energy:   -76.06049520180194

   => Energetics <=

    Nuclear Repulsion Energy =              9.1801978479270687
    One-Electron Energy =                -123.0163040998856161
    Two-Electron Energy =                  37.7756110501566127
    Total Energy =                        -76.0604952018019276
 Dipole X            :         -1.4420817            2.2243513            0.7822696
 Dipole Y            :         -0.0000000            0.0000000           -0.0000000
 Dipole Z            :          0.0000000            0.0000000            0.0000000
 Magnitude           :                                                    0.7822696
  Basis Set: (AUG-CC-PVTZ AUX)
    Blend: AUG-CC-PVTZ-RI
	 Reference Energy          =     -76.0604952018019418 [Eh]
	 Singles Energy            =      -0.0000000000000000 [Eh]
	 Same-Spin Energy          =      -0.0683845681839267 [Eh]
	 Opposite-Spin Energy      =      -0.2154963587665165 [Eh]
	 Correlation Energy        =      -0.2838809269504431 [Eh]
	 Total Energy              =     -76.3443761287523870 [Eh]

	 ================> DF-SCS-MP2 Energies <==================
	-----------------------------------------------------------
	 SCS Same-Spin Scale       =       0.3333333333333333 [-]
	 SCS Opposite-Spin Scale   =       1.2000000000000000 [-]
	 SCS Same-Spin Energy      =      -0.0227948560613089 [Eh]
	 SCS Opposite-Spin Energy  =      -0.2585956305198198 [Eh]
	 SCS Correlation Energy    =      -0.2813904865811286 [Eh]
	 SCS Total Energy          =     -76.3418856883830728 [Eh]
	-----------------------------------------------------------

*** Psi4 exiting successfully. Buy a developer a beer!
