                               Psi4 1.8.2 release

  ==> Input File <==

--------------------------------------------------------------------------
MEMORY 60 GB

molecule dimer {
0 1
O          0.000000     0.000000     0.000000
H          0.588538     0.756918     0.000000
H          0.588538    -0.756918     0.000000
Gh(F)      2.509522     2.509522     0.000000
Gh(F)      2.509522    -2.509522     0.000000

units ang
no_reorient
no_com
symmetry c1
}

set {
basis        aug-cc-pVTZ
scf_type     df
}

energy("mp2")
--------------------------------------------------------------------------

    Molecular point group: c1

    Geometry (in Angstrom), charge = 0, multiplicity = 1:

       Center              X                  Y                   Z               Mass
    ------------   -----------------  -----------------  -----------------  -----------------
         O            0.000000000000     0.000000000000     0.000000000000    15.994914619570
         H            0.588538000000     0.756918000000     0.000000000000     1.007825032230
         H            0.588538000000    -0.756918000000     0.000000000000     1.007825032230
      Gh(F)           2.509522000000     2.509522000000     0.000000000000    18.998403162730
      Gh(F)           2.509522000000    -2.509522000000     0.000000000000    18.998403162730

  Charge       = 0
  Multiplicity = 1
  Basis Set: AUG-CC-PVTZ
    Blend: AUG-CC-PVTZ
  Basis Set: (AUG-CC-PVTZ AUX)
    Blend: AUG-CC-PVTZ-JKFIT

    Orbital Energies [Eh]
    ---------------------

    Doubly Occupied:

       1A    -20.567621     2A     -1.352976     3A     -0.716508
       4A     -0.585129     5A     -0.510299

  @DF-RHF Final Energy:   -76.06050273029928

   => Energetics <=

    Nuclear Repulsion Energy =              9.1801978479270687
    One-Electron Energy =                -123.0163338403114039
    Two-Electron Energy =                  37.7756332620850515
    Total Energy =                        -76.0605027302992767
 Dipole X            :         -1.4421376            2.2243513            0.7822137
 Dipole Y            :          0.0000000            0.0000000            0.0000000
 Dipole Z            :         -0.0000000            0.0000000           -0.0000000
 Magnitude           :                                                    0.7822137
  Basis Set: (AUG-CC-PVTZ AUX)
    Blend: AUG-CC-PVTZ-RI
	 Reference Energy          =     -76.0605027302992767 [Eh]
	 Singles Energy            =      -0.0000000000000000 [Eh]
	 Same-Spin Energy          =      -0.0683961779605009 [Eh]
	 Opposite-Spin Energy      =      -0.2157009767555010 [Eh]
	 Correlation Energy        =      -0.2840971547160019 [Eh]
	 Total Energy              =     -76.3445998850152847 [Eh]

	 ================> DF-SCS-MP2 Energies <==================
	-----------------------------------------------------------
	 SCS Same-Spin Scale       =       0.3333333333333333 [-]
	 SCS Opposite-Spin Scale   =       1.2000000000000000 [-]
	 SCS Same-Spin Energy      =      -0.0227987259868336 [Eh]
	 SCS Opposite-Spin Energy  =      -0.2588411721066012 [Eh]
	 SCS Correlation Energy    =      -0.2816398980934349 [Eh]
	 SCS Total Energy          =     -76.3421426283927076 [Eh]
	-----------------------------------------------------------

*** Psi4 exiting successfully. Buy a developer a beer!
