                               Psi4 1.8.2 release

  ==> Input File <==

--------------------------------------------------------------------------
MEMORY 60 GB

molecule dimer {
0 1
O      0.000000     0.000000     0.000000
H      0.588538     0.756918     0.000000
H      0.588538    -0.756918     0.000000
--
-1 1
F      2.123442     2.123442     0.000000
--
-1 1
F      2.123442    -2.123442     0.000000

units ang
no_reorient
no_com
symmetry c1
}

set {
basis        aug-cc-pVTZ
scf_type     df
}

energy("mp2", bsse_type="cp")
--------------------------------------------------------------------------

                               Psi4 1.8.2 release
    Molecular point group: c1
  Charge       = 0
  Multiplicity = 1
  Basis Set: AUG-CC-PVTZ
    Blend: AUG-CC-PVTZ
  Basis Set: (AUG-CC-PVTZ AUX)
    Blend: AUG-CC-PVTZ-JKFIT
  @DF-RHF Final Energy:   -76.06052005980064
    Total Energy =                        -76.0605200598006377
 Dipole X            :         -1.4422646            2.2243513            0.7820867
 Dipole Y            :         -0.0000000            0.0000000           -0.0000000
 Dipole Z            :         -0.0000000            0.0000000           -0.0000000
 Magnitude           :                                                    0.7820867
  Basis Set: (AUG-CC-PVTZ AUX)
    Blend: AUG-CC-PVTZ-RI
	 Reference Energy          =     -76.0605200598006377 [Eh]
	 Singles Energy            =      -0.0000000000000000 [Eh]
	 Same-Spin Energy          =      -0.0684211729200973 [Eh]
	 Opposite-Spin Energy      =      -0.2161051031168160 [Eh]
	 Correlation Energy        =      -0.2845262760369133 [Eh]
	 Total Energy              =     -76.3450463358375515 [Eh]
	 SCS Total Energy          =     -76.3426532411808552 [Eh]
                               Psi4 1.8.2 release
    Molecular point group: c1
  Basis Set: AUG-CC-PVTZ
    Blend: AUG-CC-PVTZ
  Basis Set: (AUG-CC-PVTZ AUX)
    Blend: AUG-CC-PVTZ-JKFIT
  @DF-RHF Final Energy:   -99.45086351398720
    Total Energy =                        -99.4508635139872013
  Basis Set: (AUG-CC-PVTZ AUX)
                               Psi4 1.8.2 release
  @DF-RHF Final Energy:  -198.77939231186642
    Total Energy =                       -198.7793923118663884
                               Psi4 1.8.2 release
  @DF-RHF Final Energy:  -175.54109354679105
    Total Energy =                       -175.5410935467910463
                               Psi4 1.8.2 release
  @DF-RHF Final Energy:  -175.54109354678866
    Total Energy =                       -175.5410935467886588
                               Psi4 1.8.2 release
  Multiplicity = 1
  @DF-RHF Final Energy:   -99.45086351398979
    Total Energy =                        -99.4508635139897876
	 Singles Energy            =      -0.0000000000000000 [Eh]
	 Same-Spin Energy          =      -0.0816638822485194 [Eh]
	 Opposite-Spin Energy      =      -0.2270516698946537 [Eh]
	 Correlation Energy        =      -0.3087155521431731 [Eh]
	 Total Energy              =     -99.7595790661329573 [Eh]
	 SCS Total Energy          =     -99.7505468119462080 [Eh]
                               Psi4 1.8.2 release
    Molecular point group: c1

    Geometry (in Bohr), charge = -2, multiplicity = 1:

       Center              X                  Y                   Z               Mass
    ------------   -----------------  -----------------  -----------------  -----------------
         O            0.000000000000     0.000000000000     0.000000000000    15.994914619570
         H            1.112175634425     1.430367719429     0.000000000000     1.007825032230
         H            1.112175634425    -1.430367719429     0.000000000000     1.007825032230
         F            4.012723823294     4.012723823294     0.000000000000    18.998403162730
         F            4.012723823294    -4.012723823294     0.000000000000    18.998403162730

  Charge       = -2
  Multiplicity = 1
  Basis Set: AUG-CC-PVTZ
    Blend: AUG-CC-PVTZ
  Basis Set: (AUG-CC-PVTZ AUX)
    Blend: AUG-CC-PVTZ-JKFIT

    Orbital Energies [Eh]
    ---------------------

    Doubly Occupied:

       1A    -25.741426     2A    -25.741426     3A    -20.192675
       4A     -0.990010     5A     -0.986333     6A     -0.978342
       7A     -0.347451     8A     -0.227149     9A     -0.144928
      10A     -0.091477    11A     -0.091207    12A     -0.090215
      13A     -0.090114    14A     -0.090066    15A     -0.088872

  @DF-RHF Final Energy:  -274.89459763231264

   => Energetics <=

    Nuclear Repulsion Energy =             52.2016213943225509
    One-Electron Energy =                -502.4090554956791266
    Two-Electron Energy =                 175.3128364690439298
    Total Energy =                       -274.8945976323126388
 Dipole X            :        -81.1924989           74.4533801           -6.7391188
 Dipole Y            :         -0.0000000            0.0000000           -0.0000000
 Dipole Z            :          0.0000000            0.0000000            0.0000000
 Magnitude           :                                                    6.7391188
  Basis Set: (AUG-CC-PVTZ AUX)
    Blend: AUG-CC-PVTZ-RI
	 Reference Energy          =    -274.8945976323126388 [Eh]
	 Singles Energy            =      -0.0000000000000000 [Eh]
	 Same-Spin Energy          =      -0.2334794202217962 [Eh]
	 Opposite-Spin Energy      =      -0.6700144384469400 [Eh]
	 Correlation Energy        =      -0.9034938586687362 [Eh]
	 Total Energy              =    -275.7980914909813919 [Eh]

	 ================> DF-SCS-MP2 Energies <==================
	-----------------------------------------------------------
	 SCS Same-Spin Scale       =       0.3333333333333333 [-]
	 SCS Opposite-Spin Scale   =       1.2000000000000000 [-]
	 SCS Same-Spin Energy      =      -0.0778264734072654 [Eh]
	 SCS Opposite-Spin Energy  =      -0.8040173261363279 [Eh]
	 SCS Correlation Energy    =      -0.8818437995435934 [Eh]
	 SCS Total Energy          =    -275.7764414318562558 [Eh]
	-----------------------------------------------------------

*** Psi4 exiting successfully. Buy a developer a beer!
