                               Psi4 1.8.2 release

  ==> Input File <==

--------------------------------------------------------------------------
MEMORY 60 GB

molecule dimer {
-2 1
O          0.000000     0.000000     0.000000
H          0.588538     0.756918     0.000000
H          0.588538    -0.756918     0.000000
F          2.895602     2.895602     0.000000
F          2.895602    -2.895602     0.000000

units ang
no_reorient
no_com
symmetry c1
}

set {
basis        aug-cc-pVTZ
scf_type     df
}

energy("mp2")
--------------------------------------------------------------------------

    Molecular point group: c1

    Geometry (in Angstrom), charge = -2, multiplicity = 1:

       Center              X                  Y                   Z               Mass
    ------------   -----------------  -----------------  -----------------  -----------------
         O            0.000000000000     0.000000000000     0.000000000000    15.994914619570
         H            0.588538000000     0.756918000000     0.000000000000     1.007825032230
         H            0.588538000000    -0.756918000000     0.000000000000     1.007825032230
         F            2.895602000000     2.895602000000     0.000000000000    18.998403162730
         F            2.895602000000    -2.895602000000     0.000000000000    18.998403162730

  Charge       = -2
  Multiplicity = 1
  Basis Set: AUG-CC-PVTZ
    Blend: AUG-CC-PVTZ
  Basis Set: (AUG-CC-PVTZ AUX)
    Blend: AUG-CC-PVTZ-JKFIT

    Orbital Energies [Eh]
    ---------------------

    Doubly Occupied:

       1A    -25.757658     2A    -25.757658     3A    -20.298030
       4A     -1.084413     5A     -1.000035     6A     -1.000034
       7A     -0.447666     8A     -0.322364     9A     -0.244884
      10A     -0.105268    11A     -0.104984    12A     -0.104981
      13A     -0.104972    14A     -0.104931    15A     -0.104778

  @DF-RHF Final Energy:  -274.89854890681073

   => Energetics <=

    Nuclear Repulsion Energy =             40.4227675729033251
    One-Electron Energy =                -477.5573163844933333
    Two-Electron Energy =                 162.2359999047792769
    Total Energy =                       -274.8985489068106745
 Dipole X            :       -110.6311500          100.7184567           -9.9126933
 Dipole Y            :          0.0000000            0.0000000            0.0000000
 Dipole Z            :          0.0000000            0.0000000            0.0000000
 Magnitude           :                                                    9.9126933
  Basis Set: (AUG-CC-PVTZ AUX)
    Blend: AUG-CC-PVTZ-RI
	 Reference Energy          =    -274.8985489068107313 [Eh]
	 Singles Energy            =      -0.0000000000000000 [Eh]
	 Same-Spin Energy          =      -0.2317474141158036 [Eh]
	 Opposite-Spin Energy      =      -0.6675276657560948 [Eh]
	 Correlation Energy        =      -0.8992750798718985 [Eh]
	 Total Energy              =    -275.7978239866826016 [Eh]

	 ================> DF-SCS-MP2 Energies <==================
	-----------------------------------------------------------
	 SCS Same-Spin Scale       =       0.3333333333333333 [-]
	 SCS Opposite-Spin Scale   =       1.2000000000000000 [-]
	 SCS Same-Spin Energy      =      -0.0772491380386012 [Eh]
	 SCS Opposite-Spin Energy  =      -0.8010331989073137 [Eh]
	 SCS Correlation Energy    =      -0.8782823369459150 [Eh]
	 SCS Total Energy          =    -275.7768312437566465 [Eh]
	-----------------------------------------------------------

*** Psi4 exiting successfully. Buy a developer a beer!
