                               Psi4 1.8.2 release

  ==> Input File <==

--------------------------------------------------------------------------
MEMORY 60 GB

molecule dimer {
-1 1
Gh(O)      0.000000     0.000000     0.000000
Gh(H)      0.588538     0.756918     0.000000
Gh(H)      0.588538    -0.756918     0.000000
F          1.930402     1.930402     0.000000
Gh(F)      1.930402    -1.930402     0.000000

units ang
no_reorient
no_com
symmetry c1
}

set {
basis        aug-cc-pVTZ
scf_type     df
}

energy("mp2")
--------------------------------------------------------------------------

    Molecular point group: c1

    Geometry (in Angstrom), charge = -1, multiplicity = 1:

       Center              X                  Y                   Z               Mass
    ------------   -----------------  -----------------  -----------------  -----------------
      Gh(O)           0.000000000000     0.000000000000     0.000000000000    15.994914619570
      Gh(H)           0.588538000000     0.756918000000     0.000000000000     1.007825032230
      Gh(H)           0.588538000000    -0.756918000000     0.000000000000     1.007825032230
         F            1.930402000000     1.930402000000     0.000000000000    18.998403162730
      Gh(F)           1.930402000000    -1.930402000000     0.000000000000    18.998403162730

  Charge       = -1
  Multiplicity = 1
  Basis Set: AUG-CC-PVTZ
    Blend: AUG-CC-PVTZ
  Basis Set: (AUG-CC-PVTZ AUX)
    Blend: AUG-CC-PVTZ-JKFIT

    Orbital Energies [Eh]
    ---------------------

    Doubly Occupied:

       1A    -25.833795     2A     -1.076027     3A     -0.181008
       4A     -0.180959     5A     -0.180953

  @DF-RHF Final Energy:   -99.45087286499050

   => Energetics <=

    Nuclear Repulsion Energy =              0.0000000000000000
    One-Electron Energy =                -143.9962631270912539
    Two-Electron Energy =                  44.5453902621007529
    Total Energy =                        -99.4508728649905009
 Dipole X            :        -36.4792215           32.8313798           -3.6478417
 Dipole Y            :        -36.4797715           32.8313798           -3.6483917
 Dipole Z            :          0.0000000            0.0000000            0.0000000
 Magnitude           :                                                    5.1592161
  Basis Set: (AUG-CC-PVTZ AUX)
    Blend: AUG-CC-PVTZ-RI
	 Reference Energy          =     -99.4508728649905009 [Eh]
	 Singles Energy            =      -0.0000000000000000 [Eh]
	 Same-Spin Energy          =      -0.0816999294865006 [Eh]
	 Opposite-Spin Energy      =      -0.2274710422914477 [Eh]
	 Correlation Energy        =      -0.3091709717779482 [Eh]
	 Total Energy              =     -99.7600438367684461 [Eh]

	 ================> DF-SCS-MP2 Energies <==================
	-----------------------------------------------------------
	 SCS Same-Spin Scale       =       0.3333333333333333 [-]
	 SCS Opposite-Spin Scale   =       1.2000000000000000 [-]
	 SCS Same-Spin Energy      =      -0.0272333098288335 [Eh]
	 SCS Opposite-Spin Energy  =      -0.2729652507497372 [Eh]
	 SCS Correlation Energy    =      -0.3001985605785707 [Eh]
	 SCS Total Energy          =     -99.7510714255690658 [Eh]
	-----------------------------------------------------------

*** Psi4 exiting successfully. Buy a developer a beer!
