                               Psi4 1.8.2 release

  ==> Input File <==

--------------------------------------------------------------------------
MEMORY 60 GB

molecule dimer {
0 1
O          0.000000     0.000000     0.000000
H          0.588538     0.756918     0.000000
H          0.588538    -0.756918     0.000000
Gh(F)      2.123442     2.123442     0.000000
Gh(F)      2.123442    -2.123442     0.000000

units ang
no_reorient
no_com
symmetry c1
}

set {
basis        aug-cc-pVTZ
scf_type     df
}

energy("mp2")
--------------------------------------------------------------------------

    Molecular point group: c1

    Geometry (in Angstrom), charge = 0, multiplicity = 1:

       Center              X                  Y                   Z               Mass
    ------------   -----------------  -----------------  -----------------  -----------------
         O            0.000000000000     0.000000000000     0.000000000000    15.994914619570
         H            0.588538000000     0.756918000000     0.000000000000     1.007825032230
         H            0.588538000000    -0.756918000000     0.000000000000     1.007825032230
      Gh(F)           2.123442000000     2.123442000000     0.000000000000    18.998403162730
      Gh(F)           2.123442000000    -2.123442000000     0.000000000000    18.998403162730

  Charge       = 0
  Multiplicity = 1
  Basis Set: AUG-CC-PVTZ
    Blend: AUG-CC-PVTZ
  Basis Set: (AUG-CC-PVTZ AUX)
    Blend: AUG-CC-PVTZ-JKFIT

    Orbital Energies [Eh]
    ---------------------

    Doubly Occupied:

       1A    -20.567603     2A     -1.352957     3A     -0.716488
       4A     -0.585111     5A     -0.510296

  @DF-RHF Final Energy:   -76.06052005980077

   => Energetics <=

    Nuclear Repulsion Energy =              9.1801978479270687
    One-Electron Energy =                -123.0165254602679425
    Two-Electron Energy =                  37.7758075525401154
    Total Energy =                        -76.0605200598007656
 Dipole X            :         -1.4422646            2.2243513            0.7820867
 Dipole Y            :         -0.0000000            0.0000000           -0.0000000
 Dipole Z            :         -0.0000000            0.0000000           -0.0000000
 Magnitude           :                                                    0.7820867
  Basis Set: (AUG-CC-PVTZ AUX)
    Blend: AUG-CC-PVTZ-RI
	 Reference Energy          =     -76.0605200598007656 [Eh]
	 Singles Energy            =      -0.0000000000000000 [Eh]
	 Same-Spin Energy          =      -0.0684211729200982 [Eh]
	 Opposite-Spin Energy      =      -0.2161051031168167 [Eh]
	 Correlation Energy        =      -0.2845262760369149 [Eh]
	 Total Energy              =     -76.3450463358376794 [Eh]

	 ================> DF-SCS-MP2 Energies <==================
	-----------------------------------------------------------
	 SCS Same-Spin Scale       =       0.3333333333333333 [-]
	 SCS Opposite-Spin Scale   =       1.2000000000000000 [-]
	 SCS Same-Spin Energy      =      -0.0228070576400327 [Eh]
	 SCS Opposite-Spin Energy  =      -0.2593261237401800 [Eh]
	 SCS Correlation Energy    =      -0.2821331813802128 [Eh]
	 SCS Total Energy          =     -76.3426532411809831 [Eh]
	-----------------------------------------------------------

*** Psi4 exiting successfully. Buy a developer a beer!
