                               Psi4 1.8.2 release

  ==> Input File <==

--------------------------------------------------------------------------
MEMORY 60 GB

molecule dimer {
-2 1
O          0.000000     0.000000     0.000000
H          0.588538     0.756918     0.000000
H          0.588538    -0.756918     0.000000
F          3.860803     3.860803     0.000000
F          3.860803    -3.860803     0.000000

units ang
no_reorient
no_com
symmetry c1
}

set {
basis        aug-cc-pVTZ
scf_type     df
}

energy("mp2")
--------------------------------------------------------------------------

    Molecular point group: c1

    Geometry (in Angstrom), charge = -2, multiplicity = 1:

       Center              X                  Y                   Z               Mass
    ------------   -----------------  -----------------  -----------------  -----------------
         O            0.000000000000     0.000000000000     0.000000000000    15.994914619570
         H            0.588538000000     0.756918000000     0.000000000000     1.007825032230
         H            0.588538000000    -0.756918000000     0.000000000000     1.007825032230
         F            3.860803000000     3.860803000000     0.000000000000    18.998403162730
         F            3.860803000000    -3.860803000000     0.000000000000    18.998403162730

  Charge       = -2
  Multiplicity = 1
  Basis Set: AUG-CC-PVTZ
    Blend: AUG-CC-PVTZ
  Basis Set: (AUG-CC-PVTZ AUX)
    Blend: AUG-CC-PVTZ-JKFIT

    Orbital Energies [Eh]
    ---------------------

    Doubly Occupied:

       1A    -25.772593     2A    -25.772593     3A    -20.367335
       4A     -1.153323     5A     -1.014895     6A     -1.014895
       7A     -0.516828     8A     -0.388865     9A     -0.312363
      10A     -0.119852    11A     -0.119828    12A     -0.119825
      13A     -0.119818    14A     -0.119797    15A     -0.119791

  @DF-RHF Final Energy:  -274.90731610021862

   => Energetics <=

    Nuclear Repulsion Energy =             32.4825541203326651
    One-Electron Energy =                -460.7145344850395077
    Two-Electron Energy =                 153.3246642644882343
    Total Energy =                       -274.9073161002186225
 Dipole X            :       -147.2309730          133.5498366          -13.6811365
 Dipole Y            :         -0.0000000            0.0000000           -0.0000000
 Dipole Z            :          0.0000000            0.0000000            0.0000000
 Magnitude           :                                                   13.6811365
  Basis Set: (AUG-CC-PVTZ AUX)
    Blend: AUG-CC-PVTZ-RI
	 Reference Energy          =    -274.9073161002186225 [Eh]
	 Singles Energy            =      -0.0000000000000000 [Eh]
	 Same-Spin Energy          =      -0.2314562642435996 [Eh]
	 Opposite-Spin Energy      =      -0.6672344509944906 [Eh]
	 Correlation Energy        =      -0.8986907152380903 [Eh]
	 Total Energy              =    -275.8060068154567261 [Eh]

	 ================> DF-SCS-MP2 Energies <==================
	-----------------------------------------------------------
	 SCS Same-Spin Scale       =       0.3333333333333333 [-]
	 SCS Opposite-Spin Scale   =       1.2000000000000000 [-]
	 SCS Same-Spin Energy      =      -0.0771520880811999 [Eh]
	 SCS Opposite-Spin Energy  =      -0.8006813411933887 [Eh]
	 SCS Correlation Energy    =      -0.8778334292745886 [Eh]
	 SCS Total Energy          =    -275.7851495294931965 [Eh]
	-----------------------------------------------------------

*** Psi4 exiting successfully. Buy a developer a beer!
