                               Psi4 1.8.2 release

  ==> Input File <==

--------------------------------------------------------------------------
MEMORY 60 GB

molecule dimer {
-2 1
O          0.000000     0.000000     0.000000
H          0.588538     0.756918     0.000000
H          0.588538    -0.756918     0.000000
F          2.316482     2.316482     0.000000
F          2.316482    -2.316482     0.000000

units ang
no_reorient
no_com
symmetry c1
}

set {
basis        aug-cc-pVTZ
scf_type     df
}

energy("mp2")
--------------------------------------------------------------------------

    Molecular point group: c1

    Geometry (in Angstrom), charge = -2, multiplicity = 1:

       Center              X                  Y                   Z               Mass
    ------------   -----------------  -----------------  -----------------  -----------------
         O            0.000000000000     0.000000000000     0.000000000000    15.994914619570
         H            0.588538000000     0.756918000000     0.000000000000     1.007825032230
         H            0.588538000000    -0.756918000000     0.000000000000     1.007825032230
         F            2.316482000000     2.316482000000     0.000000000000    18.998403162730
         F            2.316482000000    -2.316482000000     0.000000000000    18.998403162730

  Charge       = -2
  Multiplicity = 1
  Basis Set: AUG-CC-PVTZ
    Blend: AUG-CC-PVTZ
  Basis Set: (AUG-CC-PVTZ AUX)
    Blend: AUG-CC-PVTZ-JKFIT

    Orbital Energies [Eh]
    ---------------------

    Doubly Occupied:

       1A    -25.745929     2A    -25.745928     3A    -20.226577
       4A     -1.014513     5A     -0.989371     6A     -0.989121
       7A     -0.378026     8A     -0.256005     9A     -0.176357
      10A     -0.095278    11A     -0.094411    12A     -0.094291
      13A     -0.093962    14A     -0.093799    15A     -0.093074

  @DF-RHF Final Energy:  -274.89563186255685

   => Energetics <=

    Nuclear Repulsion Energy =             48.4862512299135204
    One-Electron Energy =                -494.5904840098321529
    Two-Electron Energy =                 171.2086009173617640
    Total Energy =                       -274.8956318625568542
 Dipole X            :        -88.5781502           81.0196493           -7.5585009
 Dipole Y            :         -0.0000000            0.0000000           -0.0000000
 Dipole Z            :         -0.0000000            0.0000000           -0.0000000
 Magnitude           :                                                    7.5585009
  Basis Set: (AUG-CC-PVTZ AUX)
    Blend: AUG-CC-PVTZ-RI
	 Reference Energy          =    -274.8956318625568542 [Eh]
	 Singles Energy            =      -0.0000000000000000 [Eh]
	 Same-Spin Energy          =      -0.2327233962717101 [Eh]
	 Opposite-Spin Energy      =      -0.6690560220938636 [Eh]
	 Correlation Energy        =      -0.9017794183655736 [Eh]
	 Total Energy              =    -275.7974112809224039 [Eh]

	 ================> DF-SCS-MP2 Energies <==================
	-----------------------------------------------------------
	 SCS Same-Spin Scale       =       0.3333333333333333 [-]
	 SCS Opposite-Spin Scale   =       1.2000000000000000 [-]
	 SCS Same-Spin Energy      =      -0.0775744654239034 [Eh]
	 SCS Opposite-Spin Energy  =      -0.8028672265126363 [Eh]
	 SCS Correlation Energy    =      -0.8804416919365396 [Eh]
	 SCS Total Energy          =    -275.7760735544933937 [Eh]
	-----------------------------------------------------------

*** Psi4 exiting successfully. Buy a developer a beer!
