                               Psi4 1.8.2 release

  ==> Input File <==

--------------------------------------------------------------------------
MEMORY 60 GB

molecule dimer {
-2 1
O          0.000000     0.000000     0.000000
H          0.588538     0.756918     0.000000
H          0.588538    -0.756918     0.000000
F          2.509522     2.509522     0.000000
F          2.509522    -2.509522     0.000000

units ang
no_reorient
no_com
symmetry c1
}

set {
basis        aug-cc-pVTZ
scf_type     df
}

energy("mp2")
--------------------------------------------------------------------------

    Molecular point group: c1

    Geometry (in Angstrom), charge = -2, multiplicity = 1:

       Center              X                  Y                   Z               Mass
    ------------   -----------------  -----------------  -----------------  -----------------
         O            0.000000000000     0.000000000000     0.000000000000    15.994914619570
         H            0.588538000000     0.756918000000     0.000000000000     1.007825032230
         H            0.588538000000    -0.756918000000     0.000000000000     1.007825032230
         F            2.509522000000     2.509522000000     0.000000000000    18.998403162730
         F            2.509522000000    -2.509522000000     0.000000000000    18.998403162730

  Charge       = -2
  Multiplicity = 1
  Basis Set: AUG-CC-PVTZ
    Blend: AUG-CC-PVTZ
  Basis Set: (AUG-CC-PVTZ AUX)
    Blend: AUG-CC-PVTZ-JKFIT

    Orbital Energies [Eh]
    ---------------------

    Doubly Occupied:

       1A    -25.750103     2A    -25.750103     3A    -20.254443
       4A     -1.041401     5A     -0.992901     6A     -0.992879
       7A     -0.404672     8A     -0.281336     9A     -0.202852
      10A     -0.098628    11A     -0.097952    12A     -0.097925
      13A     -0.097743    14A     -0.097612    15A     -0.097182

  @DF-RHF Final Energy:  -274.89627975303665

   => Energetics <=

    Nuclear Repulsion Energy =             45.3682702479689510
    One-Electron Energy =                -488.0136325477154742
    Two-Electron Energy =                 167.7490825467098432
    Total Energy =                       -274.8962797530366515
 Dipole X            :        -95.9423917           87.5859184           -8.3564733
 Dipole Y            :          0.0000000            0.0000000            0.0000000
 Dipole Z            :          0.0000000            0.0000000            0.0000000
 Magnitude           :                                                    8.3564733
  Basis Set: (AUG-CC-PVTZ AUX)
    Blend: AUG-CC-PVTZ-RI
	 Reference Energy          =    -274.8962797530366515 [Eh]
	 Singles Energy            =      -0.0000000000000000 [Eh]
	 Same-Spin Energy          =      -0.2322451402596721 [Eh]
	 Opposite-Spin Energy      =      -0.6683230853421023 [Eh]
	 Correlation Energy        =      -0.9005682256017743 [Eh]
	 Total Energy              =    -275.7968479786384250 [Eh]

	 ================> DF-SCS-MP2 Energies <==================
	-----------------------------------------------------------
	 SCS Same-Spin Scale       =       0.3333333333333333 [-]
	 SCS Opposite-Spin Scale   =       1.2000000000000000 [-]
	 SCS Same-Spin Energy      =      -0.0774150467532240 [Eh]
	 SCS Opposite-Spin Energy  =      -0.8019877024105228 [Eh]
	 SCS Correlation Energy    =      -0.8794027491637467 [Eh]
	 SCS Total Energy          =    -275.7756825022004250 [Eh]
	-----------------------------------------------------------

*** Psi4 exiting successfully. Buy a developer a beer!
