                               Psi4 1.8.2 release

  ==> Input File <==

--------------------------------------------------------------------------
MEMORY 60 GB

molecule dimer {
-2 1
O          0.000000     0.000000     0.000000
H          0.588538     0.756918     0.000000
H          0.588538    -0.756918     0.000000
F          2.123442     2.123442     0.000000
F          2.123442    -2.123442     0.000000

units ang
no_reorient
no_com
symmetry c1
}

set {
basis        aug-cc-pVTZ
scf_type     df
}

energy("mp2")
--------------------------------------------------------------------------

    Molecular point group: c1

    Geometry (in Angstrom), charge = -2, multiplicity = 1:

       Center              X                  Y                   Z               Mass
    ------------   -----------------  -----------------  -----------------  -----------------
         O            0.000000000000     0.000000000000     0.000000000000    15.994914619570
         H            0.588538000000     0.756918000000     0.000000000000     1.007825032230
         H            0.588538000000    -0.756918000000     0.000000000000     1.007825032230
         F            2.123442000000     2.123442000000     0.000000000000    18.998403162730
         F            2.123442000000    -2.123442000000     0.000000000000    18.998403162730

  Charge       = -2
  Multiplicity = 1
  Basis Set: AUG-CC-PVTZ
    Blend: AUG-CC-PVTZ
  Basis Set: (AUG-CC-PVTZ AUX)
    Blend: AUG-CC-PVTZ-JKFIT

    Orbital Energies [Eh]
    ---------------------

    Doubly Occupied:

       1A    -25.741426     2A    -25.741426     3A    -20.192675
       4A     -0.990010     5A     -0.986333     6A     -0.978342
       7A     -0.347451     8A     -0.227149     9A     -0.144928
      10A     -0.091477    11A     -0.091207    12A     -0.090215
      13A     -0.090114    14A     -0.090066    15A     -0.088872

  @DF-RHF Final Energy:  -274.89459763231218

   => Energetics <=

    Nuclear Repulsion Energy =             52.2016213943225509
    One-Electron Energy =                -502.4090554956789560
    Two-Electron Energy =                 175.3128364690442140
    Total Energy =                       -274.8945976323121840
 Dipole X            :        -81.1924989           74.4533801           -6.7391188
 Dipole Y            :         -0.0000000            0.0000000           -0.0000000
 Dipole Z            :          0.0000000            0.0000000            0.0000000
 Magnitude           :                                                    6.7391188
  Basis Set: (AUG-CC-PVTZ AUX)
    Blend: AUG-CC-PVTZ-RI
	 Reference Energy          =    -274.8945976323121840 [Eh]
	 Singles Energy            =      -0.0000000000000000 [Eh]
	 Same-Spin Energy          =      -0.2334794202217959 [Eh]
	 Opposite-Spin Energy      =      -0.6700144384469392 [Eh]
	 Correlation Energy        =      -0.9034938586687351 [Eh]
	 Total Energy              =    -275.7980914909809371 [Eh]

	 ================> DF-SCS-MP2 Energies <==================
	-----------------------------------------------------------
	 SCS Same-Spin Scale       =       0.3333333333333333 [-]
	 SCS Opposite-Spin Scale   =       1.2000000000000000 [-]
	 SCS Same-Spin Energy      =      -0.0778264734072653 [Eh]
	 SCS Opposite-Spin Energy  =      -0.8040173261363270 [Eh]
	 SCS Correlation Energy    =      -0.8818437995435924 [Eh]
	 SCS Total Energy          =    -275.7764414318558011 [Eh]
	-----------------------------------------------------------

*** Psi4 exiting successfully. Buy a developer a beer!
