                               Psi4 1.8.2 release

  ==> Input File <==

--------------------------------------------------------------------------
MEMORY 60 GB

molecule dimer {
-1 1
Gh(O)      0.000000     0.000000     0.000000
Gh(H)      0.588538     0.756918     0.000000
Gh(H)      0.588538    -0.756918     0.000000
F          3.860803     3.860803     0.000000
Gh(F)      3.860803    -3.860803     0.000000

units ang
no_reorient
no_com
symmetry c1
}

set {
basis        aug-cc-pVTZ
scf_type     df
}

energy("mp2")
--------------------------------------------------------------------------

    Molecular point group: c1

    Geometry (in Angstrom), charge = -1, multiplicity = 1:

       Center              X                  Y                   Z               Mass
    ------------   -----------------  -----------------  -----------------  -----------------
      Gh(O)           0.000000000000     0.000000000000     0.000000000000    15.994914619570
      Gh(H)           0.588538000000     0.756918000000     0.000000000000     1.007825032230
      Gh(H)           0.588538000000    -0.756918000000     0.000000000000     1.007825032230
         F            3.860803000000     3.860803000000     0.000000000000    18.998403162730
      Gh(F)           3.860803000000    -3.860803000000     0.000000000000    18.998403162730

  Charge       = -1
  Multiplicity = 1
  Basis Set: AUG-CC-PVTZ
    Blend: AUG-CC-PVTZ
  Basis Set: (AUG-CC-PVTZ AUX)
    Blend: AUG-CC-PVTZ-JKFIT

    Orbital Energies [Eh]
    ---------------------

    Doubly Occupied:

       1A    -25.833728     2A     -1.076045     3A     -0.180976
       4A     -0.180973     5A     -0.180963

  @DF-RHF Final Energy:   -99.45081092383103

   => Energetics <=

    Nuclear Repulsion Energy =              0.0000000000000000
    One-Electron Energy =                -143.9962509247728235
    Two-Electron Energy =                  44.5454400009417810
    Total Energy =                        -99.4508109238310425
 Dipole X            :        -72.9582521           65.6627426           -7.2955095
 Dipole Y            :        -72.9584918           65.6627426           -7.2957492
 Dipole Z            :          0.0000000            0.0000000            0.0000000
 Magnitude           :                                                   10.3175780
  Basis Set: (AUG-CC-PVTZ AUX)
    Blend: AUG-CC-PVTZ-RI
	 Reference Energy          =     -99.4508109238310283 [Eh]
	 Singles Energy            =      -0.0000000000000000 [Eh]
	 Same-Spin Energy          =      -0.0815617272498030 [Eh]
	 Opposite-Spin Energy      =      -0.2261907495870583 [Eh]
	 Correlation Energy        =      -0.3077524768368614 [Eh]
	 Total Energy              =     -99.7585634006678958 [Eh]

	 ================> DF-SCS-MP2 Energies <==================
	-----------------------------------------------------------
	 SCS Same-Spin Scale       =       0.3333333333333333 [-]
	 SCS Opposite-Spin Scale   =       1.2000000000000000 [-]
	 SCS Same-Spin Energy      =      -0.0271872424166010 [Eh]
	 SCS Opposite-Spin Energy  =      -0.2714288995044699 [Eh]
	 SCS Correlation Energy    =      -0.2986161419210709 [Eh]
	 SCS Total Energy          =     -99.7494270657521014 [Eh]
	-----------------------------------------------------------

*** Psi4 exiting successfully. Buy a developer a beer!
