                               Psi4 1.8.2 release

  ==> Input File <==

--------------------------------------------------------------------------
MEMORY 60 GB

molecule dimer {
-1 1
Gh(O)      0.000000     0.000000     0.000000
Gh(H)      0.588538     0.756918     0.000000
Gh(H)      0.588538    -0.756918     0.000000
F          2.509522     2.509522     0.000000
Gh(F)      2.509522    -2.509522     0.000000

units ang
no_reorient
no_com
symmetry c1
}

set {
basis        aug-cc-pVTZ
scf_type     df
}

energy("mp2")
--------------------------------------------------------------------------

    Molecular point group: c1

    Geometry (in Angstrom), charge = -1, multiplicity = 1:

       Center              X                  Y                   Z               Mass
    ------------   -----------------  -----------------  -----------------  -----------------
      Gh(O)           0.000000000000     0.000000000000     0.000000000000    15.994914619570
      Gh(H)           0.588538000000     0.756918000000     0.000000000000     1.007825032230
      Gh(H)           0.588538000000    -0.756918000000     0.000000000000     1.007825032230
         F            2.509522000000     2.509522000000     0.000000000000    18.998403162730
      Gh(F)           2.509522000000    -2.509522000000     0.000000000000    18.998403162730

  Charge       = -1
  Multiplicity = 1
  Basis Set: AUG-CC-PVTZ
    Blend: AUG-CC-PVTZ
  Basis Set: (AUG-CC-PVTZ AUX)
    Blend: AUG-CC-PVTZ-JKFIT

    Orbital Energies [Eh]
    ---------------------

    Doubly Occupied:

       1A    -25.833729     2A     -1.076024     3A     -0.180988
       4A     -0.180951     5A     -0.180944

  @DF-RHF Final Energy:   -99.45083665685415

   => Energetics <=

    Nuclear Repulsion Energy =              0.0000000000000000
    One-Electron Energy =                -143.9964025345450693
    Two-Electron Energy =                  44.5455658776909189
    Total Energy =                        -99.4508366568541504
 Dipole X            :        -47.4222303           42.6807836           -4.7414467
 Dipole Y            :        -47.4222125           42.6807836           -4.7414289
 Dipole Z            :         -0.0000000            0.0000000           -0.0000000
 Magnitude           :                                                    6.7054057
  Basis Set: (AUG-CC-PVTZ AUX)
    Blend: AUG-CC-PVTZ-RI
	 Reference Energy          =     -99.4508366568541504 [Eh]
	 Singles Energy            =      -0.0000000000000000 [Eh]
	 Same-Spin Energy          =      -0.0816069333560218 [Eh]
	 Opposite-Spin Energy      =      -0.2265068741456050 [Eh]
	 Correlation Energy        =      -0.3081138075016269 [Eh]
	 Total Energy              =     -99.7589504643557774 [Eh]

	 ================> DF-SCS-MP2 Energies <==================
	-----------------------------------------------------------
	 SCS Same-Spin Scale       =       0.3333333333333333 [-]
	 SCS Opposite-Spin Scale   =       1.2000000000000000 [-]
	 SCS Same-Spin Energy      =      -0.0272023111186739 [Eh]
	 SCS Opposite-Spin Energy  =      -0.2718082489747260 [Eh]
	 SCS Correlation Energy    =      -0.2990105600933999 [Eh]
	 SCS Total Energy          =     -99.7498472169475434 [Eh]
	-----------------------------------------------------------

*** Psi4 exiting successfully. Buy a developer a beer!
