                               Psi4 1.8.2 release

  ==> Input File <==

--------------------------------------------------------------------------
MEMORY 60 GB

molecule dimer {
0 1
O      0.000000     0.000000     0.000000
H      0.588538     0.756918     0.000000
H      0.588538    -0.756918     0.000000
--
-1 1
F      2.509522     2.509522     0.000000
--
-1 1
F      2.509522    -2.509522     0.000000

units ang
no_reorient
no_com
symmetry c1
}

set {
basis        aug-cc-pVTZ
scf_type     df
}

energy("mp2", bsse_type="cp")
--------------------------------------------------------------------------

                               Psi4 1.8.2 release
    Molecular point group: c1
  Charge       = 0
  Multiplicity = 1
  Basis Set: AUG-CC-PVTZ
    Blend: AUG-CC-PVTZ
  Basis Set: (AUG-CC-PVTZ AUX)
    Blend: AUG-CC-PVTZ-JKFIT
  @DF-RHF Final Energy:   -76.06050273029926
    Total Energy =                        -76.0605027302992625
 Dipole X            :         -1.4421376            2.2243513            0.7822137
 Dipole Y            :          0.0000000            0.0000000            0.0000000
 Dipole Z            :         -0.0000000            0.0000000           -0.0000000
 Magnitude           :                                                    0.7822137
  Basis Set: (AUG-CC-PVTZ AUX)
    Blend: AUG-CC-PVTZ-RI
	 Reference Energy          =     -76.0605027302992625 [Eh]
	 Singles Energy            =      -0.0000000000000000 [Eh]
	 Same-Spin Energy          =      -0.0683961779604983 [Eh]
	 Opposite-Spin Energy      =      -0.2157009767554959 [Eh]
	 Correlation Energy        =      -0.2840971547159942 [Eh]
	 Total Energy              =     -76.3445998850152563 [Eh]
	 SCS Total Energy          =     -76.3421426283926934 [Eh]
                               Psi4 1.8.2 release
    Molecular point group: c1
  Basis Set: AUG-CC-PVTZ
    Blend: AUG-CC-PVTZ
  Basis Set: (AUG-CC-PVTZ AUX)
    Blend: AUG-CC-PVTZ-JKFIT
  @DF-RHF Final Energy:   -99.45083665685402
    Total Energy =                        -99.4508366568540225
  Basis Set: (AUG-CC-PVTZ AUX)
                               Psi4 1.8.2 release
  @DF-RHF Final Energy:  -198.79734132239099
    Total Energy =                       -198.7973413223909915
                               Psi4 1.8.2 release
  @DF-RHF Final Energy:  -175.53161786595885
    Total Energy =                       -175.5316178659588502
                               Psi4 1.8.2 release
  @DF-RHF Final Energy:  -175.53161786595331
    Total Energy =                       -175.5316178659533080
                               Psi4 1.8.2 release
  Multiplicity = 1
  @DF-RHF Final Energy:   -99.45083665685794
    Total Energy =                        -99.4508366568579447
	 Singles Energy            =      -0.0000000000000000 [Eh]
	 Same-Spin Energy          =      -0.0816069333560232 [Eh]
	 Opposite-Spin Energy      =      -0.2265068741456071 [Eh]
	 Correlation Energy        =      -0.3081138075016303 [Eh]
	 Total Energy              =     -99.7589504643595717 [Eh]
	 SCS Total Energy          =     -99.7498472169513519 [Eh]
                               Psi4 1.8.2 release
    Molecular point group: c1

    Geometry (in Bohr), charge = -2, multiplicity = 1:

       Center              X                  Y                   Z               Mass
    ------------   -----------------  -----------------  -----------------  -----------------
         O            0.000000000000     0.000000000000     0.000000000000    15.994914619570
         H            1.112175634425     1.430367719429     0.000000000000     1.007825032230
         H            1.112175634425    -1.430367719429     0.000000000000     1.007825032230
         F            4.742309285811     4.742309285811     0.000000000000    18.998403162730
         F            4.742309285811    -4.742309285811     0.000000000000    18.998403162730

  Charge       = -2
  Multiplicity = 1
  Basis Set: AUG-CC-PVTZ
    Blend: AUG-CC-PVTZ
  Basis Set: (AUG-CC-PVTZ AUX)
    Blend: AUG-CC-PVTZ-JKFIT

    Orbital Energies [Eh]
    ---------------------

    Doubly Occupied:

       1A    -25.750103     2A    -25.750103     3A    -20.254443
       4A     -1.041401     5A     -0.992901     6A     -0.992879
       7A     -0.404672     8A     -0.281336     9A     -0.202852
      10A     -0.098628    11A     -0.097952    12A     -0.097925
      13A     -0.097743    14A     -0.097612    15A     -0.097182

  @DF-RHF Final Energy:  -274.89627975303694

   => Energetics <=

    Nuclear Repulsion Energy =             45.3682702479689510
    One-Electron Energy =                -488.0136325477157015
    Two-Electron Energy =                 167.7490825467098148
    Total Energy =                       -274.8962797530369357
 Dipole X            :        -95.9423917           87.5859184           -8.3564733
 Dipole Y            :          0.0000000            0.0000000            0.0000000
 Dipole Z            :          0.0000000            0.0000000            0.0000000
 Magnitude           :                                                    8.3564733
  Basis Set: (AUG-CC-PVTZ AUX)
    Blend: AUG-CC-PVTZ-RI
	 Reference Energy          =    -274.8962797530369357 [Eh]
	 Singles Energy            =      -0.0000000000000000 [Eh]
	 Same-Spin Energy          =      -0.2322451402596718 [Eh]
	 Opposite-Spin Energy      =      -0.6683230853421076 [Eh]
	 Correlation Energy        =      -0.9005682256017794 [Eh]
	 Total Energy              =    -275.7968479786387093 [Eh]

	 ================> DF-SCS-MP2 Energies <==================
	-----------------------------------------------------------
	 SCS Same-Spin Scale       =       0.3333333333333333 [-]
	 SCS Opposite-Spin Scale   =       1.2000000000000000 [-]
	 SCS Same-Spin Energy      =      -0.0774150467532239 [Eh]
	 SCS Opposite-Spin Energy  =      -0.8019877024105291 [Eh]
	 SCS Correlation Energy    =      -0.8794027491637531 [Eh]
	 SCS Total Energy          =    -275.7756825022007092 [Eh]
	-----------------------------------------------------------

*** Psi4 exiting successfully. Buy a developer a beer!
