                               Psi4 1.8.2 release

  ==> Input File <==

--------------------------------------------------------------------------
MEMORY 60 GB

molecule dimer {
0 1
O      0.000000     0.000000     0.000000
H      0.588538     0.756918     0.000000
H      0.588538    -0.756918     0.000000
--
-1 1
F      2.316482     2.316482     0.000000
--
-1 1
F      2.316482    -2.316482     0.000000

units ang
no_reorient
no_com
symmetry c1
}

set {
basis        aug-cc-pVTZ
scf_type     df
}

energy("mp2", bsse_type="cp")
--------------------------------------------------------------------------

                               Psi4 1.8.2 release
    Molecular point group: c1
  Charge       = 0
  Multiplicity = 1
  Basis Set: AUG-CC-PVTZ
    Blend: AUG-CC-PVTZ
  Basis Set: (AUG-CC-PVTZ AUX)
    Blend: AUG-CC-PVTZ-JKFIT
  @DF-RHF Final Energy:   -76.06051253554124
    Total Energy =                        -76.0605125355412497
 Dipole X            :         -1.4422173            2.2243513            0.7821340
 Dipole Y            :         -0.0000000            0.0000000           -0.0000000
 Dipole Z            :         -0.0000000            0.0000000           -0.0000000
 Magnitude           :                                                    0.7821340
  Basis Set: (AUG-CC-PVTZ AUX)
    Blend: AUG-CC-PVTZ-RI
	 Reference Energy          =     -76.0605125355412355 [Eh]
	 Singles Energy            =      -0.0000000000000000 [Eh]
	 Same-Spin Energy          =      -0.0684080053825085 [Eh]
	 Opposite-Spin Energy      =      -0.2159217014286973 [Eh]
	 Correlation Energy        =      -0.2843297068112058 [Eh]
	 Total Energy              =     -76.3448422423524420 [Eh]
	 SCS Total Energy          =     -76.3424212457165083 [Eh]
                               Psi4 1.8.2 release
    Molecular point group: c1
  Basis Set: AUG-CC-PVTZ
    Blend: AUG-CC-PVTZ
  Basis Set: (AUG-CC-PVTZ AUX)
    Blend: AUG-CC-PVTZ-JKFIT
  @DF-RHF Final Energy:   -99.45084974529145
    Total Energy =                        -99.4508497452914497
  Basis Set: (AUG-CC-PVTZ AUX)
                               Psi4 1.8.2 release
  @DF-RHF Final Energy:  -198.78904547261905
    Total Energy =                       -198.7890454726190512
                               Psi4 1.8.2 release
  @DF-RHF Final Energy:  -175.53596272363876
    Total Energy =                       -175.5359627236387610
                               Psi4 1.8.2 release
  @DF-RHF Final Energy:  -175.53596272363913
    Total Energy =                       -175.5359627236391304
                               Psi4 1.8.2 release
  Multiplicity = 1
  @DF-RHF Final Energy:   -99.45084974529300
    Total Energy =                        -99.4508497452929987
	 Singles Energy            =      -0.0000000000000000 [Eh]
	 Same-Spin Energy          =      -0.0816325738541710 [Eh]
	 Opposite-Spin Energy      =      -0.2267216094402891 [Eh]
	 Correlation Energy        =      -0.3083541832944601 [Eh]
	 Total Energy              =     -99.7592039285874534 [Eh]
	 SCS Total Energy          =     -99.7501265345727290 [Eh]
                               Psi4 1.8.2 release
    Molecular point group: c1

    Geometry (in Bohr), charge = -2, multiplicity = 1:

       Center              X                  Y                   Z               Mass
    ------------   -----------------  -----------------  -----------------  -----------------
         O            0.000000000000     0.000000000000     0.000000000000    15.994914619570
         H            1.112175634425     1.430367719429     0.000000000000     1.007825032230
         H            1.112175634425    -1.430367719429     0.000000000000     1.007825032230
         F            4.377516554553     4.377516554553     0.000000000000    18.998403162730
         F            4.377516554553    -4.377516554553     0.000000000000    18.998403162730

  Charge       = -2
  Multiplicity = 1
  Basis Set: AUG-CC-PVTZ
    Blend: AUG-CC-PVTZ
  Basis Set: (AUG-CC-PVTZ AUX)
    Blend: AUG-CC-PVTZ-JKFIT

    Orbital Energies [Eh]
    ---------------------

    Doubly Occupied:

       1A    -25.745929     2A    -25.745928     3A    -20.226577
       4A     -1.014513     5A     -0.989371     6A     -0.989121
       7A     -0.378026     8A     -0.256005     9A     -0.176357
      10A     -0.095278    11A     -0.094411    12A     -0.094291
      13A     -0.093962    14A     -0.093799    15A     -0.093074

  @DF-RHF Final Energy:  -274.89563186255708

   => Energetics <=

    Nuclear Repulsion Energy =             48.4862512299135204
    One-Electron Energy =                -494.5904840098324371
    Two-Electron Energy =                 171.2086009173617924
    Total Energy =                       -274.8956318625571384
 Dipole X            :        -88.5781502           81.0196493           -7.5585009
 Dipole Y            :         -0.0000000            0.0000000           -0.0000000
 Dipole Z            :         -0.0000000            0.0000000           -0.0000000
 Magnitude           :                                                    7.5585009
  Basis Set: (AUG-CC-PVTZ AUX)
    Blend: AUG-CC-PVTZ-RI
	 Reference Energy          =    -274.8956318625570816 [Eh]
	 Singles Energy            =      -0.0000000000000000 [Eh]
	 Same-Spin Energy          =      -0.2327233962717127 [Eh]
	 Opposite-Spin Energy      =      -0.6690560220938706 [Eh]
	 Correlation Energy        =      -0.9017794183655833 [Eh]
	 Total Energy              =    -275.7974112809226881 [Eh]

	 ================> DF-SCS-MP2 Energies <==================
	-----------------------------------------------------------
	 SCS Same-Spin Scale       =       0.3333333333333333 [-]
	 SCS Opposite-Spin Scale   =       1.2000000000000000 [-]
	 SCS Same-Spin Energy      =      -0.0775744654239042 [Eh]
	 SCS Opposite-Spin Energy  =      -0.8028672265126447 [Eh]
	 SCS Correlation Energy    =      -0.8804416919365490 [Eh]
	 SCS Total Energy          =    -275.7760735544936210 [Eh]
	-----------------------------------------------------------

*** Psi4 exiting successfully. Buy a developer a beer!
