                               Psi4 1.8.2 release

  ==> Input File <==

--------------------------------------------------------------------------
MEMORY 60 GB

molecule dimer {
0 1
O      0.000000     0.000000     0.000000
H      0.588538     0.756918     0.000000
H      0.588538    -0.756918     0.000000
--
-1 1
F      2.895602     2.895602     0.000000
--
-1 1
F      2.895602    -2.895602     0.000000

units ang
no_reorient
no_com
symmetry c1
}

set {
basis        aug-cc-pVTZ
scf_type     df
}

energy("mp2", bsse_type="cp")
--------------------------------------------------------------------------

                               Psi4 1.8.2 release
    Molecular point group: c1
  Charge       = 0
  Multiplicity = 1
  Basis Set: AUG-CC-PVTZ
    Blend: AUG-CC-PVTZ
  Basis Set: (AUG-CC-PVTZ AUX)
    Blend: AUG-CC-PVTZ-JKFIT
  @DF-RHF Final Energy:   -76.06049247343695
    Total Energy =                        -76.0604924734369376
 Dipole X            :         -1.4420624            2.2243513            0.7822889
 Dipole Y            :          0.0000000            0.0000000            0.0000000
 Dipole Z            :         -0.0000000            0.0000000           -0.0000000
 Magnitude           :                                                    0.7822889
  Basis Set: (AUG-CC-PVTZ AUX)
    Blend: AUG-CC-PVTZ-RI
	 Reference Energy          =     -76.0604924734369519 [Eh]
	 Singles Energy            =      -0.0000000000000000 [Eh]
	 Same-Spin Energy          =      -0.0683765823670313 [Eh]
	 Opposite-Spin Energy      =      -0.2153602539607656 [Eh]
	 Correlation Energy        =      -0.2837368363277968 [Eh]
	 Total Energy              =     -76.3442293097647422 [Eh]
	 SCS Total Energy          =     -76.3417169723122129 [Eh]
                               Psi4 1.8.2 release
    Molecular point group: c1
  Basis Set: AUG-CC-PVTZ
    Blend: AUG-CC-PVTZ
  Basis Set: (AUG-CC-PVTZ AUX)
    Blend: AUG-CC-PVTZ-JKFIT
  @DF-RHF Final Energy:   -99.45082114381155
    Total Energy =                        -99.4508211438115381
  Basis Set: (AUG-CC-PVTZ AUX)
                               Psi4 1.8.2 release
  @DF-RHF Final Energy:  -198.81085812506663
    Total Energy =                       -198.8108581250666589
                               Psi4 1.8.2 release
  @DF-RHF Final Energy:  -175.52543064636907
    Total Energy =                       -175.5254306463690739
                               Psi4 1.8.2 release
  @DF-RHF Final Energy:  -175.52543064636725
    Total Energy =                       -175.5254306463672265
                               Psi4 1.8.2 release
  Multiplicity = 1
  @DF-RHF Final Energy:   -99.45082114381091
    Total Energy =                        -99.4508211438109129
	 Singles Energy            =      -0.0000000000000000 [Eh]
	 Same-Spin Energy          =      -0.0815777718424874 [Eh]
	 Opposite-Spin Energy      =      -0.2263177475912291 [Eh]
	 Correlation Energy        =      -0.3078955194337166 [Eh]
	 Total Energy              =     -99.7587166632446269 [Eh]
	 SCS Total Energy          =     -99.7495950315345539 [Eh]
                               Psi4 1.8.2 release
    Molecular point group: c1

    Geometry (in Bohr), charge = -2, multiplicity = 1:

       Center              X                  Y                   Z               Mass
    ------------   -----------------  -----------------  -----------------  -----------------
         O            0.000000000000     0.000000000000     0.000000000000    15.994914619570
         H            1.112175634425     1.430367719429     0.000000000000     1.007825032230
         H            1.112175634425    -1.430367719429     0.000000000000     1.007825032230
         F            5.471894748328     5.471894748328     0.000000000000    18.998403162730
         F            5.471894748328    -5.471894748328     0.000000000000    18.998403162730

  Charge       = -2
  Multiplicity = 1
  Basis Set: AUG-CC-PVTZ
    Blend: AUG-CC-PVTZ
  Basis Set: (AUG-CC-PVTZ AUX)
    Blend: AUG-CC-PVTZ-JKFIT

    Orbital Energies [Eh]
    ---------------------

    Doubly Occupied:

       1A    -25.757658     2A    -25.757658     3A    -20.298030
       4A     -1.084413     5A     -1.000035     6A     -1.000034
       7A     -0.447666     8A     -0.322364     9A     -0.244884
      10A     -0.105268    11A     -0.104984    12A     -0.104981
      13A     -0.104972    14A     -0.104931    15A     -0.104778

  @DF-RHF Final Energy:  -274.89854890681084

   => Energetics <=

    Nuclear Repulsion Energy =             40.4227675729033251
    One-Electron Energy =                -477.5573163844932765
    Two-Electron Energy =                 162.2359999047791064
    Total Energy =                       -274.8985489068109018
 Dipole X            :       -110.6311500          100.7184567           -9.9126933
 Dipole Y            :          0.0000000            0.0000000            0.0000000
 Dipole Z            :         -0.0000000            0.0000000           -0.0000000
 Magnitude           :                                                    9.9126933
  Basis Set: (AUG-CC-PVTZ AUX)
    Blend: AUG-CC-PVTZ-RI
	 Reference Energy          =    -274.8985489068108450 [Eh]
	 Singles Energy            =      -0.0000000000000000 [Eh]
	 Same-Spin Energy          =      -0.2317474141158029 [Eh]
	 Opposite-Spin Energy      =      -0.6675276657560911 [Eh]
	 Correlation Energy        =      -0.8992750798718940 [Eh]
	 Total Energy              =    -275.7978239866827153 [Eh]

	 ================> DF-SCS-MP2 Energies <==================
	-----------------------------------------------------------
	 SCS Same-Spin Scale       =       0.3333333333333333 [-]
	 SCS Opposite-Spin Scale   =       1.2000000000000000 [-]
	 SCS Same-Spin Energy      =      -0.0772491380386010 [Eh]
	 SCS Opposite-Spin Energy  =      -0.8010331989073093 [Eh]
	 SCS Correlation Energy    =      -0.8782823369459103 [Eh]
	 SCS Total Energy          =    -275.7768312437567602 [Eh]
	-----------------------------------------------------------

*** Psi4 exiting successfully. Buy a developer a beer!
