                               Psi4 1.9 release

  ==> Input File <==

--------------------------------------------------------------------------
MEMORY 60 GB

molecule dimer {
0 1
O      0.000000     0.000000     0.000000
H      0.588538     0.756918     0.000000
H      0.588538    -0.756918     0.000000
--
-2 1
Cl     2.950757     2.950757     0.000000
Cl     2.950757    -2.950757     0.000000

units ang
no_reorient
no_com
symmetry c1
}

set {
basis        aug-cc-pVTZ
scf_type     df
}

energy("mp2", bsse_type="cp")
--------------------------------------------------------------------------

                               Psi4 1.9 release
    Molecular point group: c1
  Charge       = -2
  Multiplicity = 1
  Basis Set: AUG-CC-PVTZ
    Blend: AUG-CC-PVTZ
  Basis Set: (AUG-CC-PVTZ AUX)
    Blend: AUG-CC-PVTZ-JKFIT
  @DF-RHF Final Energy:  -919.05914035369904
    Total Energy =                       -919.0591403536990356
 Dipole X            :       -200.7478769          189.5881682          -11.1597088
 Dipole Y            :          0.0000000            0.0000000            0.0000000
 Dipole Z            :         -0.0000000            0.0000000           -0.0000000
 Magnitude           :                                                   11.1597088
  Basis Set: (AUG-CC-PVTZ AUX)
    Blend: AUG-CC-PVTZ-RI
	 Reference Energy          =    -919.0591403536990356 [Eh]
	 Singles Energy            =      -0.0000000000000000 [Eh]
	 Same-Spin Energy          =      -0.1248606476500334 [Eh]
	 Opposite-Spin Energy      =      -0.3581750303892282 [Eh]
	 Correlation Energy        =      -0.4830356780392616 [Eh]
	 Total Energy              =    -919.5421760317383360 [Eh]
	 SCS Total Energy          =    -919.5305706060494231 [Eh]
                               Psi4 1.9 release
    Molecular point group: c1
  Multiplicity = 1
  Basis Set: AUG-CC-PVTZ
    Blend: AUG-CC-PVTZ
  Basis Set: (AUG-CC-PVTZ AUX)
    Blend: AUG-CC-PVTZ-JKFIT
  @DF-RHF Final Energy:   -76.06049720410132
    Total Energy =                        -76.0604972041013241
  Basis Set: (AUG-CC-PVTZ AUX)
	 Singles Energy            =      -0.0000000000000000 [Eh]
	 Same-Spin Energy          =      -0.0683855782852616 [Eh]
	 Opposite-Spin Energy      =      -0.2155190699895002 [Eh]
	 Correlation Energy        =      -0.2839046482747618 [Eh]
	 Total Energy              =     -76.3444018523760803 [Eh]
	 SCS Total Energy          =     -76.3419152808504720 [Eh]
                               Psi4 1.9 release
    Molecular point group: c1

    Geometry (in Bohr), charge = -2, multiplicity = 1:

       Center              X                  Y                   Z               Mass
    ------------   -----------------  -----------------  -----------------  -----------------
         O            0.000000000000     0.000000000000     0.000000000000    15.994914619570
         H            1.112175634425     1.430367719429     0.000000000000     1.007825032230
         H            1.112175634425    -1.430367719429     0.000000000000     1.007825032230
         CL           5.576122592778     5.576122592778     0.000000000000    34.968852682000
         CL           5.576122592778    -5.576122592778     0.000000000000    34.968852682000

  Charge       = -2
  Multiplicity = 1
  Basis Set: AUG-CC-PVTZ
    Blend: AUG-CC-PVTZ
  Basis Set: (AUG-CC-PVTZ AUX)
    Blend: AUG-CC-PVTZ-JKFIT

    Orbital Energies [Eh]
    ---------------------

    Doubly Occupied:

       1A   -104.431212     2A   -104.431212     3A    -20.304219
       4A    -10.154920     5A    -10.154920     6A     -7.620972
       7A     -7.620972     8A     -7.620959     9A     -7.620959
      10A     -7.620936    11A     -7.620936    12A     -1.090836
      13A     -0.658903    14A     -0.658874    15A     -0.454293
      16A     -0.328683    17A     -0.250996    18A     -0.077181
      19A     -0.076424    20A     -0.075621    21A     -0.075560
      22A     -0.075378    23A     -0.074165

  @DF-RHF Final Energy:  -995.14396940000415

   => Energetics <=

    Nuclear Repulsion Energy =             79.2600773904871119
    One-Electron Energy =               -1550.6098329068317980
    Two-Electron Energy =                 476.2057861163404482
    Total Energy =                       -995.1439694000041527
 Dipole X            :       -201.8836979          191.8125194          -10.0711785
 Dipole Y            :          0.0000000            0.0000000            0.0000000
 Dipole Z            :         -0.0000000            0.0000000           -0.0000000
 Magnitude           :                                                   10.0711785
  Basis Set: (AUG-CC-PVTZ AUX)
    Blend: AUG-CC-PVTZ-RI
	 Reference Energy          =    -995.1439694000041527 [Eh]
	 Singles Energy            =      -0.0000000000000000 [Eh]
	 Same-Spin Energy          =      -0.1939949080657809 [Eh]
	 Opposite-Spin Energy      =      -0.5737324771927836 [Eh]
	 Correlation Energy        =      -0.7677273852585645 [Eh]
	 Total Energy              =    -995.9116967852627340 [Eh]

	 ================> DF-SCS-MP2 Energies <==================
	-----------------------------------------------------------
	 SCS Same-Spin Scale       =       0.3333333333333333 [-]
	 SCS Opposite-Spin Scale   =       1.2000000000000000 [-]
	 SCS Same-Spin Energy      =      -0.0646649693552603 [Eh]
	 SCS Opposite-Spin Energy  =      -0.6884789726313404 [Eh]
	 SCS Correlation Energy    =      -0.7531439419866007 [Eh]
	 SCS Total Energy          =    -995.8971133419908028 [Eh]
	-----------------------------------------------------------

*** Psi4 exiting successfully. Buy a developer a beer!
