                               Psi4 1.8.2 release

  ==> Input File <==

--------------------------------------------------------------------------
MEMORY 60 GB

molecule dimer {
0 1
O      0.000000     0.000000     0.000000
H      0.588538     0.756918     0.000000
H      0.588538    -0.756918     0.000000
--
-1 1
Cl     4.539626     4.539626     0.000000
--
-1 1
Cl     4.539626    -4.539626     0.000000

units ang
no_reorient
no_com
symmetry c1
}

set {
basis        aug-cc-pVTZ
scf_type     df
}

energy("mp2", bsse_type="cp")
--------------------------------------------------------------------------

                               Psi4 1.8.2 release
    Molecular point group: c1
  Charge       = 0
  Multiplicity = 1
  Basis Set: AUG-CC-PVTZ
    Blend: AUG-CC-PVTZ
  Basis Set: (AUG-CC-PVTZ AUX)
    Blend: AUG-CC-PVTZ-JKFIT
  @DF-RHF Final Energy:   -76.06048256366493
    Total Energy =                        -76.0604825636649338
 Dipole X            :         -1.4421333            2.2243513            0.7822179
 Dipole Y            :          0.0000000            0.0000000            0.0000000
 Dipole Z            :          0.0000000            0.0000000            0.0000000
 Magnitude           :                                                    0.7822179
  Basis Set: (AUG-CC-PVTZ AUX)
    Blend: AUG-CC-PVTZ-RI
	 Reference Energy          =     -76.0604825636649338 [Eh]
	 Singles Energy            =      -0.0000000000000000 [Eh]
	 Same-Spin Energy          =      -0.0683680094105036 [Eh]
	 Opposite-Spin Energy      =      -0.2152509038096361 [Eh]
	 Correlation Energy        =      -0.2836189132201397 [Eh]
	 Total Energy              =     -76.3441014768850721 [Eh]
	 SCS Total Energy          =     -76.3415729847066586 [Eh]
                               Psi4 1.8.2 release
    Molecular point group: c1
  Basis Set: AUG-CC-PVTZ
    Blend: AUG-CC-PVTZ
  Basis Set: (AUG-CC-PVTZ AUX)
    Blend: AUG-CC-PVTZ-JKFIT
  @DF-RHF Final Energy:  -459.57348292293477
    Total Energy =                       -459.5734829229347724
  Basis Set: (AUG-CC-PVTZ AUX)
                               Psi4 1.8.2 release
  @DF-RHF Final Energy:  -919.08898585210147
    Total Energy =                       -919.0889858521013593
                               Psi4 1.8.2 release
  @DF-RHF Final Energy:  -535.63868598257477
    Total Energy =                       -535.6386859825747706
                               Psi4 1.8.2 release
  @DF-RHF Final Energy:  -535.63868598256147
    Total Energy =                       -535.6386859825613556
                               Psi4 1.8.2 release
  Multiplicity = 1
  @DF-RHF Final Energy:  -459.57348292294614
    Total Energy =                       -459.5734829229461980
	 Singles Energy            =      -0.0000000000000000 [Eh]
	 Same-Spin Energy          =      -0.0622678895235020 [Eh]
	 Opposite-Spin Energy      =      -0.1786399747729657 [Eh]
	 Correlation Energy        =      -0.2409078642964677 [Eh]
	 Total Energy              =    -459.8143907872425871 [Eh]
	 SCS Total Energy          =    -459.8086068558482111 [Eh]
                               Psi4 1.8.2 release
    Molecular point group: c1

    Geometry (in Bohr), charge = -2, multiplicity = 1:

       Center              X                  Y                   Z               Mass
    ------------   -----------------  -----------------  -----------------  -----------------
         O            0.000000000000     0.000000000000     0.000000000000    15.994914619570
         H            1.112175634425     1.430367719429     0.000000000000     1.007825032230
         H            1.112175634425    -1.430367719429     0.000000000000     1.007825032230
         CL           8.578649852008     8.578649852008     0.000000000000    34.968852682000
         CL           8.578649852008    -8.578649852008     0.000000000000    34.968852682000

  Charge       = -2
  Multiplicity = 1
  Basis Set: AUG-CC-PVTZ
    Blend: AUG-CC-PVTZ
  Basis Set: (AUG-CC-PVTZ AUX)
    Blend: AUG-CC-PVTZ-JKFIT

    Orbital Energies [Eh]
    ---------------------

    Doubly Occupied:

       1A   -104.452890     2A   -104.452890     3A    -20.398421
       4A    -10.176656     5A    -10.176656     6A     -7.642689
       7A     -7.642689     8A     -7.642687     9A     -7.642687
      10A     -7.642679    11A     -7.642679    12A     -1.184261
      13A     -0.680397    14A     -0.680397    15A     -0.547822
      16A     -0.418897    17A     -0.342789    18A     -0.097351
      19A     -0.097343    20A     -0.097253    21A     -0.097248
      22A     -0.097075    23A     -0.097036

  @DF-RHF Final Energy:  -995.15870518694067

   => Energetics <=

    Nuclear Repulsion Energy =             54.4563774868443744
    One-Electron Energy =               -1499.3271753460392119
    Two-Electron Energy =                 449.7120926722541867
    Total Energy =                       -995.1587051869407787
 Dipole X            :       -310.1694009          293.8984462          -16.2709546
 Dipole Y            :          0.0000000            0.0000000            0.0000000
 Dipole Z            :         -0.0000000            0.0000000           -0.0000000
 Magnitude           :                                                   16.2709546
  Basis Set: (AUG-CC-PVTZ AUX)
    Blend: AUG-CC-PVTZ-RI
	 Reference Energy          =    -995.1587051869406650 [Eh]
	 Singles Energy            =      -0.0000000000000000 [Eh]
	 Same-Spin Energy          =      -0.1928871882219219 [Eh]
	 Opposite-Spin Energy      =      -0.5722538298366204 [Eh]
	 Correlation Energy        =      -0.7651410180585423 [Eh]
	 Total Energy              =    -995.9238462049992222 [Eh]

	 ================> DF-SCS-MP2 Energies <==================
	-----------------------------------------------------------
	 SCS Same-Spin Scale       =       0.3333333333333333 [-]
	 SCS Opposite-Spin Scale   =       1.2000000000000000 [-]
	 SCS Same-Spin Energy      =      -0.0642957294073073 [Eh]
	 SCS Opposite-Spin Energy  =      -0.6867045958039445 [Eh]
	 SCS Correlation Energy    =      -0.7510003252112518 [Eh]
	 SCS Total Energy          =    -995.9097055121519588 [Eh]
	-----------------------------------------------------------

*** Psi4 exiting successfully. Buy a developer a beer!
