                               Psi4 1.8.2 release

  ==> Input File <==

--------------------------------------------------------------------------
MEMORY 60 GB

molecule dimer {
-2 1
O          0.000000     0.000000     0.000000
H          0.588538     0.756918     0.000000
H          0.588538    -0.756918     0.000000
Cl         2.496794     2.496794     0.000000
Cl         2.496794    -2.496794     0.000000

units ang
no_reorient
no_com
symmetry c1
}

set {
basis        aug-cc-pVTZ
scf_type     df
}

energy("mp2")
--------------------------------------------------------------------------

    Molecular point group: c1

    Geometry (in Angstrom), charge = -2, multiplicity = 1:

       Center              X                  Y                   Z               Mass
    ------------   -----------------  -----------------  -----------------  -----------------
         O            0.000000000000     0.000000000000     0.000000000000    15.994914619570
         H            0.588538000000     0.756918000000     0.000000000000     1.007825032230
         H            0.588538000000    -0.756918000000     0.000000000000     1.007825032230
         CL           2.496794000000     2.496794000000     0.000000000000    34.968852682000
         CL           2.496794000000    -2.496794000000     0.000000000000    34.968852682000

  Charge       = -2
  Multiplicity = 1
  Basis Set: AUG-CC-PVTZ
    Blend: AUG-CC-PVTZ
  Basis Set: (AUG-CC-PVTZ AUX)
    Blend: AUG-CC-PVTZ-JKFIT

    Orbital Energies [Eh]
    ---------------------

    Doubly Occupied:

       1A   -104.421191     2A   -104.421191     3A    -20.253401
       4A    -10.144992     5A    -10.144992     6A     -7.611055
       7A     -7.611054     8A     -7.611046     9A     -7.611046
      10A     -7.611014    11A     -7.611014    12A     -1.042079
      13A     -0.650372    14A     -0.650301    15A     -0.406565
      16A     -0.282913    17A     -0.202797    18A     -0.070124
      19A     -0.067690    20A     -0.067175    21A     -0.066469
      22A     -0.065739    23A     -0.062995

  @DF-RHF Final Energy:  -995.13689560430794

   => Energetics <=

    Nuclear Repulsion Energy =             92.3066355915261454
    One-Electron Energy =               -1577.5126331036724423
    Two-Electron Energy =                 490.0691019078382737
    Total Energy =                       -995.1368956043079379
 Dipole X            :       -170.8822066          162.6450842           -8.2371224
 Dipole Y            :          0.0000000            0.0000000            0.0000000
 Dipole Z            :         -0.0000000            0.0000000           -0.0000000
 Magnitude           :                                                    8.2371224
  Basis Set: (AUG-CC-PVTZ AUX)
    Blend: AUG-CC-PVTZ-RI
	 Reference Energy          =    -995.1368956043079379 [Eh]
	 Singles Energy            =      -0.0000000000000000 [Eh]
	 Same-Spin Energy          =      -0.1960515485827166 [Eh]
	 Opposite-Spin Energy      =      -0.5768001413485868 [Eh]
	 Correlation Energy        =      -0.7728516899313034 [Eh]
	 Total Energy              =    -995.9097472942391960 [Eh]

	 ================> DF-SCS-MP2 Energies <==================
	-----------------------------------------------------------
	 SCS Same-Spin Scale       =       0.3333333333333333 [-]
	 SCS Opposite-Spin Scale   =       1.2000000000000000 [-]
	 SCS Same-Spin Energy      =      -0.0653505161942388 [Eh]
	 SCS Opposite-Spin Energy  =      -0.6921601696183042 [Eh]
	 SCS Correlation Energy    =      -0.7575106858125430 [Eh]
	 SCS Total Energy          =    -995.8944062901205143 [Eh]
	-----------------------------------------------------------

*** Psi4 exiting successfully. Buy a developer a beer!
