                               Psi4 1.9 release

  ==> Input File <==

--------------------------------------------------------------------------
MEMORY 60 GB

molecule dimer {
0 1
O      0.000000     0.000000     0.000000
H      0.588538     0.756918     0.000000
H      0.588538    -0.756918     0.000000
--
-2 1
Cl     3.177738     3.177738     0.000000
Cl     3.177738    -3.177738     0.000000

units ang
no_reorient
no_com
symmetry c1
}

set {
basis        aug-cc-pVTZ
scf_type     df
}

energy("mp2", bsse_type="cp")
--------------------------------------------------------------------------

                               Psi4 1.9 release
    Molecular point group: c1
  Charge       = -2
  Multiplicity = 1
  Basis Set: AUG-CC-PVTZ
    Blend: AUG-CC-PVTZ
  Basis Set: (AUG-CC-PVTZ AUX)
    Blend: AUG-CC-PVTZ-JKFIT
  @DF-RHF Final Energy:  -919.06505663443738
    Total Energy =                       -919.0650566344372692
 Dipole X            :       -216.1886890          204.1718536          -12.0168354
 Dipole Y            :          0.0000000            0.0000000            0.0000000
 Dipole Z            :         -0.0000000            0.0000000           -0.0000000
 Magnitude           :                                                   12.0168354
  Basis Set: (AUG-CC-PVTZ AUX)
    Blend: AUG-CC-PVTZ-RI
	 Reference Energy          =    -919.0650566344373829 [Eh]
	 Singles Energy            =      -0.0000000000000000 [Eh]
	 Same-Spin Energy          =      -0.1247432554900561 [Eh]
	 Opposite-Spin Energy      =      -0.3578397930852940 [Eh]
	 Correlation Energy        =      -0.4825830485753501 [Eh]
	 Total Energy              =    -919.5476396830127896 [Eh]
	 SCS Total Energy          =    -919.5360454713030549 [Eh]
                               Psi4 1.9 release
    Molecular point group: c1
  Multiplicity = 1
  Basis Set: AUG-CC-PVTZ
    Blend: AUG-CC-PVTZ
  Basis Set: (AUG-CC-PVTZ AUX)
    Blend: AUG-CC-PVTZ-JKFIT
  @DF-RHF Final Energy:   -76.06049421531449
    Total Energy =                        -76.0604942153144776
  Basis Set: (AUG-CC-PVTZ AUX)
	 Singles Energy            =      -0.0000000000000000 [Eh]
	 Same-Spin Energy          =      -0.0683773172375104 [Eh]
	 Opposite-Spin Energy      =      -0.2153733451791461 [Eh]
	 Correlation Energy        =      -0.2837506624166565 [Eh]
	 Total Energy              =     -76.3442448777311427 [Eh]
	 SCS Total Energy          =     -76.3417346686086375 [Eh]
                               Psi4 1.9 release
    Molecular point group: c1

    Geometry (in Bohr), charge = -2, multiplicity = 1:

       Center              X                  Y                   Z               Mass
    ------------   -----------------  -----------------  -----------------  -----------------
         O            0.000000000000     0.000000000000     0.000000000000    15.994914619570
         H            1.112175634425     1.430367719429     0.000000000000     1.007825032230
         H            1.112175634425    -1.430367719429     0.000000000000     1.007825032230
         CL           6.005054518460     6.005054518460     0.000000000000    34.968852682000
         CL           6.005054518460    -6.005054518460     0.000000000000    34.968852682000

  Charge       = -2
  Multiplicity = 1
  Basis Set: AUG-CC-PVTZ
    Blend: AUG-CC-PVTZ
  Basis Set: (AUG-CC-PVTZ AUX)
    Blend: AUG-CC-PVTZ-JKFIT

    Orbital Energies [Eh]
    ---------------------

    Doubly Occupied:

       1A   -104.435219     2A   -104.435219     3A    -20.323713
       4A    -10.158945     5A    -10.158945     6A     -7.624993
       7A     -7.624992     8A     -7.624979     9A     -7.624979
      10A     -7.624960    11A     -7.624960    12A     -1.110035
      13A     -0.662766    14A     -0.662752    15A     -0.473449
      16A     -0.347066    17A     -0.269850    18A     -0.080530
      19A     -0.080126    20A     -0.079558    21A     -0.079422
      22A     -0.079394    23A     -0.078568

  @DF-RHF Final Energy:  -995.14632741886339

   => Energetics <=

    Nuclear Repulsion Energy =             74.1675000018738615
    One-Electron Energy =               -1540.0968137051092981
    Two-Electron Energy =                 470.7829862843720434
    Total Energy =                       -995.1463274188633932
 Dipole X            :       -217.3713346          206.3962049          -10.9751297
 Dipole Y            :         -0.0000000            0.0000000           -0.0000000
 Dipole Z            :         -0.0000000            0.0000000           -0.0000000
 Magnitude           :                                                   10.9751297
  Basis Set: (AUG-CC-PVTZ AUX)
    Blend: AUG-CC-PVTZ-RI
	 Reference Energy          =    -995.1463274188633932 [Eh]
	 Singles Energy            =      -0.0000000000000000 [Eh]
	 Same-Spin Energy          =      -0.1935414567011723 [Eh]
	 Opposite-Spin Energy      =      -0.5730382117416316 [Eh]
	 Correlation Energy        =      -0.7665796684428039 [Eh]
	 Total Energy              =    -995.9129070873061664 [Eh]

	 ================> DF-SCS-MP2 Energies <==================
	-----------------------------------------------------------
	 SCS Same-Spin Scale       =       0.3333333333333333 [-]
	 SCS Opposite-Spin Scale   =       1.2000000000000000 [-]
	 SCS Same-Spin Energy      =      -0.0645138189003907 [Eh]
	 SCS Opposite-Spin Energy  =      -0.6876458540899579 [Eh]
	 SCS Correlation Energy    =      -0.7521596729903487 [Eh]
	 SCS Total Energy          =    -995.8984870918537808 [Eh]
	-----------------------------------------------------------

*** Psi4 exiting successfully. Buy a developer a beer!
