                               Psi4 1.8.2 release

  ==> Input File <==

--------------------------------------------------------------------------
MEMORY 60 GB

molecule dimer {
0 1
O          0.000000     0.000000     0.000000
H          0.588538     0.756918     0.000000
H          0.588538    -0.756918     0.000000
Gh(Cl)     2.496794     2.496794     0.000000
Gh(Cl)     2.496794    -2.496794     0.000000

units ang
no_reorient
no_com
symmetry c1
}

set {
basis        aug-cc-pVTZ
scf_type     df
}

energy("mp2")
--------------------------------------------------------------------------

    Molecular point group: c1

    Geometry (in Angstrom), charge = 0, multiplicity = 1:

       Center              X                  Y                   Z               Mass
    ------------   -----------------  -----------------  -----------------  -----------------
         O            0.000000000000     0.000000000000     0.000000000000    15.994914619570
         H            0.588538000000     0.756918000000     0.000000000000     1.007825032230
         H            0.588538000000    -0.756918000000     0.000000000000     1.007825032230
      Gh(CL)          2.496794000000     2.496794000000     0.000000000000    34.968852682000
      Gh(CL)          2.496794000000    -2.496794000000     0.000000000000    34.968852682000

  Charge       = 0
  Multiplicity = 1
  Basis Set: AUG-CC-PVTZ
    Blend: AUG-CC-PVTZ
  Basis Set: (AUG-CC-PVTZ AUX)
    Blend: AUG-CC-PVTZ-JKFIT

    Orbital Energies [Eh]
    ---------------------

    Doubly Occupied:

       1A    -20.567605     2A     -1.352956     3A     -0.716486
       4A     -0.585111     5A     -0.510293

  @DF-RHF Final Energy:   -76.06051792072904

   => Energetics <=

    Nuclear Repulsion Energy =              9.1801978479270687
    One-Electron Energy =                -123.0165263928082027
    Two-Electron Energy =                  37.7758106241520721
    Total Energy =                        -76.0605179207290547
 Dipole X            :         -1.4422131            2.2243513            0.7821382
 Dipole Y            :          0.0000000            0.0000000            0.0000000
 Dipole Z            :         -0.0000000            0.0000000           -0.0000000
 Magnitude           :                                                    0.7821382
  Basis Set: (AUG-CC-PVTZ AUX)
    Blend: AUG-CC-PVTZ-RI
	 Reference Energy          =     -76.0605179207290405 [Eh]
	 Singles Energy            =      -0.0000000000000000 [Eh]
	 Same-Spin Energy          =      -0.0684137589537137 [Eh]
	 Opposite-Spin Energy      =      -0.2159766471578883 [Eh]
	 Correlation Energy        =      -0.2843904061116019 [Eh]
	 Total Energy              =     -76.3449083268406383 [Eh]

	 ================> DF-SCS-MP2 Energies <==================
	-----------------------------------------------------------
	 SCS Same-Spin Scale       =       0.3333333333333333 [-]
	 SCS Opposite-Spin Scale   =       1.2000000000000000 [-]
	 SCS Same-Spin Energy      =      -0.0228045863179046 [Eh]
	 SCS Opposite-Spin Energy  =      -0.2591719765894659 [Eh]
	 SCS Correlation Energy    =      -0.2819765629073705 [Eh]
	 SCS Total Energy          =     -76.3424944836364148 [Eh]
	-----------------------------------------------------------

*** Psi4 exiting successfully. Buy a developer a beer!
