                               Psi4 1.8.2 release

  ==> Input File <==

--------------------------------------------------------------------------
MEMORY 60 GB

molecule dimer {
-2 1
O          0.000000     0.000000     0.000000
H          0.588538     0.756918     0.000000
H          0.588538    -0.756918     0.000000
Cl         2.950757     2.950757     0.000000
Cl         2.950757    -2.950757     0.000000

units ang
no_reorient
no_com
symmetry c1
}

set {
basis        aug-cc-pVTZ
scf_type     df
}

energy("mp2")
--------------------------------------------------------------------------

    Molecular point group: c1

    Geometry (in Angstrom), charge = -2, multiplicity = 1:

       Center              X                  Y                   Z               Mass
    ------------   -----------------  -----------------  -----------------  -----------------
         O            0.000000000000     0.000000000000     0.000000000000    15.994914619570
         H            0.588538000000     0.756918000000     0.000000000000     1.007825032230
         H            0.588538000000    -0.756918000000     0.000000000000     1.007825032230
         CL           2.950757000000     2.950757000000     0.000000000000    34.968852682000
         CL           2.950757000000    -2.950757000000     0.000000000000    34.968852682000

  Charge       = -2
  Multiplicity = 1
  Basis Set: AUG-CC-PVTZ
    Blend: AUG-CC-PVTZ
  Basis Set: (AUG-CC-PVTZ AUX)
    Blend: AUG-CC-PVTZ-JKFIT

    Orbital Energies [Eh]
    ---------------------

    Doubly Occupied:

       1A   -104.431212     2A   -104.431212     3A    -20.304219
       4A    -10.154920     5A    -10.154920     6A     -7.620972
       7A     -7.620972     8A     -7.620959     9A     -7.620959
      10A     -7.620936    11A     -7.620936    12A     -1.090836
      13A     -0.658903    14A     -0.658874    15A     -0.454293
      16A     -0.328683    17A     -0.250996    18A     -0.077181
      19A     -0.076424    20A     -0.075621    21A     -0.075560
      22A     -0.075378    23A     -0.074165

  @DF-RHF Final Energy:  -995.14396939994720

   => Energetics <=

    Nuclear Repulsion Energy =             79.2600773904871119
    One-Electron Energy =               -1550.6098329067888244
    Two-Electron Energy =                 476.2057861163544885
    Total Energy =                       -995.1439693999471956
 Dipole X            :       -201.8836979          191.8125194          -10.0711785
 Dipole Y            :         -0.0000000            0.0000000           -0.0000000
 Dipole Z            :          0.0000000            0.0000000            0.0000000
 Magnitude           :                                                   10.0711785
  Basis Set: (AUG-CC-PVTZ AUX)
    Blend: AUG-CC-PVTZ-RI
	 Reference Energy          =    -995.1439693999471956 [Eh]
	 Singles Energy            =      -0.0000000000000000 [Eh]
	 Same-Spin Energy          =      -0.1939949080658322 [Eh]
	 Opposite-Spin Energy      =      -0.5737324771929508 [Eh]
	 Correlation Energy        =      -0.7677273852587830 [Eh]
	 Total Energy              =    -995.9116967852060043 [Eh]

	 ================> DF-SCS-MP2 Energies <==================
	-----------------------------------------------------------
	 SCS Same-Spin Scale       =       0.3333333333333333 [-]
	 SCS Opposite-Spin Scale   =       1.2000000000000000 [-]
	 SCS Same-Spin Energy      =      -0.0646649693552774 [Eh]
	 SCS Opposite-Spin Energy  =      -0.6884789726315410 [Eh]
	 SCS Correlation Energy    =      -0.7531439419868184 [Eh]
	 SCS Total Energy          =    -995.8971133419339594 [Eh]
	-----------------------------------------------------------

*** Psi4 exiting successfully. Buy a developer a beer!
