                               Psi4 1.8.2 release

  ==> Input File <==

--------------------------------------------------------------------------
MEMORY 60 GB

molecule dimer {
-1 1
Gh(O)      0.000000     0.000000     0.000000
Gh(H)      0.588538     0.756918     0.000000
Gh(H)      0.588538    -0.756918     0.000000
Cl         3.404719     3.404719     0.000000
Gh(Cl)     3.404719    -3.404719     0.000000

units ang
no_reorient
no_com
symmetry c1
}

set {
basis        aug-cc-pVTZ
scf_type     df
}

energy("mp2")
--------------------------------------------------------------------------

    Molecular point group: c1

    Geometry (in Angstrom), charge = -1, multiplicity = 1:

       Center              X                  Y                   Z               Mass
    ------------   -----------------  -----------------  -----------------  -----------------
      Gh(O)           0.000000000000     0.000000000000     0.000000000000    15.994914619570
      Gh(H)           0.588538000000     0.756918000000     0.000000000000     1.007825032230
      Gh(H)           0.588538000000    -0.756918000000     0.000000000000     1.007825032230
         CL           3.404719000000     3.404719000000     0.000000000000    34.968852682000
      Gh(CL)          3.404719000000    -3.404719000000     0.000000000000    34.968852682000

  Charge       = -1
  Multiplicity = 1
  Basis Set: AUG-CC-PVTZ
    Blend: AUG-CC-PVTZ
  Basis Set: (AUG-CC-PVTZ AUX)
    Blend: AUG-CC-PVTZ-JKFIT

    Orbital Energies [Eh]
    ---------------------

    Doubly Occupied:

       1A   -104.506009     2A    -10.229752     3A     -7.695786
       4A     -7.695786     5A     -7.695781     6A     -0.733509
       7A     -0.150336     8A     -0.150334     9A     -0.150334

  @DF-RHF Final Energy:  -459.57348591323529

   => Energetics <=

    Nuclear Repulsion Energy =              0.0000000000000000
    One-Electron Energy =                -641.1317280424918863
    Two-Electron Energy =                 181.5582421292565414
    Total Energy =                       -459.5734859132353449
 Dipole X            :       -115.8115721          109.3777696           -6.4338025
 Dipole Y            :       -115.8115917          109.3777696           -6.4338222
 Dipole Z            :         -0.0000000            0.0000000           -0.0000000
 Magnitude           :                                                    9.0987847
  Basis Set: (AUG-CC-PVTZ AUX)
    Blend: AUG-CC-PVTZ-RI
	 Reference Energy          =    -459.5734859132352881 [Eh]
	 Singles Energy            =      -0.0000000000000000 [Eh]
	 Same-Spin Energy          =      -0.0623055627250745 [Eh]
	 Opposite-Spin Energy      =      -0.1787654298049436 [Eh]
	 Correlation Energy        =      -0.2410709925300181 [Eh]
	 Total Energy              =    -459.8145569057653006 [Eh]

	 ================> DF-SCS-MP2 Energies <==================
	-----------------------------------------------------------
	 SCS Same-Spin Scale       =       0.3333333333333333 [-]
	 SCS Opposite-Spin Scale   =       1.2000000000000000 [-]
	 SCS Same-Spin Energy      =      -0.0207685209083582 [Eh]
	 SCS Opposite-Spin Energy  =      -0.2145185157659323 [Eh]
	 SCS Correlation Energy    =      -0.2352870366742904 [Eh]
	 SCS Total Energy          =    -459.8087729499095531 [Eh]
	-----------------------------------------------------------

*** Psi4 exiting successfully. Buy a developer a beer!
