                               Psi4 1.8.2 release

  ==> Input File <==

--------------------------------------------------------------------------
MEMORY 60 GB

molecule dimer {
-2 1
O          0.000000     0.000000     0.000000
H          0.588538     0.756918     0.000000
H          0.588538    -0.756918     0.000000
Cl         3.177738     3.177738     0.000000
Cl         3.177738    -3.177738     0.000000

units ang
no_reorient
no_com
symmetry c1
}

set {
basis        aug-cc-pVTZ
scf_type     df
}

energy("mp2")
--------------------------------------------------------------------------

    Molecular point group: c1

    Geometry (in Angstrom), charge = -2, multiplicity = 1:

       Center              X                  Y                   Z               Mass
    ------------   -----------------  -----------------  -----------------  -----------------
         O            0.000000000000     0.000000000000     0.000000000000    15.994914619570
         H            0.588538000000     0.756918000000     0.000000000000     1.007825032230
         H            0.588538000000    -0.756918000000     0.000000000000     1.007825032230
         CL           3.177738000000     3.177738000000     0.000000000000    34.968852682000
         CL           3.177738000000    -3.177738000000     0.000000000000    34.968852682000

  Charge       = -2
  Multiplicity = 1
  Basis Set: AUG-CC-PVTZ
    Blend: AUG-CC-PVTZ
  Basis Set: (AUG-CC-PVTZ AUX)
    Blend: AUG-CC-PVTZ-JKFIT

    Orbital Energies [Eh]
    ---------------------

    Doubly Occupied:

       1A   -104.435219     2A   -104.435219     3A    -20.323713
       4A    -10.158945     5A    -10.158945     6A     -7.624993
       7A     -7.624992     8A     -7.624979     9A     -7.624979
      10A     -7.624960    11A     -7.624960    12A     -1.110035
      13A     -0.662766    14A     -0.662752    15A     -0.473449
      16A     -0.347066    17A     -0.269850    18A     -0.080530
      19A     -0.080126    20A     -0.079558    21A     -0.079422
      22A     -0.079394    23A     -0.078568

  @DF-RHF Final Energy:  -995.14632741883759

   => Energetics <=

    Nuclear Repulsion Energy =             74.1675000018738615
    One-Electron Energy =               -1540.0968137050883797
    Two-Electron Energy =                 470.7829862843770456
    Total Energy =                       -995.1463274188374726
 Dipole X            :       -217.3713346          206.3962049          -10.9751297
 Dipole Y            :          0.0000000            0.0000000            0.0000000
 Dipole Z            :          0.0000000            0.0000000            0.0000000
 Magnitude           :                                                   10.9751297
  Basis Set: (AUG-CC-PVTZ AUX)
    Blend: AUG-CC-PVTZ-RI
	 Reference Energy          =    -995.1463274188375863 [Eh]
	 Singles Energy            =      -0.0000000000000000 [Eh]
	 Same-Spin Energy          =      -0.1935414567012535 [Eh]
	 Opposite-Spin Energy      =      -0.5730382117418535 [Eh]
	 Correlation Energy        =      -0.7665796684431070 [Eh]
	 Total Energy              =    -995.9129070872807006 [Eh]

	 ================> DF-SCS-MP2 Energies <==================
	-----------------------------------------------------------
	 SCS Same-Spin Scale       =       0.3333333333333333 [-]
	 SCS Opposite-Spin Scale   =       1.2000000000000000 [-]
	 SCS Same-Spin Energy      =      -0.0645138189004178 [Eh]
	 SCS Opposite-Spin Energy  =      -0.6876458540902243 [Eh]
	 SCS Correlation Energy    =      -0.7521596729906421 [Eh]
	 SCS Total Energy          =    -995.8984870918282013 [Eh]
	-----------------------------------------------------------

*** Psi4 exiting successfully. Buy a developer a beer!
