                               Psi4 1.8.2 release

  ==> Input File <==

--------------------------------------------------------------------------
MEMORY 60 GB

molecule dimer {
0 1
O          0.000000     0.000000     0.000000
H          0.588538     0.756918     0.000000
H          0.588538    -0.756918     0.000000
Gh(Cl)     4.539626     4.539626     0.000000
Gh(Cl)     4.539626    -4.539626     0.000000

units ang
no_reorient
no_com
symmetry c1
}

set {
basis        aug-cc-pVTZ
scf_type     df
}

energy("mp2")
--------------------------------------------------------------------------

    Molecular point group: c1

    Geometry (in Angstrom), charge = 0, multiplicity = 1:

       Center              X                  Y                   Z               Mass
    ------------   -----------------  -----------------  -----------------  -----------------
         O            0.000000000000     0.000000000000     0.000000000000    15.994914619570
         H            0.588538000000     0.756918000000     0.000000000000     1.007825032230
         H            0.588538000000    -0.756918000000     0.000000000000     1.007825032230
      Gh(CL)          4.539626000000     4.539626000000     0.000000000000    34.968852682000
      Gh(CL)          4.539626000000    -4.539626000000     0.000000000000    34.968852682000

  Charge       = 0
  Multiplicity = 1
  Basis Set: AUG-CC-PVTZ
    Blend: AUG-CC-PVTZ
  Basis Set: (AUG-CC-PVTZ AUX)
    Blend: AUG-CC-PVTZ-JKFIT

    Orbital Energies [Eh]
    ---------------------

    Doubly Occupied:

       1A    -20.567586     2A     -1.352980     3A     -0.716513
       4A     -0.585132     5A     -0.510307

  @DF-RHF Final Energy:   -76.06048256366518

   => Energetics <=

    Nuclear Repulsion Energy =              9.1801978479270687
    One-Electron Energy =                -123.0163232252750021
    Two-Electron Energy =                  37.7756428136827651
    Total Energy =                        -76.0604825636651753
 Dipole X            :         -1.4421333            2.2243513            0.7822179
 Dipole Y            :          0.0000000            0.0000000            0.0000000
 Dipole Z            :          0.0000000            0.0000000            0.0000000
 Magnitude           :                                                    0.7822179
  Basis Set: (AUG-CC-PVTZ AUX)
    Blend: AUG-CC-PVTZ-RI
	 Reference Energy          =     -76.0604825636651753 [Eh]
	 Singles Energy            =      -0.0000000000000000 [Eh]
	 Same-Spin Energy          =      -0.0683680094105048 [Eh]
	 Opposite-Spin Energy      =      -0.2152509038096385 [Eh]
	 Correlation Energy        =      -0.2836189132201433 [Eh]
	 Total Energy              =     -76.3441014768853137 [Eh]

	 ================> DF-SCS-MP2 Energies <==================
	-----------------------------------------------------------
	 SCS Same-Spin Scale       =       0.3333333333333333 [-]
	 SCS Opposite-Spin Scale   =       1.2000000000000000 [-]
	 SCS Same-Spin Energy      =      -0.0227893364701683 [Eh]
	 SCS Opposite-Spin Energy  =      -0.2583010845715662 [Eh]
	 SCS Correlation Energy    =      -0.2810904210417344 [Eh]
	 SCS Total Energy          =     -76.3415729847069144 [Eh]
	-----------------------------------------------------------

*** Psi4 exiting successfully. Buy a developer a beer!
