                               Psi4 1.8.2 release

  ==> Input File <==

--------------------------------------------------------------------------
MEMORY 60 GB

molecule dimer {
-1 1
Gh(O)      0.000000     0.000000     0.000000
Gh(H)      0.588538     0.756918     0.000000
Gh(H)      0.588538    -0.756918     0.000000
Gh(Cl)     2.950757     2.950757     0.000000
Cl         2.950757    -2.950757     0.000000

units ang
no_reorient
no_com
symmetry c1
}

set {
basis        aug-cc-pVTZ
scf_type     df
}

energy("mp2")
--------------------------------------------------------------------------

    Molecular point group: c1

    Geometry (in Angstrom), charge = -1, multiplicity = 1:

       Center              X                  Y                   Z               Mass
    ------------   -----------------  -----------------  -----------------  -----------------
      Gh(O)           0.000000000000     0.000000000000     0.000000000000    15.994914619570
      Gh(H)           0.588538000000     0.756918000000     0.000000000000     1.007825032230
      Gh(H)           0.588538000000    -0.756918000000     0.000000000000     1.007825032230
      Gh(CL)          2.950757000000     2.950757000000     0.000000000000    34.968852682000
         CL           2.950757000000    -2.950757000000     0.000000000000    34.968852682000

  Charge       = -1
  Multiplicity = 1
  Basis Set: AUG-CC-PVTZ
    Blend: AUG-CC-PVTZ
  Basis Set: (AUG-CC-PVTZ AUX)
    Blend: AUG-CC-PVTZ-JKFIT

    Orbital Energies [Eh]
    ---------------------

    Doubly Occupied:

       1A   -104.506073     2A    -10.229767     3A     -7.695805
       4A     -7.695804     5A     -7.695792     6A     -0.733506
       7A     -0.150338     8A     -0.150330     9A     -0.150329

  @DF-RHF Final Energy:  -459.57349144235434

   => Energetics <=

    Nuclear Repulsion Energy =              0.0000000000000000
    One-Electron Energy =                -641.1315071946725084
    Two-Electron Energy =                 181.5580157523181697
    Total Energy =                       -459.5734914423543387
 Dipole X            :       -100.3700363           94.7940841           -5.5759522
 Dipole Y            :        100.3701966          -94.7940841            5.5761126
 Dipole Z            :         -0.0000000            0.0000000           -0.0000000
 Magnitude           :                                                    7.8857006
  Basis Set: (AUG-CC-PVTZ AUX)
    Blend: AUG-CC-PVTZ-RI
	 Reference Energy          =    -459.5734914423543387 [Eh]
	 Singles Energy            =      -0.0000000000000000 [Eh]
	 Same-Spin Energy          =      -0.0623629771203877 [Eh]
	 Opposite-Spin Energy      =      -0.1789718237095380 [Eh]
	 Correlation Energy        =      -0.2413348008299257 [Eh]
	 Total Energy              =    -459.8148262431842568 [Eh]

	 ================> DF-SCS-MP2 Energies <==================
	-----------------------------------------------------------
	 SCS Same-Spin Scale       =       0.3333333333333333 [-]
	 SCS Opposite-Spin Scale   =       1.2000000000000000 [-]
	 SCS Same-Spin Energy      =      -0.0207876590401292 [Eh]
	 SCS Opposite-Spin Energy  =      -0.2147661884514456 [Eh]
	 SCS Correlation Energy    =      -0.2355538474915748 [Eh]
	 SCS Total Energy          =    -459.8090452898459262 [Eh]
	-----------------------------------------------------------

*** Psi4 exiting successfully. Buy a developer a beer!
