                               Psi4 1.8.2 release

  ==> Input File <==

--------------------------------------------------------------------------
MEMORY 60 GB

molecule dimer {
0 1
O      0.000000     0.000000     0.000000
H      0.588538     0.756918     0.000000
H      0.588538    -0.756918     0.000000
--
-1 1
Cl     3.404719     3.404719     0.000000
--
-1 1
Cl     3.404719    -3.404719     0.000000

units ang
no_reorient
no_com
symmetry c1
}

set {
basis        aug-cc-pVTZ
scf_type     df
}

energy("mp2", bsse_type="cp")
--------------------------------------------------------------------------

                               Psi4 1.8.2 release
    Molecular point group: c1
  Charge       = 0
  Multiplicity = 1
  Basis Set: AUG-CC-PVTZ
    Blend: AUG-CC-PVTZ
  Basis Set: (AUG-CC-PVTZ AUX)
    Blend: AUG-CC-PVTZ-JKFIT
  @DF-RHF Final Energy:   -76.06049315277352
    Total Energy =                        -76.0604931527735175
 Dipole X            :         -1.4419569            2.2243513            0.7823944
 Dipole Y            :          0.0000000            0.0000000            0.0000000
 Dipole Z            :         -0.0000000            0.0000000           -0.0000000
 Magnitude           :                                                    0.7823944
  Basis Set: (AUG-CC-PVTZ AUX)
    Blend: AUG-CC-PVTZ-RI
	 Reference Energy          =     -76.0604931527735175 [Eh]
	 Singles Energy            =      -0.0000000000000000 [Eh]
	 Same-Spin Energy          =      -0.0683738907190224 [Eh]
	 Opposite-Spin Energy      =      -0.2153024533018773 [Eh]
	 Correlation Energy        =      -0.2836763440208998 [Eh]
	 Total Energy              =     -76.3441694967944215 [Eh]
	 SCS Total Energy          =     -76.3416473936421056 [Eh]
                               Psi4 1.8.2 release
    Molecular point group: c1
  Basis Set: AUG-CC-PVTZ
    Blend: AUG-CC-PVTZ
  Basis Set: (AUG-CC-PVTZ AUX)
    Blend: AUG-CC-PVTZ-JKFIT
  @DF-RHF Final Energy:  -459.57348591323620
    Total Energy =                       -459.5734859132361976
  Basis Set: (AUG-CC-PVTZ AUX)
                               Psi4 1.8.2 release
  @DF-RHF Final Energy:  -919.07026550599267
    Total Energy =                       -919.0702655059926656
                               Psi4 1.8.2 release
  @DF-RHF Final Energy:  -535.64334946204826
    Total Energy =                       -535.6433494620482634
                               Psi4 1.8.2 release
  @DF-RHF Final Energy:  -535.64334946207180
    Total Energy =                       -535.6433494620717966
                               Psi4 1.8.2 release
  Multiplicity = 1
  @DF-RHF Final Energy:  -459.57348591321085
    Total Energy =                       -459.5734859132108454
	 Singles Energy            =      -0.0000000000000000 [Eh]
	 Same-Spin Energy          =      -0.0623055627250872 [Eh]
	 Opposite-Spin Energy      =      -0.1787654298049715 [Eh]
	 Correlation Energy        =      -0.2410709925300587 [Eh]
	 Total Energy              =    -459.8145569057409148 [Eh]
	 SCS Total Energy          =    -459.8087729498851672 [Eh]
                               Psi4 1.8.2 release
    Molecular point group: c1

    Geometry (in Bohr), charge = -2, multiplicity = 1:

       Center              X                  Y                   Z               Mass
    ------------   -----------------  -----------------  -----------------  -----------------
         O            0.000000000000     0.000000000000     0.000000000000    15.994914619570
         H            1.112175634425     1.430367719429     0.000000000000     1.007825032230
         H            1.112175634425    -1.430367719429     0.000000000000     1.007825032230
         CL           6.433986444143     6.433986444143     0.000000000000    34.968852682000
         CL           6.433986444143    -6.433986444143     0.000000000000    34.968852682000

  Charge       = -2
  Multiplicity = 1
  Basis Set: AUG-CC-PVTZ
    Blend: AUG-CC-PVTZ
  Basis Set: (AUG-CC-PVTZ AUX)
    Blend: AUG-CC-PVTZ-JKFIT

    Orbital Energies [Eh]
    ---------------------

    Doubly Occupied:

       1A   -104.438834     2A   -104.438834     3A    -20.340470
       4A    -10.162575     5A    -10.162575     6A     -7.628619
       7A     -7.628619     8A     -7.628607     9A     -7.628607
      10A     -7.628591    11A     -7.628591    12A     -1.126631
      13A     -0.666334    14A     -0.666327    15A     -0.490066
      16A     -0.363044    17A     -0.286138    18A     -0.083772
      19A     -0.083559    20A     -0.083160    21A     -0.083084
      22A     -0.082954    23A     -0.082458

  @DF-RHF Final Energy:  -995.14856309574088

   => Energetics <=

    Nuclear Repulsion Energy =             69.7674621470424228
    One-Electron Energy =               -1531.0071521861609654
    Two-Electron Energy =                 466.0911269433777306
    Total Energy =                       -995.1485630957408830
 Dipole X            :       -232.8515733          220.9798904          -11.8716830
 Dipole Y            :          0.0000000            0.0000000            0.0000000
 Dipole Z            :         -0.0000000            0.0000000           -0.0000000
 Magnitude           :                                                   11.8716830
  Basis Set: (AUG-CC-PVTZ AUX)
    Blend: AUG-CC-PVTZ-RI
	 Reference Energy          =    -995.1485630957408830 [Eh]
	 Singles Energy            =      -0.0000000000000000 [Eh]
	 Same-Spin Energy          =      -0.1932737004420720 [Eh]
	 Opposite-Spin Energy      =      -0.5726661297309750 [Eh]
	 Correlation Energy        =      -0.7659398301730469 [Eh]
	 Total Energy              =    -995.9145029259138937 [Eh]

	 ================> DF-SCS-MP2 Energies <==================
	-----------------------------------------------------------
	 SCS Same-Spin Scale       =       0.3333333333333333 [-]
	 SCS Opposite-Spin Scale   =       1.2000000000000000 [-]
	 SCS Same-Spin Energy      =      -0.0644245668140240 [Eh]
	 SCS Opposite-Spin Energy  =      -0.6871993556771699 [Eh]
	 SCS Correlation Energy    =      -0.7516239224911939 [Eh]
	 SCS Total Energy          =    -995.9001870182320317 [Eh]
	-----------------------------------------------------------

*** Psi4 exiting successfully. Buy a developer a beer!
