                               Psi4 1.8.2 release

  ==> Input File <==

--------------------------------------------------------------------------
MEMORY 60 GB

molecule dimer {
0 1
O          0.000000     0.000000     0.000000
H          0.588538     0.756918     0.000000
H          0.588538    -0.756918     0.000000
Gh(Cl)     2.723775     2.723775     0.000000
Gh(Cl)     2.723775    -2.723775     0.000000

units ang
no_reorient
no_com
symmetry c1
}

set {
basis        aug-cc-pVTZ
scf_type     df
}

energy("mp2")
--------------------------------------------------------------------------

    Molecular point group: c1

    Geometry (in Angstrom), charge = 0, multiplicity = 1:

       Center              X                  Y                   Z               Mass
    ------------   -----------------  -----------------  -----------------  -----------------
         O            0.000000000000     0.000000000000     0.000000000000    15.994914619570
         H            0.588538000000     0.756918000000     0.000000000000     1.007825032230
         H            0.588538000000    -0.756918000000     0.000000000000     1.007825032230
      Gh(CL)          2.723775000000     2.723775000000     0.000000000000    34.968852682000
      Gh(CL)          2.723775000000    -2.723775000000     0.000000000000    34.968852682000

  Charge       = 0
  Multiplicity = 1
  Basis Set: AUG-CC-PVTZ
    Blend: AUG-CC-PVTZ
  Basis Set: (AUG-CC-PVTZ AUX)
    Blend: AUG-CC-PVTZ-JKFIT

    Orbital Energies [Eh]
    ---------------------

    Doubly Occupied:

       1A    -20.567614     2A     -1.352970     3A     -0.716502
       4A     -0.585124     5A     -0.510295

  @DF-RHF Final Energy:   -76.06050584370507

   => Energetics <=

    Nuclear Repulsion Energy =              9.1801978479270687
    One-Electron Energy =                -123.0163950992750301
    Two-Electron Energy =                  37.7756914076428743
    Total Energy =                        -76.0605058437050729
 Dipole X            :         -1.4420966            2.2243513            0.7822547
 Dipole Y            :          0.0000000            0.0000000            0.0000000
 Dipole Z            :         -0.0000000            0.0000000           -0.0000000
 Magnitude           :                                                    0.7822547
  Basis Set: (AUG-CC-PVTZ AUX)
    Blend: AUG-CC-PVTZ-RI
	 Reference Energy          =     -76.0605058437050729 [Eh]
	 Singles Energy            =      -0.0000000000000000 [Eh]
	 Same-Spin Energy          =      -0.0683985331721556 [Eh]
	 Opposite-Spin Energy      =      -0.2157359135723827 [Eh]
	 Correlation Energy        =      -0.2841344467445382 [Eh]
	 Total Energy              =     -76.3446402904496182 [Eh]

	 ================> DF-SCS-MP2 Energies <==================
	-----------------------------------------------------------
	 SCS Same-Spin Scale       =       0.3333333333333333 [-]
	 SCS Opposite-Spin Scale   =       1.2000000000000000 [-]
	 SCS Same-Spin Energy      =      -0.0227995110573852 [Eh]
	 SCS Opposite-Spin Energy  =      -0.2588830962868592 [Eh]
	 SCS Correlation Energy    =      -0.2816826073442444 [Eh]
	 SCS Total Energy          =     -76.3421884510493243 [Eh]
	-----------------------------------------------------------

*** Psi4 exiting successfully. Buy a developer a beer!
