                               Psi4 1.8.2 release

  ==> Input File <==

--------------------------------------------------------------------------
MEMORY 60 GB

molecule dimer {
0 1
O          0.000000     0.000000     0.000000
H          0.588538     0.756918     0.000000
H          0.588538    -0.756918     0.000000
Gh(Cl)     3.177738     3.177738     0.000000
Gh(Cl)     3.177738    -3.177738     0.000000

units ang
no_reorient
no_com
symmetry c1
}

set {
basis        aug-cc-pVTZ
scf_type     df
}

energy("mp2")
--------------------------------------------------------------------------

    Molecular point group: c1

    Geometry (in Angstrom), charge = 0, multiplicity = 1:

       Center              X                  Y                   Z               Mass
    ------------   -----------------  -----------------  -----------------  -----------------
         O            0.000000000000     0.000000000000     0.000000000000    15.994914619570
         H            0.588538000000     0.756918000000     0.000000000000     1.007825032230
         H            0.588538000000    -0.756918000000     0.000000000000     1.007825032230
      Gh(CL)          3.177738000000     3.177738000000     0.000000000000    34.968852682000
      Gh(CL)          3.177738000000    -3.177738000000     0.000000000000    34.968852682000

  Charge       = 0
  Multiplicity = 1
  Basis Set: AUG-CC-PVTZ
    Blend: AUG-CC-PVTZ
  Basis Set: (AUG-CC-PVTZ AUX)
    Blend: AUG-CC-PVTZ-JKFIT

    Orbital Energies [Eh]
    ---------------------

    Doubly Occupied:

       1A    -20.567609     2A     -1.352987     3A     -0.716519
       4A     -0.585133     5A     -0.510307

  @DF-RHF Final Energy:   -76.06049421530716

   => Energetics <=

    Nuclear Repulsion Energy =              9.1801978479270687
    One-Electron Energy =                -123.0162713885808188
    Two-Electron Energy =                  37.7755793253465910
    Total Energy =                        -76.0604942153071590
 Dipole X            :         -1.4419620            2.2243513            0.7823892
 Dipole Y            :          0.0000000            0.0000000            0.0000000
 Dipole Z            :          0.0000000            0.0000000            0.0000000
 Magnitude           :                                                    0.7823892
  Basis Set: (AUG-CC-PVTZ AUX)
    Blend: AUG-CC-PVTZ-RI
	 Reference Energy          =     -76.0604942153071590 [Eh]
	 Singles Energy            =      -0.0000000000000000 [Eh]
	 Same-Spin Energy          =      -0.0683773172375297 [Eh]
	 Opposite-Spin Energy      =      -0.2153733451792026 [Eh]
	 Correlation Energy        =      -0.2837506624167323 [Eh]
	 Total Energy              =     -76.3442448777238951 [Eh]

	 ================> DF-SCS-MP2 Energies <==================
	-----------------------------------------------------------
	 SCS Same-Spin Scale       =       0.3333333333333333 [-]
	 SCS Opposite-Spin Scale   =       1.2000000000000000 [-]
	 SCS Same-Spin Energy      =      -0.0227924390791766 [Eh]
	 SCS Opposite-Spin Energy  =      -0.2584480142150432 [Eh]
	 SCS Correlation Energy    =      -0.2812404532942197 [Eh]
	 SCS Total Energy          =     -76.3417346686013758 [Eh]
	-----------------------------------------------------------

*** Psi4 exiting successfully. Buy a developer a beer!
