                               Psi4 1.8.2 release

  ==> Input File <==

--------------------------------------------------------------------------
MEMORY 60 GB

molecule dimer {
-2 1
O          0.000000     0.000000     0.000000
H          0.588538     0.756918     0.000000
H          0.588538    -0.756918     0.000000
Cl         2.723775     2.723775     0.000000
Cl         2.723775    -2.723775     0.000000

units ang
no_reorient
no_com
symmetry c1
}

set {
basis        aug-cc-pVTZ
scf_type     df
}

energy("mp2")
--------------------------------------------------------------------------

    Molecular point group: c1

    Geometry (in Angstrom), charge = -2, multiplicity = 1:

       Center              X                  Y                   Z               Mass
    ------------   -----------------  -----------------  -----------------  -----------------
         O            0.000000000000     0.000000000000     0.000000000000    15.994914619570
         H            0.588538000000     0.756918000000     0.000000000000     1.007825032230
         H            0.588538000000    -0.756918000000     0.000000000000     1.007825032230
         CL           2.723775000000     2.723775000000     0.000000000000    34.968852682000
         CL           2.723775000000    -2.723775000000     0.000000000000    34.968852682000

  Charge       = -2
  Multiplicity = 1
  Basis Set: AUG-CC-PVTZ
    Blend: AUG-CC-PVTZ
  Basis Set: (AUG-CC-PVTZ AUX)
    Blend: AUG-CC-PVTZ-JKFIT

    Orbital Energies [Eh]
    ---------------------

    Doubly Occupied:

       1A   -104.426645     2A   -104.426645     3A    -20.281183
       4A    -10.150355     5A    -10.150355     6A     -7.616412
       7A     -7.616412     8A     -7.616402     9A     -7.616402
      10A     -7.616374    11A     -7.616374    12A     -1.068423
      13A     -0.654745    14A     -0.654691    15A     -0.432118
      16A     -0.307427    17A     -0.228925    18A     -0.073754
      19A     -0.072371    20A     -0.071460    21A     -0.071288
      22A     -0.070858    23A     -0.069069

  @DF-RHF Final Energy:  -995.14118722740193

   => Energetics <=

    Nuclear Repulsion Energy =             85.2240970275792620
    One-Electron Energy =               -1562.9131940314082385
    Two-Electron Energy =                 482.5479097764269909
    Total Energy =                       -995.1411872274019288
 Dipole X            :       -186.3877050          177.2287697           -9.1589353
 Dipole Y            :         -0.0000000            0.0000000           -0.0000000
 Dipole Z            :          0.0000000            0.0000000            0.0000000
 Magnitude           :                                                    9.1589353
  Basis Set: (AUG-CC-PVTZ AUX)
    Blend: AUG-CC-PVTZ-RI
	 Reference Energy          =    -995.1411872274019288 [Eh]
	 Singles Energy            =      -0.0000000000000000 [Eh]
	 Same-Spin Energy          =      -0.1947567897719359 [Eh]
	 Opposite-Spin Energy      =      -0.5749116675541979 [Eh]
	 Correlation Energy        =      -0.7696684573261338 [Eh]
	 Total Energy              =    -995.9108556847280624 [Eh]

	 ================> DF-SCS-MP2 Energies <==================
	-----------------------------------------------------------
	 SCS Same-Spin Scale       =       0.3333333333333333 [-]
	 SCS Opposite-Spin Scale   =       1.2000000000000000 [-]
	 SCS Same-Spin Energy      =      -0.0649189299239786 [Eh]
	 SCS Opposite-Spin Energy  =      -0.6898940010650374 [Eh]
	 SCS Correlation Energy    =      -0.7548129309890160 [Eh]
	 SCS Total Energy          =    -995.8960001583909616 [Eh]
	-----------------------------------------------------------

*** Psi4 exiting successfully. Buy a developer a beer!
