                               Psi4 1.8.2 release

  ==> Input File <==

--------------------------------------------------------------------------
MEMORY 60 GB

molecule dimer {
-2 1
O          0.000000     0.000000     0.000000
H          0.588538     0.756918     0.000000
H          0.588538    -0.756918     0.000000
Cl         2.269813     2.269813     0.000000
Cl         2.269813    -2.269813     0.000000

units ang
no_reorient
no_com
symmetry c1
}

set {
basis        aug-cc-pVTZ
scf_type     df
}

energy("mp2")
--------------------------------------------------------------------------

    Molecular point group: c1

    Geometry (in Angstrom), charge = -2, multiplicity = 1:

       Center              X                  Y                   Z               Mass
    ------------   -----------------  -----------------  -----------------  -----------------
         O            0.000000000000     0.000000000000     0.000000000000    15.994914619570
         H            0.588538000000     0.756918000000     0.000000000000     1.007825032230
         H            0.588538000000    -0.756918000000     0.000000000000     1.007825032230
         CL           2.269813000000     2.269813000000     0.000000000000    34.968852682000
         CL           2.269813000000    -2.269813000000     0.000000000000    34.968852682000

  Charge       = -2
  Multiplicity = 1
  Basis Set: AUG-CC-PVTZ
    Blend: AUG-CC-PVTZ
  Basis Set: (AUG-CC-PVTZ AUX)
    Blend: AUG-CC-PVTZ-JKFIT

    Orbital Energies [Eh]
    ---------------------

    Doubly Occupied:

       1A   -104.414344     2A   -104.414344     3A    -20.218990
       4A    -10.138451     5A    -10.138451     6A     -7.604514
       7A     -7.604513     8A     -7.604496     9A     -7.604496
      10A     -7.604465    11A     -7.604464    12A     -1.011150
      13A     -0.646192    14A     -0.646110    15A     -0.377882
      16A     -0.255324    17A     -0.171643    18A     -0.065457
      19A     -0.063003    20A     -0.061457    21A     -0.061001
      22A     -0.059909    23A     -0.055498

  @DF-RHF Final Energy:  -995.12775559351076

   => Energetics <=

    Nuclear Repulsion Energy =            100.8598064938954622
    One-Electron Energy =               -1595.1228153175911757
    Two-Electron Energy =                 499.1352532301848441
    Total Energy =                       -995.1277555935107557
 Dipole X            :       -155.3663858          148.0613988           -7.3049871
 Dipole Y            :         -0.0000000            0.0000000           -0.0000000
 Dipole Z            :          0.0000000            0.0000000            0.0000000
 Magnitude           :                                                    7.3049871
  Basis Set: (AUG-CC-PVTZ AUX)
    Blend: AUG-CC-PVTZ-RI
	 Reference Energy          =    -995.1277555935107557 [Eh]
	 Singles Energy            =      -0.0000000000000000 [Eh]
	 Same-Spin Energy          =      -0.1982866189917306 [Eh]
	 Opposite-Spin Energy      =      -0.5797493126844199 [Eh]
	 Correlation Energy        =      -0.7780359316761505 [Eh]
	 Total Energy              =    -995.9057915251869417 [Eh]

	 ================> DF-SCS-MP2 Energies <==================
	-----------------------------------------------------------
	 SCS Same-Spin Scale       =       0.3333333333333333 [-]
	 SCS Opposite-Spin Scale   =       1.2000000000000000 [-]
	 SCS Same-Spin Energy      =      -0.0660955396639102 [Eh]
	 SCS Opposite-Spin Energy  =      -0.6956991752213039 [Eh]
	 SCS Correlation Energy    =      -0.7617947148852140 [Eh]
	 SCS Total Energy          =    -995.8895503083959966 [Eh]
	-----------------------------------------------------------

*** Psi4 exiting successfully. Buy a developer a beer!
