                               Psi4 1.8.2 release

  ==> Input File <==

--------------------------------------------------------------------------
MEMORY 60 GB

molecule dimer {
-1 1
Gh(O)      0.000000     0.000000     0.000000
Gh(H)      0.588538     0.756918     0.000000
Gh(H)      0.588538    -0.756918     0.000000
Cl         2.496794     2.496794     0.000000
Gh(Cl)     2.496794    -2.496794     0.000000

units ang
no_reorient
no_com
symmetry c1
}

set {
basis        aug-cc-pVTZ
scf_type     df
}

energy("mp2")
--------------------------------------------------------------------------

    Molecular point group: c1

    Geometry (in Angstrom), charge = -1, multiplicity = 1:

       Center              X                  Y                   Z               Mass
    ------------   -----------------  -----------------  -----------------  -----------------
      Gh(O)           0.000000000000     0.000000000000     0.000000000000    15.994914619570
      Gh(H)           0.588538000000     0.756918000000     0.000000000000     1.007825032230
      Gh(H)           0.588538000000    -0.756918000000     0.000000000000     1.007825032230
         CL           2.496794000000     2.496794000000     0.000000000000    34.968852682000
      Gh(CL)          2.496794000000    -2.496794000000     0.000000000000    34.968852682000

  Charge       = -1
  Multiplicity = 1
  Basis Set: AUG-CC-PVTZ
    Blend: AUG-CC-PVTZ
  Basis Set: (AUG-CC-PVTZ AUX)
    Blend: AUG-CC-PVTZ-JKFIT

    Orbital Energies [Eh]
    ---------------------

    Doubly Occupied:

       1A   -104.506200     2A    -10.229796     3A     -7.695847
       4A     -7.695844     5A     -7.695816     6A     -0.733502
       7A     -0.150334     8A     -0.150328     9A     -0.150328

  @DF-RHF Final Energy:  -459.57349987604778

   => Energetics <=

    Nuclear Repulsion Energy =              0.0000000000000000
    One-Electron Energy =                -641.1310181661274328
    Two-Electron Energy =                 181.5575182900796847
    Total Energy =                       -459.5734998760477765
 Dipole X            :        -84.9291292           80.2103665           -4.7187627
 Dipole Y            :        -84.9289470           80.2103665           -4.7185805
 Dipole Z            :         -0.0000000            0.0000000           -0.0000000
 Magnitude           :                                                    6.6732094
  Basis Set: (AUG-CC-PVTZ AUX)
    Blend: AUG-CC-PVTZ-RI
	 Reference Energy          =    -459.5734998760477765 [Eh]
	 Singles Energy            =      -0.0000000000000000 [Eh]
	 Same-Spin Energy          =      -0.0624939144906323 [Eh]
	 Opposite-Spin Energy      =      -0.1795534537158907 [Eh]
	 Correlation Energy        =      -0.2420473682065230 [Eh]
	 Total Energy              =    -459.8155472442542759 [Eh]

	 ================> DF-SCS-MP2 Energies <==================
	-----------------------------------------------------------
	 SCS Same-Spin Scale       =       0.3333333333333333 [-]
	 SCS Opposite-Spin Scale   =       1.2000000000000000 [-]
	 SCS Same-Spin Energy      =      -0.0208313048302108 [Eh]
	 SCS Opposite-Spin Energy  =      -0.2154641444590688 [Eh]
	 SCS Correlation Energy    =      -0.2362954492892796 [Eh]
	 SCS Total Energy          =    -459.8097953253370633 [Eh]
	-----------------------------------------------------------

*** Psi4 exiting successfully. Buy a developer a beer!
