                               Psi4 1.9 release

  ==> Input File <==

--------------------------------------------------------------------------
MEMORY 60 GB

molecule dimer {
0 1
O      0.000000     0.000000     0.000000
H      0.588538     0.756918     0.000000
H      0.588538    -0.756918     0.000000
--
-2 1
Cl     4.539626     4.539626     0.000000
Cl     4.539626    -4.539626     0.000000

units ang
no_reorient
no_com
symmetry c1
}

set {
basis        aug-cc-pVTZ
scf_type     df
}

energy("mp2", bsse_type="cp")
--------------------------------------------------------------------------

                               Psi4 1.9 release
    Molecular point group: c1
  Charge       = -2
  Multiplicity = 1
  Basis Set: AUG-CC-PVTZ
    Blend: AUG-CC-PVTZ
  Basis Set: (AUG-CC-PVTZ AUX)
    Blend: AUG-CC-PVTZ-JKFIT
  @DF-RHF Final Energy:  -919.08898585215138
    Total Energy =                       -919.0889858521512679
 Dipole X            :       -308.8348274          291.6740950          -17.1607324
 Dipole Y            :         -0.0000000            0.0000000           -0.0000000
 Dipole Z            :         -0.0000000            0.0000000           -0.0000000
 Magnitude           :                                                   17.1607324
  Basis Set: (AUG-CC-PVTZ AUX)
    Blend: AUG-CC-PVTZ-RI
	 Reference Energy          =    -919.0889858521513816 [Eh]
	 Singles Energy            =      -0.0000000000000000 [Eh]
	 Same-Spin Energy          =      -0.1245472867603817 [Eh]
	 Opposite-Spin Energy      =      -0.3573070556346686 [Eh]
	 Correlation Energy        =      -0.4818543423950504 [Eh]
	 Total Energy              =    -919.5708401945464630 [Eh]
	 SCS Total Energy          =    -919.5592700811664599 [Eh]
                               Psi4 1.9 release
    Molecular point group: c1
  Multiplicity = 1
  Basis Set: AUG-CC-PVTZ
    Blend: AUG-CC-PVTZ
  Basis Set: (AUG-CC-PVTZ AUX)
    Blend: AUG-CC-PVTZ-JKFIT
  @DF-RHF Final Energy:   -76.06048256365818
    Total Energy =                        -76.0604825636581836
  Basis Set: (AUG-CC-PVTZ AUX)
	 Singles Energy            =      -0.0000000000000000 [Eh]
	 Same-Spin Energy          =      -0.0683680094105160 [Eh]
	 Opposite-Spin Energy      =      -0.2152509038096685 [Eh]
	 Correlation Energy        =      -0.2836189132201846 [Eh]
	 Total Energy              =     -76.3441014768783646 [Eh]
	 SCS Total Energy          =     -76.3415729846999511 [Eh]
                               Psi4 1.9 release
    Molecular point group: c1

    Geometry (in Bohr), charge = -2, multiplicity = 1:

       Center              X                  Y                   Z               Mass
    ------------   -----------------  -----------------  -----------------  -----------------
         O            0.000000000000     0.000000000000     0.000000000000    15.994914619570
         H            1.112175634425     1.430367719429     0.000000000000     1.007825032230
         H            1.112175634425    -1.430367719429     0.000000000000     1.007825032230
         CL           8.578649852008     8.578649852008     0.000000000000    34.968852682000
         CL           8.578649852008    -8.578649852008     0.000000000000    34.968852682000

  Charge       = -2
  Multiplicity = 1
  Basis Set: AUG-CC-PVTZ
    Blend: AUG-CC-PVTZ
  Basis Set: (AUG-CC-PVTZ AUX)
    Blend: AUG-CC-PVTZ-JKFIT

    Orbital Energies [Eh]
    ---------------------

    Doubly Occupied:

       1A   -104.452890     2A   -104.452890     3A    -20.398421
       4A    -10.176656     5A    -10.176656     6A     -7.642689
       7A     -7.642689     8A     -7.642687     9A     -7.642687
      10A     -7.642679    11A     -7.642679    12A     -1.184261
      13A     -0.680397    14A     -0.680397    15A     -0.547822
      16A     -0.418897    17A     -0.342789    18A     -0.097351
      19A     -0.097343    20A     -0.097253    21A     -0.097248
      22A     -0.097075    23A     -0.097036

  @DF-RHF Final Energy:  -995.15870518698523

   => Energetics <=

    Nuclear Repulsion Energy =             54.4563774868443744
    One-Electron Energy =               -1499.3271753460699074
    Two-Electron Energy =                 449.7120926722404306
    Total Energy =                       -995.1587051869851166
 Dipole X            :       -310.1694009          293.8984462          -16.2709546
 Dipole Y            :          0.0000000            0.0000000            0.0000000
 Dipole Z            :         -0.0000000            0.0000000           -0.0000000
 Magnitude           :                                                   16.2709546
  Basis Set: (AUG-CC-PVTZ AUX)
    Blend: AUG-CC-PVTZ-RI
	 Reference Energy          =    -995.1587051869852303 [Eh]
	 Singles Energy            =      -0.0000000000000000 [Eh]
	 Same-Spin Energy          =      -0.1928871882218800 [Eh]
	 Opposite-Spin Energy      =      -0.5722538298365026 [Eh]
	 Correlation Energy        =      -0.7651410180583826 [Eh]
	 Total Energy              =    -995.9238462050435601 [Eh]

	 ================> DF-SCS-MP2 Energies <==================
	-----------------------------------------------------------
	 SCS Same-Spin Scale       =       0.3333333333333333 [-]
	 SCS Opposite-Spin Scale   =       1.2000000000000000 [-]
	 SCS Same-Spin Energy      =      -0.0642957294072933 [Eh]
	 SCS Opposite-Spin Energy  =      -0.6867045958038032 [Eh]
	 SCS Correlation Energy    =      -0.7510003252110965 [Eh]
	 SCS Total Energy          =    -995.9097055121962967 [Eh]
	-----------------------------------------------------------

*** Psi4 exiting successfully. Buy a developer a beer!
