                               Psi4 1.8.2 release

  ==> Input File <==

--------------------------------------------------------------------------
MEMORY 60 GB

molecule dimer {
-1 1
Gh(O)      0.000000     0.000000     0.000000
Gh(H)      0.588538     0.756918     0.000000
Gh(H)      0.588538    -0.756918     0.000000
Cl         2.269813     2.269813     0.000000
Gh(Cl)     2.269813    -2.269813     0.000000

units ang
no_reorient
no_com
symmetry c1
}

set {
basis        aug-cc-pVTZ
scf_type     df
}

energy("mp2")
--------------------------------------------------------------------------

    Molecular point group: c1

    Geometry (in Angstrom), charge = -1, multiplicity = 1:

       Center              X                  Y                   Z               Mass
    ------------   -----------------  -----------------  -----------------  -----------------
      Gh(O)           0.000000000000     0.000000000000     0.000000000000    15.994914619570
      Gh(H)           0.588538000000     0.756918000000     0.000000000000     1.007825032230
      Gh(H)           0.588538000000    -0.756918000000     0.000000000000     1.007825032230
         CL           2.269813000000     2.269813000000     0.000000000000    34.968852682000
      Gh(CL)          2.269813000000    -2.269813000000     0.000000000000    34.968852682000

  Charge       = -1
  Multiplicity = 1
  Basis Set: AUG-CC-PVTZ
    Blend: AUG-CC-PVTZ
  Basis Set: (AUG-CC-PVTZ AUX)
    Blend: AUG-CC-PVTZ-JKFIT

    Orbital Energies [Eh]
    ---------------------

    Doubly Occupied:

       1A   -104.506320     2A    -10.229827     3A     -7.695888
       4A     -7.695885     5A     -7.695840     6A     -0.733502
       7A     -0.150334     8A     -0.150329     9A     -0.150329

  @DF-RHF Final Energy:  -459.57350681110131

   => Energetics <=

    Nuclear Repulsion Energy =              0.0000000000000000
    One-Electron Energy =                -641.1305190928941329
    Two-Electron Energy =                 181.5570122817927938
    Total Energy =                       -459.5735068111013106
 Dipole X            :        -77.2084851           72.9185237           -4.2899613
 Dipole Y            :        -77.2081791           72.9185237           -4.2896553
 Dipole Z            :         -0.0000000            0.0000000           -0.0000000
 Magnitude           :                                                    6.0667051
  Basis Set: (AUG-CC-PVTZ AUX)
    Blend: AUG-CC-PVTZ-RI
	 Reference Energy          =    -459.5735068111013106 [Eh]
	 Singles Energy            =      -0.0000000000000000 [Eh]
	 Same-Spin Energy          =      -0.0626174749325895 [Eh]
	 Opposite-Spin Energy      =      -0.1801004391072728 [Eh]
	 Correlation Energy        =      -0.2427179140398623 [Eh]
	 Total Energy              =    -459.8162247251411827 [Eh]

	 ================> DF-SCS-MP2 Energies <==================
	-----------------------------------------------------------
	 SCS Same-Spin Scale       =       0.3333333333333333 [-]
	 SCS Opposite-Spin Scale   =       1.2000000000000000 [-]
	 SCS Same-Spin Energy      =      -0.0208724916441965 [Eh]
	 SCS Opposite-Spin Energy  =      -0.2161205269287274 [Eh]
	 SCS Correlation Energy    =      -0.2369930185729238 [Eh]
	 SCS Total Energy          =    -459.8104998296742565 [Eh]
	-----------------------------------------------------------

*** Psi4 exiting successfully. Buy a developer a beer!
