                               Psi4 1.8.2 release

  ==> Input File <==

--------------------------------------------------------------------------
MEMORY 60 GB

molecule dimer {
0 1
O          0.000000     0.000000     0.000000
H          0.588538     0.756918     0.000000
H          0.588538    -0.756918     0.000000
Gh(Cl)     2.269813     2.269813     0.000000
Gh(Cl)     2.269813    -2.269813     0.000000

units ang
no_reorient
no_com
symmetry c1
}

set {
basis        aug-cc-pVTZ
scf_type     df
}

energy("mp2")
--------------------------------------------------------------------------

    Molecular point group: c1

    Geometry (in Angstrom), charge = 0, multiplicity = 1:

       Center              X                  Y                   Z               Mass
    ------------   -----------------  -----------------  -----------------  -----------------
         O            0.000000000000     0.000000000000     0.000000000000    15.994914619570
         H            0.588538000000     0.756918000000     0.000000000000     1.007825032230
         H            0.588538000000    -0.756918000000     0.000000000000     1.007825032230
      Gh(CL)          2.269813000000     2.269813000000     0.000000000000    34.968852682000
      Gh(CL)          2.269813000000    -2.269813000000     0.000000000000    34.968852682000

  Charge       = 0
  Multiplicity = 1
  Basis Set: AUG-CC-PVTZ
    Blend: AUG-CC-PVTZ
  Basis Set: (AUG-CC-PVTZ AUX)
    Blend: AUG-CC-PVTZ-JKFIT

    Orbital Energies [Eh]
    ---------------------

    Doubly Occupied:

       1A    -20.567573     2A     -1.352934     3A     -0.716466
       4A     -0.585090     5A     -0.510289

  @DF-RHF Final Energy:   -76.06053267901781

   => Energetics <=

    Nuclear Repulsion Energy =              9.1801978479270687
    One-Electron Energy =                -123.0167534809017837
    Two-Electron Energy =                  37.7760229539569039
    Total Energy =                        -76.0605326790178253
 Dipole X            :         -1.4423088            2.2243513            0.7820425
 Dipole Y            :          0.0000000            0.0000000            0.0000000
 Dipole Z            :         -0.0000000            0.0000000           -0.0000000
 Magnitude           :                                                    0.7820425
  Basis Set: (AUG-CC-PVTZ AUX)
    Blend: AUG-CC-PVTZ-RI
	 Reference Energy          =     -76.0605326790178111 [Eh]
	 Singles Energy            =      -0.0000000000000000 [Eh]
	 Same-Spin Energy          =      -0.0684293545785483 [Eh]
	 Opposite-Spin Energy      =      -0.2161692360417604 [Eh]
	 Correlation Energy        =      -0.2845985906203087 [Eh]
	 Total Energy              =     -76.3451312696381166 [Eh]

	 ================> DF-SCS-MP2 Energies <==================
	-----------------------------------------------------------
	 SCS Same-Spin Scale       =       0.3333333333333333 [-]
	 SCS Opposite-Spin Scale   =       1.2000000000000000 [-]
	 SCS Same-Spin Energy      =      -0.0228097848595161 [Eh]
	 SCS Opposite-Spin Energy  =      -0.2594030832501125 [Eh]
	 SCS Correlation Energy    =      -0.2822128681096285 [Eh]
	 SCS Total Energy          =     -76.3427455471274357 [Eh]
	-----------------------------------------------------------

*** Psi4 exiting successfully. Buy a developer a beer!
