                               Psi4 1.8.2 release

  ==> Input File <==

--------------------------------------------------------------------------
MEMORY 60 GB

molecule dimer {
-1 1
Gh(O)      0.000000     0.000000     0.000000
Gh(H)      0.588538     0.756918     0.000000
Gh(H)      0.588538    -0.756918     0.000000
Cl         4.539626     4.539626     0.000000
Gh(Cl)     4.539626    -4.539626     0.000000

units ang
no_reorient
no_com
symmetry c1
}

set {
basis        aug-cc-pVTZ
scf_type     df
}

energy("mp2")
--------------------------------------------------------------------------

    Molecular point group: c1

    Geometry (in Angstrom), charge = -1, multiplicity = 1:

       Center              X                  Y                   Z               Mass
    ------------   -----------------  -----------------  -----------------  -----------------
      Gh(O)           0.000000000000     0.000000000000     0.000000000000    15.994914619570
      Gh(H)           0.588538000000     0.756918000000     0.000000000000     1.007825032230
      Gh(H)           0.588538000000    -0.756918000000     0.000000000000     1.007825032230
         CL           4.539626000000     4.539626000000     0.000000000000    34.968852682000
      Gh(CL)          4.539626000000    -4.539626000000     0.000000000000    34.968852682000

  Charge       = -1
  Multiplicity = 1
  Basis Set: AUG-CC-PVTZ
    Blend: AUG-CC-PVTZ
  Basis Set: (AUG-CC-PVTZ AUX)
    Blend: AUG-CC-PVTZ-JKFIT

    Orbital Energies [Eh]
    ---------------------

    Doubly Occupied:

       1A   -104.505974     2A    -10.229746     3A     -7.695777
       4A     -7.695777     5A     -7.695775     6A     -0.733513
       7A     -0.150338     8A     -0.150338     9A     -0.150337

  @DF-RHF Final Energy:  -459.57348292293398

   => Energetics <=

    Nuclear Repulsion Energy =              0.0000000000000000
    One-Electron Energy =                -641.1318269078185494
    Two-Electron Energy =                 181.5583439848845444
    Total Energy =                       -459.5734829229339766
 Dipole X            :       -154.4158245          145.8370475           -8.5787771
 Dipole Y            :       -154.4157874          145.8370475           -8.5787399
 Dipole Z            :         -0.0000000            0.0000000           -0.0000000
 Magnitude           :                                                   12.1321966
  Basis Set: (AUG-CC-PVTZ AUX)
    Blend: AUG-CC-PVTZ-RI
	 Reference Energy          =    -459.5734829229339766 [Eh]
	 Singles Energy            =      -0.0000000000000000 [Eh]
	 Same-Spin Energy          =      -0.0622678895235128 [Eh]
	 Opposite-Spin Energy      =      -0.1786399747729819 [Eh]
	 Correlation Energy        =      -0.2409078642964947 [Eh]
	 Total Energy              =    -459.8143907872304794 [Eh]

	 ================> DF-SCS-MP2 Energies <==================
	-----------------------------------------------------------
	 SCS Same-Spin Scale       =       0.3333333333333333 [-]
	 SCS Opposite-Spin Scale   =       1.2000000000000000 [-]
	 SCS Same-Spin Energy      =      -0.0207559631745043 [Eh]
	 SCS Opposite-Spin Energy  =      -0.2143679697275783 [Eh]
	 SCS Correlation Energy    =      -0.2351239329020826 [Eh]
	 SCS Total Energy          =    -459.8086068558360466 [Eh]
	-----------------------------------------------------------

*** Psi4 exiting successfully. Buy a developer a beer!
