                               Psi4 1.8.2 release

  ==> Input File <==

--------------------------------------------------------------------------
MEMORY 60 GB

molecule dimer {
-1 1
Gh(O)      0.000000     0.000000     0.000000
Gh(H)      0.588538     0.756918     0.000000
Gh(H)      0.588538    -0.756918     0.000000
Gh(Cl)     2.723775     2.723775     0.000000
Cl         2.723775    -2.723775     0.000000

units ang
no_reorient
no_com
symmetry c1
}

set {
basis        aug-cc-pVTZ
scf_type     df
}

energy("mp2")
--------------------------------------------------------------------------

    Molecular point group: c1

    Geometry (in Angstrom), charge = -1, multiplicity = 1:

       Center              X                  Y                   Z               Mass
    ------------   -----------------  -----------------  -----------------  -----------------
      Gh(O)           0.000000000000     0.000000000000     0.000000000000    15.994914619570
      Gh(H)           0.588538000000     0.756918000000     0.000000000000     1.007825032230
      Gh(H)           0.588538000000    -0.756918000000     0.000000000000     1.007825032230
      Gh(CL)          2.723775000000     2.723775000000     0.000000000000    34.968852682000
         CL           2.723775000000    -2.723775000000     0.000000000000    34.968852682000

  Charge       = -1
  Multiplicity = 1
  Basis Set: AUG-CC-PVTZ
    Blend: AUG-CC-PVTZ
  Basis Set: (AUG-CC-PVTZ AUX)
    Blend: AUG-CC-PVTZ-JKFIT

    Orbital Energies [Eh]
    ---------------------

    Doubly Occupied:

       1A   -104.506129     2A    -10.229780     3A     -7.695823
       4A     -7.695821     5A     -7.695803     6A     -0.733504
       7A     -0.150336     8A     -0.150329     9A     -0.150328

  @DF-RHF Final Energy:  -459.57349467957789

   => Energetics <=

    Nuclear Repulsion Energy =              0.0000000000000000
    One-Electron Energy =                -641.1312892396859979
    Two-Electron Energy =                 181.5577945601081069
    Total Energy =                       -459.5734946795778910
 Dipole X            :        -92.6495806           87.5022092           -5.1473714
 Dipole Y            :         92.6496432          -87.5022092            5.1474340
 Dipole Z            :         -0.0000000            0.0000000           -0.0000000
 Magnitude           :                                                    7.2795267
  Basis Set: (AUG-CC-PVTZ AUX)
    Blend: AUG-CC-PVTZ-RI
	 Reference Energy          =    -459.5734946795778910 [Eh]
	 Singles Energy            =      -0.0000000000000000 [Eh]
	 Same-Spin Energy          =      -0.0624150785843389 [Eh]
	 Opposite-Spin Energy      =      -0.1791940105745645 [Eh]
	 Correlation Energy        =      -0.2416090891589034 [Eh]
	 Total Energy              =    -459.8151037687367761 [Eh]

	 ================> DF-SCS-MP2 Energies <==================
	-----------------------------------------------------------
	 SCS Same-Spin Scale       =       0.3333333333333333 [-]
	 SCS Opposite-Spin Scale   =       1.2000000000000000 [-]
	 SCS Same-Spin Energy      =      -0.0208050261947796 [Eh]
	 SCS Opposite-Spin Energy  =      -0.2150328126894774 [Eh]
	 SCS Correlation Energy    =      -0.2358378388842570 [Eh]
	 SCS Total Energy          =    -459.8093325184621563 [Eh]
	-----------------------------------------------------------

*** Psi4 exiting successfully. Buy a developer a beer!
