                               Psi4 1.8.2 release

  ==> Input File <==

--------------------------------------------------------------------------
MEMORY 60 GB

molecule dimer {
0 1
O      0.000000     0.000000     0.000000
H      0.588538     0.756918     0.000000
H      0.588538    -0.756918     0.000000
--
-1 1
Cl     2.950757     2.950757     0.000000
--
-1 1
Cl     2.950757    -2.950757     0.000000

units ang
no_reorient
no_com
symmetry c1
}

set {
basis        aug-cc-pVTZ
scf_type     df
}

energy("mp2", bsse_type="cp")
--------------------------------------------------------------------------

                               Psi4 1.8.2 release
    Molecular point group: c1
  Charge       = 0
  Multiplicity = 1
  Basis Set: AUG-CC-PVTZ
    Blend: AUG-CC-PVTZ
  Basis Set: (AUG-CC-PVTZ AUX)
    Blend: AUG-CC-PVTZ-JKFIT
  @DF-RHF Final Energy:   -76.06049720409781
    Total Energy =                        -76.0604972040978140
 Dipole X            :         -1.4420037            2.2243513            0.7823475
 Dipole Y            :         -0.0000000            0.0000000           -0.0000000
 Dipole Z            :         -0.0000000            0.0000000           -0.0000000
 Magnitude           :                                                    0.7823475
  Basis Set: (AUG-CC-PVTZ AUX)
    Blend: AUG-CC-PVTZ-RI
	 Reference Energy          =     -76.0604972040978140 [Eh]
	 Singles Energy            =      -0.0000000000000000 [Eh]
	 Same-Spin Energy          =      -0.0683855782852821 [Eh]
	 Opposite-Spin Energy      =      -0.2155190699895263 [Eh]
	 Correlation Energy        =      -0.2839046482748084 [Eh]
	 Total Energy              =     -76.3444018523726271 [Eh]
	 SCS Total Energy          =     -76.3419152808470045 [Eh]
                               Psi4 1.8.2 release
    Molecular point group: c1
  Basis Set: AUG-CC-PVTZ
    Blend: AUG-CC-PVTZ
  Basis Set: (AUG-CC-PVTZ AUX)
    Blend: AUG-CC-PVTZ-JKFIT
  @DF-RHF Final Energy:  -459.57349144236639
    Total Energy =                       -459.5734914423663895
  Basis Set: (AUG-CC-PVTZ AUX)
                               Psi4 1.8.2 release
  @DF-RHF Final Energy:  -919.05914035365413
    Total Energy =                       -919.0591403536541293
                               Psi4 1.8.2 release
  @DF-RHF Final Energy:  -535.64709689549989
    Total Energy =                       -535.6470968954998852
                               Psi4 1.8.2 release
  @DF-RHF Final Energy:  -535.64709689551410
    Total Energy =                       -535.6470968955140961
                               Psi4 1.8.2 release
  Multiplicity = 1
  @DF-RHF Final Energy:  -459.57349144235394
    Total Energy =                       -459.5734914423539408
	 Singles Energy            =      -0.0000000000000000 [Eh]
	 Same-Spin Energy          =      -0.0623629771203879 [Eh]
	 Opposite-Spin Energy      =      -0.1789718237095383 [Eh]
	 Correlation Energy        =      -0.2413348008299262 [Eh]
	 Total Energy              =    -459.8148262431838589 [Eh]
	 SCS Total Energy          =    -459.8090452898455283 [Eh]
                               Psi4 1.8.2 release
    Molecular point group: c1

    Geometry (in Bohr), charge = -2, multiplicity = 1:

       Center              X                  Y                   Z               Mass
    ------------   -----------------  -----------------  -----------------  -----------------
         O            0.000000000000     0.000000000000     0.000000000000    15.994914619570
         H            1.112175634425     1.430367719429     0.000000000000     1.007825032230
         H            1.112175634425    -1.430367719429     0.000000000000     1.007825032230
         CL           5.576122592778     5.576122592778     0.000000000000    34.968852682000
         CL           5.576122592778    -5.576122592778     0.000000000000    34.968852682000

  Charge       = -2
  Multiplicity = 1
  Basis Set: AUG-CC-PVTZ
    Blend: AUG-CC-PVTZ
  Basis Set: (AUG-CC-PVTZ AUX)
    Blend: AUG-CC-PVTZ-JKFIT

    Orbital Energies [Eh]
    ---------------------

    Doubly Occupied:

       1A   -104.431212     2A   -104.431212     3A    -20.304219
       4A    -10.154920     5A    -10.154920     6A     -7.620972
       7A     -7.620972     8A     -7.620959     9A     -7.620959
      10A     -7.620936    11A     -7.620936    12A     -1.090836
      13A     -0.658903    14A     -0.658874    15A     -0.454293
      16A     -0.328683    17A     -0.250996    18A     -0.077181
      19A     -0.076424    20A     -0.075621    21A     -0.075560
      22A     -0.075378    23A     -0.074165

  @DF-RHF Final Energy:  -995.14396939994731

   => Energetics <=

    Nuclear Repulsion Energy =             79.2600773904871119
    One-Electron Energy =               -1550.6098329067892791
    Two-Electron Energy =                 476.2057861163548296
    Total Energy =                       -995.1439693999473093
 Dipole X            :       -201.8836979          191.8125194          -10.0711785
 Dipole Y            :         -0.0000000            0.0000000           -0.0000000
 Dipole Z            :         -0.0000000            0.0000000           -0.0000000
 Magnitude           :                                                   10.0711785
  Basis Set: (AUG-CC-PVTZ AUX)
    Blend: AUG-CC-PVTZ-RI
	 Reference Energy          =    -995.1439693999473093 [Eh]
	 Singles Energy            =      -0.0000000000000000 [Eh]
	 Same-Spin Energy          =      -0.1939949080658314 [Eh]
	 Opposite-Spin Energy      =      -0.5737324771929453 [Eh]
	 Correlation Energy        =      -0.7677273852587767 [Eh]
	 Total Energy              =    -995.9116967852061180 [Eh]

	 ================> DF-SCS-MP2 Energies <==================
	-----------------------------------------------------------
	 SCS Same-Spin Scale       =       0.3333333333333333 [-]
	 SCS Opposite-Spin Scale   =       1.2000000000000000 [-]
	 SCS Same-Spin Energy      =      -0.0646649693552771 [Eh]
	 SCS Opposite-Spin Energy  =      -0.6884789726315343 [Eh]
	 SCS Correlation Energy    =      -0.7531439419868114 [Eh]
	 SCS Total Energy          =    -995.8971133419340731 [Eh]
	-----------------------------------------------------------

*** Psi4 exiting successfully. Buy a developer a beer!
