                               Psi4 1.8.2 release

  ==> Input File <==

--------------------------------------------------------------------------
MEMORY 60 GB

molecule dimer {
0 1
O      0.000000     0.000000     0.000000
H      0.588538     0.756918     0.000000
H      0.588538    -0.756918     0.000000
--
-1 1
Cl     3.177738     3.177738     0.000000
--
-1 1
Cl     3.177738    -3.177738     0.000000

units ang
no_reorient
no_com
symmetry c1
}

set {
basis        aug-cc-pVTZ
scf_type     df
}

energy("mp2", bsse_type="cp")
--------------------------------------------------------------------------

                               Psi4 1.8.2 release
    Molecular point group: c1
  Charge       = 0
  Multiplicity = 1
  Basis Set: AUG-CC-PVTZ
    Blend: AUG-CC-PVTZ
  Basis Set: (AUG-CC-PVTZ AUX)
    Blend: AUG-CC-PVTZ-JKFIT
  @DF-RHF Final Energy:   -76.06049421530713
    Total Energy =                        -76.0604942153071306
 Dipole X            :         -1.4419620            2.2243513            0.7823892
 Dipole Y            :          0.0000000            0.0000000            0.0000000
 Dipole Z            :         -0.0000000            0.0000000           -0.0000000
 Magnitude           :                                                    0.7823892
  Basis Set: (AUG-CC-PVTZ AUX)
    Blend: AUG-CC-PVTZ-RI
	 Reference Energy          =     -76.0604942153071306 [Eh]
	 Singles Energy            =      -0.0000000000000000 [Eh]
	 Same-Spin Energy          =      -0.0683773172375313 [Eh]
	 Opposite-Spin Energy      =      -0.2153733451792064 [Eh]
	 Correlation Energy        =      -0.2837506624167377 [Eh]
	 Total Energy              =     -76.3442448777238667 [Eh]
	 SCS Total Energy          =     -76.3417346686013616 [Eh]
                               Psi4 1.8.2 release
    Molecular point group: c1
  Basis Set: AUG-CC-PVTZ
    Blend: AUG-CC-PVTZ
  Basis Set: (AUG-CC-PVTZ AUX)
    Blend: AUG-CC-PVTZ-JKFIT
  @DF-RHF Final Energy:  -459.57348903024564
    Total Energy =                       -459.5734890302456961
  Basis Set: (AUG-CC-PVTZ AUX)
                               Psi4 1.8.2 release
  @DF-RHF Final Energy:  -919.06505663442806
    Total Energy =                       -919.0650566344279468
                               Psi4 1.8.2 release
  @DF-RHF Final Energy:  -535.64503204070206
    Total Energy =                       -535.6450320407020627
                               Psi4 1.8.2 release
  @DF-RHF Final Energy:  -535.64503204074572
    Total Energy =                       -535.6450320407457184
                               Psi4 1.8.2 release
  Multiplicity = 1
  @DF-RHF Final Energy:  -459.57348903020761
    Total Energy =                       -459.5734890302076110
	 Singles Energy            =      -0.0000000000000000 [Eh]
	 Same-Spin Energy          =      -0.0623276579725439 [Eh]
	 Opposite-Spin Energy      =      -0.1788399612000938 [Eh]
	 Correlation Energy        =      -0.2411676191726377 [Eh]
	 Total Energy              =    -459.8146566493802538 [Eh]
	 SCS Total Energy          =    -459.8088728696385488 [Eh]
                               Psi4 1.8.2 release
    Molecular point group: c1

    Geometry (in Bohr), charge = -2, multiplicity = 1:

       Center              X                  Y                   Z               Mass
    ------------   -----------------  -----------------  -----------------  -----------------
         O            0.000000000000     0.000000000000     0.000000000000    15.994914619570
         H            1.112175634425     1.430367719429     0.000000000000     1.007825032230
         H            1.112175634425    -1.430367719429     0.000000000000     1.007825032230
         CL           6.005054518460     6.005054518460     0.000000000000    34.968852682000
         CL           6.005054518460    -6.005054518460     0.000000000000    34.968852682000

  Charge       = -2
  Multiplicity = 1
  Basis Set: AUG-CC-PVTZ
    Blend: AUG-CC-PVTZ
  Basis Set: (AUG-CC-PVTZ AUX)
    Blend: AUG-CC-PVTZ-JKFIT

    Orbital Energies [Eh]
    ---------------------

    Doubly Occupied:

       1A   -104.435219     2A   -104.435219     3A    -20.323713
       4A    -10.158945     5A    -10.158945     6A     -7.624993
       7A     -7.624992     8A     -7.624979     9A     -7.624979
      10A     -7.624960    11A     -7.624960    12A     -1.110035
      13A     -0.662766    14A     -0.662752    15A     -0.473449
      16A     -0.347066    17A     -0.269850    18A     -0.080530
      19A     -0.080126    20A     -0.079558    21A     -0.079422
      22A     -0.079394    23A     -0.078568

  @DF-RHF Final Energy:  -995.14632741883736

   => Energetics <=

    Nuclear Repulsion Energy =             74.1675000018738615
    One-Electron Energy =               -1540.0968137050897440
    Two-Electron Energy =                 470.7829862843785236
    Total Energy =                       -995.1463274188374726
 Dipole X            :       -217.3713346          206.3962049          -10.9751297
 Dipole Y            :          0.0000000            0.0000000            0.0000000
 Dipole Z            :          0.0000000            0.0000000            0.0000000
 Magnitude           :                                                   10.9751297
  Basis Set: (AUG-CC-PVTZ AUX)
    Blend: AUG-CC-PVTZ-RI
	 Reference Energy          =    -995.1463274188373589 [Eh]
	 Singles Energy            =      -0.0000000000000000 [Eh]
	 Same-Spin Energy          =      -0.1935414567012536 [Eh]
	 Opposite-Spin Energy      =      -0.5730382117418501 [Eh]
	 Correlation Energy        =      -0.7665796684431037 [Eh]
	 Total Energy              =    -995.9129070872804732 [Eh]

	 ================> DF-SCS-MP2 Energies <==================
	-----------------------------------------------------------
	 SCS Same-Spin Scale       =       0.3333333333333333 [-]
	 SCS Opposite-Spin Scale   =       1.2000000000000000 [-]
	 SCS Same-Spin Energy      =      -0.0645138189004179 [Eh]
	 SCS Opposite-Spin Energy  =      -0.6876458540902201 [Eh]
	 SCS Correlation Energy    =      -0.7521596729906379 [Eh]
	 SCS Total Energy          =    -995.8984870918279739 [Eh]
	-----------------------------------------------------------

*** Psi4 exiting successfully. Buy a developer a beer!
