                               Psi4 1.8.2 release

  ==> Input File <==

--------------------------------------------------------------------------
MEMORY 60 GB

molecule dimer {
-1 1
Gh(O)      0.000000     0.000000     0.000000
Gh(H)      0.588538     0.756918     0.000000
Gh(H)      0.588538    -0.756918     0.000000
Cl         3.177738     3.177738     0.000000
Gh(Cl)     3.177738    -3.177738     0.000000

units ang
no_reorient
no_com
symmetry c1
}

set {
basis        aug-cc-pVTZ
scf_type     df
}

energy("mp2")
--------------------------------------------------------------------------

    Molecular point group: c1

    Geometry (in Angstrom), charge = -1, multiplicity = 1:

       Center              X                  Y                   Z               Mass
    ------------   -----------------  -----------------  -----------------  -----------------
      Gh(O)           0.000000000000     0.000000000000     0.000000000000    15.994914619570
      Gh(H)           0.588538000000     0.756918000000     0.000000000000     1.007825032230
      Gh(H)           0.588538000000    -0.756918000000     0.000000000000     1.007825032230
         CL           3.177738000000     3.177738000000     0.000000000000    34.968852682000
      Gh(CL)          3.177738000000    -3.177738000000     0.000000000000    34.968852682000

  Charge       = -1
  Multiplicity = 1
  Basis Set: AUG-CC-PVTZ
    Blend: AUG-CC-PVTZ
  Basis Set: (AUG-CC-PVTZ AUX)
    Blend: AUG-CC-PVTZ-JKFIT

    Orbital Energies [Eh]
    ---------------------

    Doubly Occupied:

       1A   -104.506033     2A    -10.229757     3A     -7.695793
       4A     -7.695792     5A     -7.695784     6A     -0.733507
       7A     -0.150337     8A     -0.150331     9A     -0.150331

  @DF-RHF Final Energy:  -459.57348903024575

   => Energetics <=

    Nuclear Repulsion Energy =              0.0000000000000000
    One-Electron Energy =                -641.1316602663197273
    Two-Electron Energy =                 181.5581712360739743
    Total Energy =                       -459.5734890302457529
 Dipole X            :       -108.0907012          102.0859268           -6.0047744
 Dipole Y            :       -108.0908041          102.0859268           -6.0048773
 Dipole Z            :          0.0000000            0.0000000            0.0000000
 Magnitude           :                                                    8.4921061
  Basis Set: (AUG-CC-PVTZ AUX)
    Blend: AUG-CC-PVTZ-RI
	 Reference Energy          =    -459.5734890302457529 [Eh]
	 Singles Energy            =      -0.0000000000000000 [Eh]
	 Same-Spin Energy          =      -0.0623276579725340 [Eh]
	 Opposite-Spin Energy      =      -0.1788399612000725 [Eh]
	 Correlation Energy        =      -0.2411676191726065 [Eh]
	 Total Energy              =    -459.8146566494183389 [Eh]

	 ================> DF-SCS-MP2 Energies <==================
	-----------------------------------------------------------
	 SCS Same-Spin Scale       =       0.3333333333333333 [-]
	 SCS Opposite-Spin Scale   =       1.2000000000000000 [-]
	 SCS Same-Spin Energy      =      -0.0207758859908447 [Eh]
	 SCS Opposite-Spin Energy  =      -0.2146079534400870 [Eh]
	 SCS Correlation Energy    =      -0.2353838394309317 [Eh]
	 SCS Total Energy          =    -459.8088728696766907 [Eh]
	-----------------------------------------------------------

*** Psi4 exiting successfully. Buy a developer a beer!
