                               Psi4 1.8.2 release

  ==> Input File <==

--------------------------------------------------------------------------
MEMORY 60 GB

molecule dimer {
-2 1
O          0.000000     0.000000     0.000000
H          0.588538     0.756918     0.000000
H          0.588538    -0.756918     0.000000
Cl         3.404719     3.404719     0.000000
Cl         3.404719    -3.404719     0.000000

units ang
no_reorient
no_com
symmetry c1
}

set {
basis        aug-cc-pVTZ
scf_type     df
}

energy("mp2")
--------------------------------------------------------------------------

    Molecular point group: c1

    Geometry (in Angstrom), charge = -2, multiplicity = 1:

       Center              X                  Y                   Z               Mass
    ------------   -----------------  -----------------  -----------------  -----------------
         O            0.000000000000     0.000000000000     0.000000000000    15.994914619570
         H            0.588538000000     0.756918000000     0.000000000000     1.007825032230
         H            0.588538000000    -0.756918000000     0.000000000000     1.007825032230
         CL           3.404719000000     3.404719000000     0.000000000000    34.968852682000
         CL           3.404719000000    -3.404719000000     0.000000000000    34.968852682000

  Charge       = -2
  Multiplicity = 1
  Basis Set: AUG-CC-PVTZ
    Blend: AUG-CC-PVTZ
  Basis Set: (AUG-CC-PVTZ AUX)
    Blend: AUG-CC-PVTZ-JKFIT

    Orbital Energies [Eh]
    ---------------------

    Doubly Occupied:

       1A   -104.438834     2A   -104.438834     3A    -20.340470
       4A    -10.162575     5A    -10.162575     6A     -7.628619
       7A     -7.628619     8A     -7.628607     9A     -7.628607
      10A     -7.628591    11A     -7.628591    12A     -1.126631
      13A     -0.666334    14A     -0.666327    15A     -0.490066
      16A     -0.363044    17A     -0.286138    18A     -0.083772
      19A     -0.083559    20A     -0.083160    21A     -0.083084
      22A     -0.082954    23A     -0.082458

  @DF-RHF Final Energy:  -995.14856309574020

   => Energetics <=

    Nuclear Repulsion Energy =             69.7674621470424228
    One-Electron Energy =               -1531.0071521861607380
    Two-Electron Energy =                 466.0911269433781285
    Total Energy =                       -995.1485630957402009
 Dipole X            :       -232.8515733          220.9798904          -11.8716830
 Dipole Y            :          0.0000000            0.0000000            0.0000000
 Dipole Z            :         -0.0000000            0.0000000           -0.0000000
 Magnitude           :                                                   11.8716830
  Basis Set: (AUG-CC-PVTZ AUX)
    Blend: AUG-CC-PVTZ-RI
	 Reference Energy          =    -995.1485630957402009 [Eh]
	 Singles Energy            =      -0.0000000000000000 [Eh]
	 Same-Spin Energy          =      -0.1932737004420729 [Eh]
	 Opposite-Spin Energy      =      -0.5726661297309805 [Eh]
	 Correlation Energy        =      -0.7659398301730533 [Eh]
	 Total Energy              =    -995.9145029259132116 [Eh]

	 ================> DF-SCS-MP2 Energies <==================
	-----------------------------------------------------------
	 SCS Same-Spin Scale       =       0.3333333333333333 [-]
	 SCS Opposite-Spin Scale   =       1.2000000000000000 [-]
	 SCS Same-Spin Energy      =      -0.0644245668140243 [Eh]
	 SCS Opposite-Spin Energy  =      -0.6871993556771766 [Eh]
	 SCS Correlation Energy    =      -0.7516239224912009 [Eh]
	 SCS Total Energy          =    -995.9001870182313496 [Eh]
	-----------------------------------------------------------

*** Psi4 exiting successfully. Buy a developer a beer!
