                               Psi4 1.8.2 release

  ==> Input File <==

--------------------------------------------------------------------------
MEMORY 60 GB

molecule dimer {
-2 1
O          0.000000     0.000000     0.000000
H          0.588538     0.756918     0.000000
H          0.588538    -0.756918     0.000000
Br         3.563818     3.563818     0.000000
Br         3.563818    -3.563818     0.000000

units ang
no_reorient
no_com
symmetry c1
}

set {
basis        aug-cc-pVTZ
scf_type     df
}

energy("mp2")
--------------------------------------------------------------------------

    Molecular point group: c1

    Geometry (in Angstrom), charge = -2, multiplicity = 1:

       Center              X                  Y                   Z               Mass
    ------------   -----------------  -----------------  -----------------  -----------------
         O            0.000000000000     0.000000000000     0.000000000000    15.994914619570
         H            0.588538000000     0.756918000000     0.000000000000     1.007825032230
         H            0.588538000000    -0.756918000000     0.000000000000     1.007825032230
         BR           3.563818000000     3.563818000000     0.000000000000    78.918337600000
         BR           3.563818000000    -3.563818000000     0.000000000000    78.918337600000

  Charge       = -2
  Multiplicity = 1
  Basis Set: AUG-CC-PVTZ
    Blend: AUG-CC-PVTZ
  Basis Set: (AUG-CC-PVTZ AUX)
    Blend: AUG-CC-PVTZ-JKFIT

    Orbital Energies [Eh]
    ---------------------

    Doubly Occupied:

       1A   -489.655807     2A   -489.655807     3A    -64.795887
       4A    -64.795887     5A    -58.150366     6A    -58.150366
       7A    -58.150356     8A    -58.150356     9A    -58.150346
      10A    -58.150346    11A    -20.351352    12A     -9.468274
      13A     -9.468274    14A     -7.075671    15A     -7.075671
      16A     -7.075613    17A     -7.075613    18A     -7.075553
      19A     -7.075553    20A     -2.817361    21A     -2.817361
      22A     -2.817354    23A     -2.817354    24A     -2.817280
      25A     -2.817280    26A     -2.817207    27A     -2.817207
      28A     -2.817196    29A     -2.817196    30A     -1.137455
      31A     -0.621399    32A     -0.621392    33A     -0.500920
      34A     -0.373500    35A     -0.296743    36A     -0.075412
      37A     -0.075184    38A     -0.074759    39A     -0.074672
      40A     -0.074481    41A     -0.073901

  @DF-RHF Final Energy: -5221.07057258321493

   => Energetics <=

    Nuclear Repulsion Energy =            175.0424170756759850
    One-Electron Energy =               -7648.7865422059885532
    Two-Electron Energy =                2252.6735525470976427
    Total Energy =                      -5221.0705725832149255
 Dipole X            :       -486.1251852          473.6491499          -12.4760353
 Dipole Y            :          0.0000000            0.0000000            0.0000000
 Dipole Z            :         -0.0000000            0.0000000           -0.0000000
 Magnitude           :                                                   12.4760353
  Basis Set: (AUG-CC-PVTZ AUX)
    Blend: AUG-CC-PVTZ-RI
	 Reference Energy          =   -5221.0705725832149255 [Eh]
	 Singles Energy            =      -0.0000000000000000 [Eh]
	 Same-Spin Energy          =      -0.2423171096735165 [Eh]
	 Opposite-Spin Energy      =      -0.6177950161810980 [Eh]
	 Correlation Energy        =      -0.8601121258546145 [Eh]
	 Total Energy              =   -5221.9306847090692827 [Eh]

	 ================> DF-SCS-MP2 Energies <==================
	-----------------------------------------------------------
	 SCS Same-Spin Scale       =       0.3333333333333333 [-]
	 SCS Opposite-Spin Scale   =       1.2000000000000000 [-]
	 SCS Same-Spin Energy      =      -0.0807723698911722 [Eh]
	 SCS Opposite-Spin Energy  =      -0.7413540194173176 [Eh]
	 SCS Correlation Energy    =      -0.8221263893084898 [Eh]
	 SCS Total Energy          =   -5221.8926989725232488 [Eh]
	-----------------------------------------------------------

*** Psi4 exiting successfully. Buy a developer a beer!
