                               Psi4 1.8.2 release

  ==> Input File <==

--------------------------------------------------------------------------
MEMORY 60 GB

molecule dimer {
0 1
O      0.000000     0.000000     0.000000
H      0.588538     0.756918     0.000000
H      0.588538    -0.756918     0.000000
--
-1 1
Br     3.326230     3.326230     0.000000
--
-1 1
Br     3.326230    -3.326230     0.000000

units ang
no_reorient
no_com
symmetry c1
}

set {
basis        aug-cc-pVTZ
scf_type     df
}

energy("mp2", bsse_type="cp")
--------------------------------------------------------------------------

                               Psi4 1.8.2 release
    Molecular point group: c1
  Charge       = 0
  Multiplicity = 1
  Basis Set: AUG-CC-PVTZ
    Blend: AUG-CC-PVTZ
  Basis Set: (AUG-CC-PVTZ AUX)
    Blend: AUG-CC-PVTZ-JKFIT
  @DF-RHF Final Energy:   -76.06049497510116
    Total Energy =                        -76.0604949751011645
 Dipole X            :         -1.4419186            2.2243513            0.7824327
 Dipole Y            :         -0.0000000            0.0000000           -0.0000000
 Dipole Z            :         -0.0000000            0.0000000           -0.0000000
 Magnitude           :                                                    0.7824327
  Basis Set: (AUG-CC-PVTZ AUX)
    Blend: AUG-CC-PVTZ-RI
	 Reference Energy          =     -76.0604949751011645 [Eh]
	 Singles Energy            =      -0.0000000000000000 [Eh]
	 Same-Spin Energy          =      -0.0683765159374843 [Eh]
	 Opposite-Spin Energy      =      -0.2153454736562618 [Eh]
	 Correlation Energy        =      -0.2837219895937461 [Eh]
	 Total Energy              =     -76.3442169646949083 [Eh]
	 SCS Total Energy          =     -76.3417017154678348 [Eh]
                               Psi4 1.8.2 release
    Molecular point group: c1
  Basis Set: AUG-CC-PVTZ
    Blend: AUG-CC-PVTZ
  Basis Set: (AUG-CC-PVTZ AUX)
    Blend: AUG-CC-PVTZ-JKFIT
  @DF-RHF Final Energy: -2572.53367054550517
    Total Energy =                      -2572.5336705455047195
  Basis Set: (AUG-CC-PVTZ AUX)
                               Psi4 1.8.2 release
  @DF-RHF Final Energy: -5144.98935987753975
    Total Energy =                      -5144.9893598775397550
                               Psi4 1.8.2 release
  @DF-RHF Final Energy: -2648.60401123158908
    Total Energy =                      -2648.6040112315886290
                               Psi4 1.8.2 release
  @DF-RHF Final Energy: -2648.60401123181055
    Total Energy =                      -2648.6040112318105457
                               Psi4 1.8.2 release
  Multiplicity = 1
  @DF-RHF Final Energy: -2572.53367054529099
    Total Energy =                      -2572.5336705452905335
	 Singles Energy            =      -0.0000000000000000 [Eh]
	 Same-Spin Energy          =      -0.0868815277978848 [Eh]
	 Opposite-Spin Energy      =      -0.2014409121714794 [Eh]
	 Correlation Energy        =      -0.2883224399693642 [Eh]
	 Total Energy              =   -2572.8219929852602945 [Eh]
	 SCS Total Energy          =   -2572.8043601491626760 [Eh]
                               Psi4 1.8.2 release
    Molecular point group: c1

    Geometry (in Bohr), charge = -2, multiplicity = 1:

       Center              X                  Y                   Z               Mass
    ------------   -----------------  -----------------  -----------------  -----------------
         O            0.000000000000     0.000000000000     0.000000000000    15.994914619570
         H            1.112175634425     1.430367719429     0.000000000000     1.007825032230
         H            1.112175634425    -1.430367719429     0.000000000000     1.007825032230
         BR           6.285663730282     6.285663730282     0.000000000000    78.918337600000
         BR           6.285663730282    -6.285663730282     0.000000000000    78.918337600000

  Charge       = -2
  Multiplicity = 1
  Basis Set: AUG-CC-PVTZ
    Blend: AUG-CC-PVTZ
  Basis Set: (AUG-CC-PVTZ AUX)
    Blend: AUG-CC-PVTZ-JKFIT

    Orbital Energies [Eh]
    ---------------------

    Doubly Occupied:

       1A   -489.652292     2A   -489.652292     3A    -64.792361
       4A    -64.792361     5A    -58.146844     6A    -58.146844
       7A    -58.146831     8A    -58.146831     9A    -58.146820
      10A    -58.146820    11A    -20.335493    12A     -9.464732
      13A     -9.464731    14A     -7.072143    15A     -7.072143
      16A     -7.072069    17A     -7.072069    18A     -7.072000
      19A     -7.072000    20A     -2.813838    21A     -2.813838
      22A     -2.813826    23A     -2.813826    24A     -2.813742
      25A     -2.813742    26A     -2.813649    27A     -2.813649
      28A     -2.813637    29A     -2.813637    30A     -1.121748
      31A     -0.617902    32A     -0.617887    33A     -0.485196
      34A     -0.358355    35A     -0.281307    36A     -0.072263
      37A     -0.071824    38A     -0.071236    39A     -0.071078
      40A     -0.071007    41A     -0.070033

  @DF-RHF Final Energy: -5221.06821804088122

   => Energetics <=

    Nuclear Repulsion Energy =            187.0226435650254757
    One-Electron Energy =               -7673.1519275944056062
    Two-Electron Energy =                2265.0610659884982852
    Total Energy =                      -5221.0682180408821296
 Dipole X            :       -453.7610999          442.2208124          -11.5402876
 Dipole Y            :         -0.0000000            0.0000000           -0.0000000
 Dipole Z            :          0.0000000            0.0000000            0.0000000
 Magnitude           :                                                   11.5402876
  Basis Set: (AUG-CC-PVTZ AUX)
    Blend: AUG-CC-PVTZ-RI
	 Reference Energy          =   -5221.0682180408812201 [Eh]
	 Singles Energy            =      -0.0000000000000000 [Eh]
	 Same-Spin Energy          =      -0.2426761753791164 [Eh]
	 Opposite-Spin Energy      =      -0.6183033098120715 [Eh]
	 Correlation Energy        =      -0.8609794851911878 [Eh]
	 Total Energy              =   -5221.9291975260721301 [Eh]

	 ================> DF-SCS-MP2 Energies <==================
	-----------------------------------------------------------
	 SCS Same-Spin Scale       =       0.3333333333333333 [-]
	 SCS Opposite-Spin Scale   =       1.2000000000000000 [-]
	 SCS Same-Spin Energy      =      -0.0808920584597055 [Eh]
	 SCS Opposite-Spin Energy  =      -0.7419639717744858 [Eh]
	 SCS Correlation Energy    =      -0.8228560302341913 [Eh]
	 SCS Total Energy          =   -5221.8910740711153267 [Eh]
	-----------------------------------------------------------

*** Psi4 exiting successfully. Buy a developer a beer!
