                               Psi4 1.8.2 release

  ==> Input File <==

--------------------------------------------------------------------------
MEMORY 60 GB

molecule dimer {
-1 1
Gh(O)      0.000000     0.000000     0.000000
Gh(H)      0.588538     0.756918     0.000000
Gh(H)      0.588538    -0.756918     0.000000
Br         3.563818     3.563818     0.000000
Gh(Br)     3.563818    -3.563818     0.000000

units ang
no_reorient
no_com
symmetry c1
}

set {
basis        aug-cc-pVTZ
scf_type     df
}

energy("mp2")
--------------------------------------------------------------------------

    Molecular point group: c1

    Geometry (in Angstrom), charge = -1, multiplicity = 1:

       Center              X                  Y                   Z               Mass
    ------------   -----------------  -----------------  -----------------  -----------------
      Gh(O)           0.000000000000     0.000000000000     0.000000000000    15.994914619570
      Gh(H)           0.588538000000     0.756918000000     0.000000000000     1.007825032230
      Gh(H)           0.588538000000    -0.756918000000     0.000000000000     1.007825032230
         BR           3.563818000000     3.563818000000     0.000000000000    78.918337600000
      Gh(BR)          3.563818000000    -3.563818000000     0.000000000000    78.918337600000

  Charge       = -1
  Multiplicity = 1
  Basis Set: AUG-CC-PVTZ
    Blend: AUG-CC-PVTZ
  Basis Set: (AUG-CC-PVTZ AUX)
    Blend: AUG-CC-PVTZ-JKFIT

    Orbital Energies [Eh]
    ---------------------

    Doubly Occupied:

       1A   -489.720382     2A    -64.860466     3A    -58.214935
       4A    -58.214935     5A    -58.214934     6A     -9.532857
       7A     -7.140198     8A     -7.140198     9A     -7.140195
      10A     -2.881865    11A     -2.881864    12A     -2.881864
      13A     -2.881864    14A     -2.881858    15A     -0.686000
      16A     -0.139337    17A     -0.139336    18A     -0.139336

  @DF-RHF Final Energy: -2572.53366945010066

   => Energetics <=

    Nuclear Repulsion Energy =              0.0000000000000000
    One-Electron Energy =               -3593.6824843222775598
    Two-Electron Energy =                1021.1488148721768994
    Total Energy =                      -2572.5336694501006605
 Dipole X            :       -242.4469583          235.7123993           -6.7345589
 Dipole Y            :       -242.4470029          235.7123993           -6.7346036
 Dipole Z            :         -0.0000000            0.0000000           -0.0000000
 Magnitude           :                                                    9.5241362
  Basis Set: (AUG-CC-PVTZ AUX)
    Blend: AUG-CC-PVTZ-RI
	 Reference Energy          =   -2572.5336694501006605 [Eh]
	 Singles Energy            =      -0.0000000000000000 [Eh]
	 Same-Spin Energy          =      -0.0868182067297651 [Eh]
	 Opposite-Spin Energy      =      -0.2012980812538157 [Eh]
	 Correlation Energy        =      -0.2881162879835808 [Eh]
	 Total Energy              =   -2572.8217857380841451 [Eh]

	 ================> DF-SCS-MP2 Energies <==================
	-----------------------------------------------------------
	 SCS Same-Spin Scale       =       0.3333333333333333 [-]
	 SCS Opposite-Spin Scale   =       1.2000000000000000 [-]
	 SCS Same-Spin Energy      =      -0.0289394022432550 [Eh]
	 SCS Opposite-Spin Energy  =      -0.2415576975045788 [Eh]
	 SCS Correlation Energy    =      -0.2704970997478339 [Eh]
	 SCS Total Energy          =   -2572.8041665498485600 [Eh]
	-----------------------------------------------------------

*** Psi4 exiting successfully. Buy a developer a beer!
