                               Psi4 1.9 release

  ==> Input File <==

--------------------------------------------------------------------------
MEMORY 60 GB

molecule dimer {
0 1
O      0.000000     0.000000     0.000000
H      0.588538     0.756918     0.000000
H      0.588538    -0.756918     0.000000
--
-2 1
Br     3.326230     3.326230     0.000000
Br     3.326230    -3.326230     0.000000

units ang
no_reorient
no_com
symmetry c1
}

set {
basis        aug-cc-pVTZ
scf_type     df
}

energy("mp2", bsse_type="cp")
--------------------------------------------------------------------------

                               Psi4 1.9 release
    Molecular point group: c1
  Charge       = -2
  Multiplicity = 1
  Basis Set: AUG-CC-PVTZ
    Blend: AUG-CC-PVTZ
  Basis Set: (AUG-CC-PVTZ AUX)
    Blend: AUG-CC-PVTZ-JKFIT
  @DF-RHF Final Energy: -5144.98935987754430
    Total Energy =                      -5144.9893598775433929
 Dipole X            :       -452.5730423          439.9964611          -12.5765812
 Dipole Y            :          0.0000000            0.0000000            0.0000000
 Dipole Z            :          0.0000000            0.0000000            0.0000000
 Magnitude           :                                                   12.5765812
  Basis Set: (AUG-CC-PVTZ AUX)
    Blend: AUG-CC-PVTZ-RI
	 Reference Energy          =   -5144.9893598775443024 [Eh]
	 Singles Energy            =      -0.0000000000000000 [Eh]
	 Same-Spin Energy          =      -0.1738629838263409 [Eh]
	 Opposite-Spin Energy      =      -0.4030547134565078 [Eh]
	 Correlation Energy        =      -0.5769176972828487 [Eh]
	 Total Energy              =   -5145.5662775748269269 [Eh]
	 SCS Total Energy          =   -5145.5309798616344779 [Eh]
                               Psi4 1.9 release
    Molecular point group: c1
  Multiplicity = 1
  Basis Set: AUG-CC-PVTZ
    Blend: AUG-CC-PVTZ
  Basis Set: (AUG-CC-PVTZ AUX)
    Blend: AUG-CC-PVTZ-JKFIT
  @DF-RHF Final Energy:   -76.06049497509142
    Total Energy =                        -76.0604949750914159
  Basis Set: (AUG-CC-PVTZ AUX)
	 Singles Energy            =      -0.0000000000000000 [Eh]
	 Same-Spin Energy          =      -0.0683765159374576 [Eh]
	 Opposite-Spin Energy      =      -0.2153454736561944 [Eh]
	 Correlation Energy        =      -0.2837219895936519 [Eh]
	 Total Energy              =     -76.3442169646850743 [Eh]
	 SCS Total Energy          =     -76.3417017154580009 [Eh]
                               Psi4 1.9 release
    Molecular point group: c1

    Geometry (in Bohr), charge = -2, multiplicity = 1:

       Center              X                  Y                   Z               Mass
    ------------   -----------------  -----------------  -----------------  -----------------
         O            0.000000000000     0.000000000000     0.000000000000    15.994914619570
         H            1.112175634425     1.430367719429     0.000000000000     1.007825032230
         H            1.112175634425    -1.430367719429     0.000000000000     1.007825032230
         BR           6.285663730282     6.285663730282     0.000000000000    78.918337600000
         BR           6.285663730282    -6.285663730282     0.000000000000    78.918337600000

  Charge       = -2
  Multiplicity = 1
  Basis Set: AUG-CC-PVTZ
    Blend: AUG-CC-PVTZ
  Basis Set: (AUG-CC-PVTZ AUX)
    Blend: AUG-CC-PVTZ-JKFIT

    Orbital Energies [Eh]
    ---------------------

    Doubly Occupied:

       1A   -489.652292     2A   -489.652292     3A    -64.792361
       4A    -64.792361     5A    -58.146844     6A    -58.146844
       7A    -58.146831     8A    -58.146831     9A    -58.146820
      10A    -58.146820    11A    -20.335493    12A     -9.464732
      13A     -9.464731    14A     -7.072143    15A     -7.072143
      16A     -7.072069    17A     -7.072069    18A     -7.072000
      19A     -7.072000    20A     -2.813838    21A     -2.813838
      22A     -2.813826    23A     -2.813826    24A     -2.813742
      25A     -2.813742    26A     -2.813649    27A     -2.813649
      28A     -2.813637    29A     -2.813637    30A     -1.121748
      31A     -0.617902    32A     -0.617887    33A     -0.485196
      34A     -0.358355    35A     -0.281307    36A     -0.072263
      37A     -0.071824    38A     -0.071236    39A     -0.071078
      40A     -0.071007    41A     -0.070033

  @DF-RHF Final Energy: -5221.06821804086485

   => Energetics <=

    Nuclear Repulsion Energy =            187.0226435650254757
    One-Electron Energy =               -7673.1519275943919638
    Two-Electron Energy =                2265.0610659885014684
    Total Energy =                      -5221.0682180408648492
 Dipole X            :       -453.7610999          442.2208124          -11.5402876
 Dipole Y            :         -0.0000000            0.0000000           -0.0000000
 Dipole Z            :          0.0000000            0.0000000            0.0000000
 Magnitude           :                                                   11.5402876
  Basis Set: (AUG-CC-PVTZ AUX)
    Blend: AUG-CC-PVTZ-RI
	 Reference Energy          =   -5221.0682180408648492 [Eh]
	 Singles Energy            =      -0.0000000000000000 [Eh]
	 Same-Spin Energy          =      -0.2426761753790995 [Eh]
	 Opposite-Spin Energy      =      -0.6183033098117141 [Eh]
	 Correlation Energy        =      -0.8609794851908137 [Eh]
	 Total Energy              =   -5221.9291975260557592 [Eh]

	 ================> DF-SCS-MP2 Energies <==================
	-----------------------------------------------------------
	 SCS Same-Spin Scale       =       0.3333333333333333 [-]
	 SCS Opposite-Spin Scale   =       1.2000000000000000 [-]
	 SCS Same-Spin Energy      =      -0.0808920584596998 [Eh]
	 SCS Opposite-Spin Energy  =      -0.7419639717740569 [Eh]
	 SCS Correlation Energy    =      -0.8228560302337568 [Eh]
	 SCS Total Energy          =   -5221.8910740710989558 [Eh]
	-----------------------------------------------------------

*** Psi4 exiting successfully. Buy a developer a beer!
