                               Psi4 1.8.2 release

  ==> Input File <==

--------------------------------------------------------------------------
MEMORY 60 GB

molecule dimer {
0 1
O      0.000000     0.000000     0.000000
H      0.588538     0.756918     0.000000
H      0.588538    -0.756918     0.000000
--
-1 1
Br     2.613467     2.613467     0.000000
--
-1 1
Br     2.613467    -2.613467     0.000000

units ang
no_reorient
no_com
symmetry c1
}

set {
basis        aug-cc-pVTZ
scf_type     df
}

energy("mp2", bsse_type="cp")
--------------------------------------------------------------------------

                               Psi4 1.8.2 release
    Molecular point group: c1
  Charge       = 0
  Multiplicity = 1
  Basis Set: AUG-CC-PVTZ
    Blend: AUG-CC-PVTZ
  Basis Set: (AUG-CC-PVTZ AUX)
    Blend: AUG-CC-PVTZ-JKFIT
  @DF-RHF Final Energy:   -76.06051592593306
    Total Energy =                        -76.0605159259330605
 Dipole X            :         -1.4421666            2.2243513            0.7821847
 Dipole Y            :         -0.0000000            0.0000000           -0.0000000
 Dipole Z            :          0.0000000            0.0000000            0.0000000
 Magnitude           :                                                    0.7821847
  Basis Set: (AUG-CC-PVTZ AUX)
    Blend: AUG-CC-PVTZ-RI
	 Reference Energy          =     -76.0605159259330605 [Eh]
	 Singles Energy            =      -0.0000000000000000 [Eh]
	 Same-Spin Energy          =      -0.0684092192061883 [Eh]
	 Opposite-Spin Energy      =      -0.2158943245302764 [Eh]
	 Correlation Energy        =      -0.2843035437364647 [Eh]
	 Total Energy              =     -76.3448194696695310 [Eh]
	 SCS Total Energy          =     -76.3423921884381258 [Eh]
                               Psi4 1.8.2 release
    Molecular point group: c1
  Basis Set: AUG-CC-PVTZ
    Blend: AUG-CC-PVTZ
  Basis Set: (AUG-CC-PVTZ AUX)
    Blend: AUG-CC-PVTZ-JKFIT
  @DF-RHF Final Energy: -2572.53367844653212
    Total Energy =                      -2572.5336784465321216
  Basis Set: (AUG-CC-PVTZ AUX)
                               Psi4 1.8.2 release
  @DF-RHF Final Energy: -5144.97016389070723
    Total Energy =                      -5144.9701638907081360
                               Psi4 1.8.2 release
  @DF-RHF Final Energy: -2648.60965476315869
    Total Energy =                      -2648.6096547631586873
                               Psi4 1.8.2 release
  @DF-RHF Final Energy: -2648.60965476279944
    Total Energy =                      -2648.6096547627994369
                               Psi4 1.8.2 release
  Multiplicity = 1
  @DF-RHF Final Energy: -2572.53367844687045
    Total Energy =                      -2572.5336784468704536
	 Singles Energy            =      -0.0000000000000000 [Eh]
	 Same-Spin Energy          =      -0.0874509677192501 [Eh]
	 Opposite-Spin Energy      =      -0.2028897149649835 [Eh]
	 Correlation Energy        =      -0.2903406826842335 [Eh]
	 Total Energy              =   -2572.8240191295544719 [Eh]
	 SCS Total Energy          =   -2572.8062964274013211 [Eh]
                               Psi4 1.8.2 release
    Molecular point group: c1

    Geometry (in Bohr), charge = -2, multiplicity = 1:

       Center              X                  Y                   Z               Mass
    ------------   -----------------  -----------------  -----------------  -----------------
         O            0.000000000000     0.000000000000     0.000000000000    15.994914619570
         H            1.112175634425     1.430367719429     0.000000000000     1.007825032230
         H            1.112175634425    -1.430367719429     0.000000000000     1.007825032230
         BR           4.938736867922     4.938736867922     0.000000000000    78.918337600000
         BR           4.938736867922    -4.938736867922     0.000000000000    78.918337600000

  Charge       = -2
  Multiplicity = 1
  Basis Set: AUG-CC-PVTZ
    Blend: AUG-CC-PVTZ
  Basis Set: (AUG-CC-PVTZ AUX)
    Blend: AUG-CC-PVTZ-JKFIT

    Orbital Energies [Eh]
    ---------------------

    Doubly Occupied:

       1A   -489.638691     2A   -489.638691     3A    -64.778750
       4A    -64.778750     5A    -58.133241     6A    -58.133241
       7A    -58.133234     8A    -58.133234     9A    -58.133215
      10A    -58.133215    11A    -20.269477    12A     -9.451049
      13A     -9.451048    14A     -7.058503    15A     -7.058503
      16A     -7.058411    17A     -7.058411    18A     -7.058304
      19A     -7.058304    20A     -2.800205    21A     -2.800204
      22A     -2.800194    23A     -2.800193    24A     -2.800062
      25A     -2.800061    26A     -2.799950    27A     -2.799950
      28A     -2.799928    29A     -2.799927    30A     -1.057939
      31A     -0.605511    32A     -0.605412    33A     -0.422275
      34A     -0.297907    35A     -0.218222    36A     -0.062218
      37A     -0.059407    38A     -0.058981    39A     -0.058257
      40A     -0.057343    41A     -0.054061

  @DF-RHF Final Energy: -5221.05777156736258

   => Energetics <=

    Nuclear Repulsion Energy =            236.2828041484981725
    One-Electron Energy =               -7773.2521923782278463
    Two-Electron Energy =                2315.9116166623662139
    Total Energy =                      -5221.0577715673634884
 Dipole X            :       -356.6324443          347.9359320           -8.6965123
 Dipole Y            :          0.0000000            0.0000000            0.0000000
 Dipole Z            :         -0.0000000            0.0000000           -0.0000000
 Magnitude           :                                                    8.6965123
  Basis Set: (AUG-CC-PVTZ AUX)
    Blend: AUG-CC-PVTZ-RI
	 Reference Energy          =   -5221.0577715673625789 [Eh]
	 Singles Energy            =      -0.0000000000000000 [Eh]
	 Same-Spin Energy          =      -0.2461283022647788 [Eh]
	 Opposite-Spin Energy      =      -0.6237192862749910 [Eh]
	 Correlation Energy        =      -0.8698475885397697 [Eh]
	 Total Energy              =   -5221.9276191559019935 [Eh]

	 ================> DF-SCS-MP2 Energies <==================
	-----------------------------------------------------------
	 SCS Same-Spin Scale       =       0.3333333333333333 [-]
	 SCS Opposite-Spin Scale   =       1.2000000000000000 [-]
	 SCS Same-Spin Energy      =      -0.0820427674215929 [Eh]
	 SCS Opposite-Spin Energy  =      -0.7484631435299891 [Eh]
	 SCS Correlation Energy    =      -0.8305059109515820 [Eh]
	 SCS Total Energy          =   -5221.8882774783141940 [Eh]
	-----------------------------------------------------------

*** Psi4 exiting successfully. Buy a developer a beer!
