                               Psi4 1.8.2 release

  ==> Input File <==

--------------------------------------------------------------------------
MEMORY 60 GB

molecule dimer {
-2 1
O          0.000000     0.000000     0.000000
H          0.588538     0.756918     0.000000
H          0.588538    -0.756918     0.000000
Br         3.326230     3.326230     0.000000
Br         3.326230    -3.326230     0.000000

units ang
no_reorient
no_com
symmetry c1
}

set {
basis        aug-cc-pVTZ
scf_type     df
}

energy("mp2")
--------------------------------------------------------------------------

    Molecular point group: c1

    Geometry (in Angstrom), charge = -2, multiplicity = 1:

       Center              X                  Y                   Z               Mass
    ------------   -----------------  -----------------  -----------------  -----------------
         O            0.000000000000     0.000000000000     0.000000000000    15.994914619570
         H            0.588538000000     0.756918000000     0.000000000000     1.007825032230
         H            0.588538000000    -0.756918000000     0.000000000000     1.007825032230
         BR           3.326230000000     3.326230000000     0.000000000000    78.918337600000
         BR           3.326230000000    -3.326230000000     0.000000000000    78.918337600000

  Charge       = -2
  Multiplicity = 1
  Basis Set: AUG-CC-PVTZ
    Blend: AUG-CC-PVTZ
  Basis Set: (AUG-CC-PVTZ AUX)
    Blend: AUG-CC-PVTZ-JKFIT

    Orbital Energies [Eh]
    ---------------------

    Doubly Occupied:

       1A   -489.652292     2A   -489.652292     3A    -64.792361
       4A    -64.792361     5A    -58.146844     6A    -58.146844
       7A    -58.146831     8A    -58.146831     9A    -58.146820
      10A    -58.146820    11A    -20.335493    12A     -9.464732
      13A     -9.464731    14A     -7.072143    15A     -7.072143
      16A     -7.072069    17A     -7.072069    18A     -7.072000
      19A     -7.072000    20A     -2.813838    21A     -2.813838
      22A     -2.813826    23A     -2.813826    24A     -2.813742
      25A     -2.813742    26A     -2.813649    27A     -2.813649
      28A     -2.813637    29A     -2.813637    30A     -1.121748
      31A     -0.617902    32A     -0.617887    33A     -0.485196
      34A     -0.358355    35A     -0.281307    36A     -0.072263
      37A     -0.071824    38A     -0.071236    39A     -0.071078
      40A     -0.071007    41A     -0.070033

  @DF-RHF Final Energy: -5221.06821804088213

   => Energetics <=

    Nuclear Repulsion Energy =            187.0226435650254757
    One-Electron Energy =               -7673.1519275944056062
    Two-Electron Energy =                2265.0610659884969209
    Total Energy =                      -5221.0682180408830391
 Dipole X            :       -453.7610999          442.2208124          -11.5402876
 Dipole Y            :         -0.0000000            0.0000000           -0.0000000
 Dipole Z            :          0.0000000            0.0000000            0.0000000
 Magnitude           :                                                   11.5402876
  Basis Set: (AUG-CC-PVTZ AUX)
    Blend: AUG-CC-PVTZ-RI
	 Reference Energy          =   -5221.0682180408821296 [Eh]
	 Singles Energy            =      -0.0000000000000000 [Eh]
	 Same-Spin Energy          =      -0.2426761753791196 [Eh]
	 Opposite-Spin Energy      =      -0.6183033098120805 [Eh]
	 Correlation Energy        =      -0.8609794851912000 [Eh]
	 Total Energy              =   -5221.9291975260730396 [Eh]

	 ================> DF-SCS-MP2 Energies <==================
	-----------------------------------------------------------
	 SCS Same-Spin Scale       =       0.3333333333333333 [-]
	 SCS Opposite-Spin Scale   =       1.2000000000000000 [-]
	 SCS Same-Spin Energy      =      -0.0808920584597065 [Eh]
	 SCS Opposite-Spin Energy  =      -0.7419639717744966 [Eh]
	 SCS Correlation Energy    =      -0.8228560302342032 [Eh]
	 SCS Total Energy          =   -5221.8910740711162362 [Eh]
	-----------------------------------------------------------

*** Psi4 exiting successfully. Buy a developer a beer!
