                               Psi4 1.8.2 release

  ==> Input File <==

--------------------------------------------------------------------------
MEMORY 60 GB

molecule dimer {
-1 1
Gh(O)      0.000000     0.000000     0.000000
Gh(H)      0.588538     0.756918     0.000000
Gh(H)      0.588538    -0.756918     0.000000
Gh(Br)     3.088642     3.088642     0.000000
Br         3.088642    -3.088642     0.000000

units ang
no_reorient
no_com
symmetry c1
}

set {
basis        aug-cc-pVTZ
scf_type     df
}

energy("mp2")
--------------------------------------------------------------------------

    Molecular point group: c1

    Geometry (in Angstrom), charge = -1, multiplicity = 1:

       Center              X                  Y                   Z               Mass
    ------------   -----------------  -----------------  -----------------  -----------------
      Gh(O)           0.000000000000     0.000000000000     0.000000000000    15.994914619570
      Gh(H)           0.588538000000     0.756918000000     0.000000000000     1.007825032230
      Gh(H)           0.588538000000    -0.756918000000     0.000000000000     1.007825032230
      Gh(BR)          3.088642000000     3.088642000000     0.000000000000    78.918337600000
         BR           3.088642000000    -3.088642000000     0.000000000000    78.918337600000

  Charge       = -1
  Multiplicity = 1
  Basis Set: AUG-CC-PVTZ
    Blend: AUG-CC-PVTZ
  Basis Set: (AUG-CC-PVTZ AUX)
    Blend: AUG-CC-PVTZ-JKFIT

    Orbital Energies [Eh]
    ---------------------

    Doubly Occupied:

       1A   -489.720450     2A    -64.860512     3A    -58.214984
       4A    -58.214984     5A    -58.214984     6A     -9.532869
       7A     -7.140212     8A     -7.140211     9A     -7.140207
      10A     -2.881880    11A     -2.881879    12A     -2.881879
      13A     -2.881879    14A     -2.881873    15A     -0.685999
      16A     -0.139339    17A     -0.139336    18A     -0.139335

  @DF-RHF Final Energy: -2572.53367174255072

   => Energetics <=

    Nuclear Repulsion Energy =              0.0000000000000000
    One-Electron Energy =               -3593.6817168634443078
    Two-Electron Energy =                1021.1480451208938121
    Total Energy =                      -2572.5336717425507231
 Dipole X            :       -210.1207945          204.2840618           -5.8367327
 Dipole Y            :        210.1208126         -204.2840618            5.8367508
 Dipole Z            :         -0.0000000            0.0000000           -0.0000000
 Magnitude           :                                                    8.2543993
  Basis Set: (AUG-CC-PVTZ AUX)
    Blend: AUG-CC-PVTZ-RI
	 Reference Energy          =   -2572.5336717425507231 [Eh]
	 Singles Energy            =      -0.0000000000000000 [Eh]
	 Same-Spin Energy          =      -0.0869789702192774 [Eh]
	 Opposite-Spin Energy      =      -0.2016753119098519 [Eh]
	 Correlation Energy        =      -0.2886542821291292 [Eh]
	 Total Energy              =   -2572.8223260246800237 [Eh]

	 ================> DF-SCS-MP2 Energies <==================
	-----------------------------------------------------------
	 SCS Same-Spin Scale       =       0.3333333333333333 [-]
	 SCS Opposite-Spin Scale   =       1.2000000000000000 [-]
	 SCS Same-Spin Energy      =      -0.0289929900730925 [Eh]
	 SCS Opposite-Spin Energy  =      -0.2420103742918223 [Eh]
	 SCS Correlation Energy    =      -0.2710033643649147 [Eh]
	 SCS Total Energy          =   -2572.8046751069155107 [Eh]
	-----------------------------------------------------------

*** Psi4 exiting successfully. Buy a developer a beer!
