                               Psi4 1.8.2 release

  ==> Input File <==

--------------------------------------------------------------------------
MEMORY 60 GB

molecule dimer {
0 1
O          0.000000     0.000000     0.000000
H          0.588538     0.756918     0.000000
H          0.588538    -0.756918     0.000000
Gh(Br)     3.088642     3.088642     0.000000
Gh(Br)     3.088642    -3.088642     0.000000

units ang
no_reorient
no_com
symmetry c1
}

set {
basis        aug-cc-pVTZ
scf_type     df
}

energy("mp2")
--------------------------------------------------------------------------

    Molecular point group: c1

    Geometry (in Angstrom), charge = 0, multiplicity = 1:

       Center              X                  Y                   Z               Mass
    ------------   -----------------  -----------------  -----------------  -----------------
         O            0.000000000000     0.000000000000     0.000000000000    15.994914619570
         H            0.588538000000     0.756918000000     0.000000000000     1.007825032230
         H            0.588538000000    -0.756918000000     0.000000000000     1.007825032230
      Gh(BR)          3.088642000000     3.088642000000     0.000000000000    78.918337600000
      Gh(BR)          3.088642000000    -3.088642000000     0.000000000000    78.918337600000

  Charge       = 0
  Multiplicity = 1
  Basis Set: AUG-CC-PVTZ
    Blend: AUG-CC-PVTZ
  Basis Set: (AUG-CC-PVTZ AUX)
    Blend: AUG-CC-PVTZ-JKFIT

    Orbital Energies [Eh]
    ---------------------

    Doubly Occupied:

       1A    -20.567611     2A     -1.352983     3A     -0.716516
       4A     -0.585131     5A     -0.510303

  @DF-RHF Final Energy:   -76.06049696059681

   => Energetics <=

    Nuclear Repulsion Energy =              9.1801978479270687
    One-Electron Energy =                -123.0162982626103059
    Two-Electron Energy =                  37.7756034540864434
    Total Energy =                        -76.0604969605967938
 Dipole X            :         -1.4419584            2.2243513            0.7823929
 Dipole Y            :         -0.0000000            0.0000000           -0.0000000
 Dipole Z            :          0.0000000            0.0000000            0.0000000
 Magnitude           :                                                    0.7823929
  Basis Set: (AUG-CC-PVTZ AUX)
    Blend: AUG-CC-PVTZ-RI
	 Reference Energy          =     -76.0604969605968080 [Eh]
	 Singles Energy            =      -0.0000000000000000 [Eh]
	 Same-Spin Energy          =      -0.0683826337226426 [Eh]
	 Opposite-Spin Energy      =      -0.2154564888275554 [Eh]
	 Correlation Energy        =      -0.2838391225501979 [Eh]
	 Total Energy              =     -76.3443360831469988 [Eh]

	 ================> DF-SCS-MP2 Energies <==================
	-----------------------------------------------------------
	 SCS Same-Spin Scale       =       0.3333333333333333 [-]
	 SCS Opposite-Spin Scale   =       1.2000000000000000 [-]
	 SCS Same-Spin Energy      =      -0.0227942112408809 [Eh]
	 SCS Opposite-Spin Energy  =      -0.2585477865930664 [Eh]
	 SCS Correlation Energy    =      -0.2813419978339473 [Eh]
	 SCS Total Energy          =     -76.3418389584307562 [Eh]
	-----------------------------------------------------------

*** Psi4 exiting successfully. Buy a developer a beer!
