                               Psi4 1.8.2 release

  ==> Input File <==

--------------------------------------------------------------------------
MEMORY 60 GB

molecule dimer {
0 1
O          0.000000     0.000000     0.000000
H          0.588538     0.756918     0.000000
H          0.588538    -0.756918     0.000000
Gh(Br)     3.563818     3.563818     0.000000
Gh(Br)     3.563818    -3.563818     0.000000

units ang
no_reorient
no_com
symmetry c1
}

set {
basis        aug-cc-pVTZ
scf_type     df
}

energy("mp2")
--------------------------------------------------------------------------

    Molecular point group: c1

    Geometry (in Angstrom), charge = 0, multiplicity = 1:

       Center              X                  Y                   Z               Mass
    ------------   -----------------  -----------------  -----------------  -----------------
         O            0.000000000000     0.000000000000     0.000000000000    15.994914619570
         H            0.588538000000     0.756918000000     0.000000000000     1.007825032230
         H            0.588538000000    -0.756918000000     0.000000000000     1.007825032230
      Gh(BR)          3.563818000000     3.563818000000     0.000000000000    78.918337600000
      Gh(BR)          3.563818000000    -3.563818000000     0.000000000000    78.918337600000

  Charge       = 0
  Multiplicity = 1
  Basis Set: AUG-CC-PVTZ
    Blend: AUG-CC-PVTZ
  Basis Set: (AUG-CC-PVTZ AUX)
    Blend: AUG-CC-PVTZ-JKFIT

    Orbital Energies [Eh]
    ---------------------

    Doubly Occupied:

       1A    -20.567606     2A     -1.352989     3A     -0.716521
       4A     -0.585134     5A     -0.510311

  @DF-RHF Final Energy:   -76.06049343031513

   => Energetics <=

    Nuclear Repulsion Energy =              9.1801978479270687
    One-Electron Energy =                -123.0162580672164694
    Two-Electron Energy =                  37.7755667889742668
    Total Energy =                        -76.0604934303151481
 Dipole X            :         -1.4419149            2.2243513            0.7824364
 Dipole Y            :         -0.0000000            0.0000000           -0.0000000
 Dipole Z            :         -0.0000000            0.0000000           -0.0000000
 Magnitude           :                                                    0.7824364
  Basis Set: (AUG-CC-PVTZ AUX)
    Blend: AUG-CC-PVTZ-RI
	 Reference Energy          =     -76.0604934303151339 [Eh]
	 Singles Energy            =      -0.0000000000000000 [Eh]
	 Same-Spin Energy          =      -0.0683742316692817 [Eh]
	 Opposite-Spin Energy      =      -0.2152964519217655 [Eh]
	 Correlation Energy        =      -0.2836706835910472 [Eh]
	 Total Energy              =     -76.3441641139061744 [Eh]

	 ================> DF-SCS-MP2 Energies <==================
	-----------------------------------------------------------
	 SCS Same-Spin Scale       =       0.3333333333333333 [-]
	 SCS Opposite-Spin Scale   =       1.2000000000000000 [-]
	 SCS Same-Spin Energy      =      -0.0227914105564272 [Eh]
	 SCS Opposite-Spin Energy  =      -0.2583557423061186 [Eh]
	 SCS Correlation Energy    =      -0.2811471528625458 [Eh]
	 SCS Total Energy          =     -76.3416405831776785 [Eh]
	-----------------------------------------------------------

*** Psi4 exiting successfully. Buy a developer a beer!
