                               Psi4 1.8.2 release

  ==> Input File <==

--------------------------------------------------------------------------
MEMORY 60 GB

molecule dimer {
-2 1
O          0.000000     0.000000     0.000000
H          0.588538     0.756918     0.000000
H          0.588538    -0.756918     0.000000
Br         2.851055     2.851055     0.000000
Br         2.851055    -2.851055     0.000000

units ang
no_reorient
no_com
symmetry c1
}

set {
basis        aug-cc-pVTZ
scf_type     df
}

energy("mp2")
--------------------------------------------------------------------------

    Molecular point group: c1

    Geometry (in Angstrom), charge = -2, multiplicity = 1:

       Center              X                  Y                   Z               Mass
    ------------   -----------------  -----------------  -----------------  -----------------
         O            0.000000000000     0.000000000000     0.000000000000    15.994914619570
         H            0.588538000000     0.756918000000     0.000000000000     1.007825032230
         H            0.588538000000    -0.756918000000     0.000000000000     1.007825032230
         BR           2.851055000000     2.851055000000     0.000000000000    78.918337600000
         BR           2.851055000000    -2.851055000000     0.000000000000    78.918337600000

  Charge       = -2
  Multiplicity = 1
  Basis Set: AUG-CC-PVTZ
    Blend: AUG-CC-PVTZ
  Basis Set: (AUG-CC-PVTZ AUX)
    Blend: AUG-CC-PVTZ-JKFIT

    Orbital Energies [Eh]
    ---------------------

    Doubly Occupied:

       1A   -489.643934     2A   -489.643934     3A    -64.783981
       4A    -64.783981     5A    -58.138472     6A    -58.138472
       7A    -58.138458     8A    -58.138458     9A    -58.138443
      10A    -58.138443    11A    -20.295404    12A     -9.456301
      13A     -9.456301    14A     -7.063742    15A     -7.063742
      16A     -7.063648    17A     -7.063648    18A     -7.063556
      19A     -7.063556    20A     -2.805446    21A     -2.805446
      22A     -2.805431    23A     -2.805431    24A     -2.805320
      25A     -2.805319    26A     -2.805198    27A     -2.805198
      28A     -2.805182    29A     -2.805181    30A     -1.082525
      31A     -0.609938    32A     -0.609873    33A     -0.446208
      34A     -0.320904    35A     -0.242668    36A     -0.065678
      37A     -0.064123    38A     -0.063217    39A     -0.063064
      40A     -0.062549    41A     -0.060398

  @DF-RHF Final Energy: -5221.06256560532074

   => Energetics <=

    Nuclear Repulsion Energy =            217.0750562976492120
    One-Electron Energy =               -7734.2337047550308853
    Two-Electron Energy =                2296.0960828520601353
    Total Energy =                      -5221.0625656053216517
 Dipole X            :       -389.0141047          379.3642696           -9.6498352
 Dipole Y            :          0.0000000            0.0000000            0.0000000
 Dipole Z            :          0.0000000            0.0000000            0.0000000
 Magnitude           :                                                    9.6498352
  Basis Set: (AUG-CC-PVTZ AUX)
    Blend: AUG-CC-PVTZ-RI
	 Reference Energy          =   -5221.0625656053207422 [Eh]
	 Singles Energy            =      -0.0000000000000000 [Eh]
	 Same-Spin Energy          =      -0.2443091710834210 [Eh]
	 Opposite-Spin Energy      =      -0.6208460669655776 [Eh]
	 Correlation Energy        =      -0.8651552380489986 [Eh]
	 Total Energy              =   -5221.9277208433695705 [Eh]

	 ================> DF-SCS-MP2 Energies <==================
	-----------------------------------------------------------
	 SCS Same-Spin Scale       =       0.3333333333333333 [-]
	 SCS Opposite-Spin Scale   =       1.2000000000000000 [-]
	 SCS Same-Spin Energy      =      -0.0814363903611403 [Eh]
	 SCS Opposite-Spin Energy  =      -0.7450152803586931 [Eh]
	 SCS Correlation Energy    =      -0.8264516707198335 [Eh]
	 SCS Total Energy          =   -5221.8890172760402493 [Eh]
	-----------------------------------------------------------

*** Psi4 exiting successfully. Buy a developer a beer!
