                               Psi4 1.8.2 release

  ==> Input File <==

--------------------------------------------------------------------------
MEMORY 60 GB

molecule dimer {
-2 1
O          0.000000     0.000000     0.000000
H          0.588538     0.756918     0.000000
H          0.588538    -0.756918     0.000000
Br         2.375879     2.375879     0.000000
Br         2.375879    -2.375879     0.000000

units ang
no_reorient
no_com
symmetry c1
}

set {
basis        aug-cc-pVTZ
scf_type     df
}

energy("mp2")
--------------------------------------------------------------------------

    Molecular point group: c1

    Geometry (in Angstrom), charge = -2, multiplicity = 1:

       Center              X                  Y                   Z               Mass
    ------------   -----------------  -----------------  -----------------  -----------------
         O            0.000000000000     0.000000000000     0.000000000000    15.994914619570
         H            0.588538000000     0.756918000000     0.000000000000     1.007825032230
         H            0.588538000000    -0.756918000000     0.000000000000     1.007825032230
         BR           2.375879000000     2.375879000000     0.000000000000    78.918337600000
         BR           2.375879000000    -2.375879000000     0.000000000000    78.918337600000

  Charge       = -2
  Multiplicity = 1
  Basis Set: AUG-CC-PVTZ
    Blend: AUG-CC-PVTZ
  Basis Set: (AUG-CC-PVTZ AUX)
    Blend: AUG-CC-PVTZ-JKFIT

    Orbital Energies [Eh]
    ---------------------

    Doubly Occupied:

       1A   -489.632209     2A   -489.632209     3A    -64.772347
       4A    -64.772347     5A    -58.126835     6A    -58.126835
       7A    -58.126832     8A    -58.126832     9A    -58.126806
      10A    -58.126806    11A    -20.237786    12A     -9.444690
      13A     -9.444689    14A     -7.052164    15A     -7.052164
      16A     -7.052075    17A     -7.052075    18A     -7.051953
      19A     -7.051953    20A     -2.793854    21A     -2.793853
      22A     -2.793842    23A     -2.793841    24A     -2.793691
      25A     -2.793689    26A     -2.793604    27A     -2.793603
      28A     -2.793568    29A     -2.793567    30A     -1.029484
      31A     -0.601112    32A     -0.601106    33A     -0.395622
      34A     -0.272194    35A     -0.189419    36A     -0.058003
      37A     -0.054839    38A     -0.053182    39A     -0.052804
      40A     -0.051268    41A     -0.046024

  @DF-RHF Final Energy: -5221.04782549781248

   => Energetics <=

    Nuclear Repulsion Energy =            259.4284254103100693
    One-Electron Energy =               -7820.2489452893541966
    Two-Electron Energy =                2339.7726943812308491
    Total Energy =                      -5221.0478254978133918
 Dipole X            :       -324.2499287          316.5075945           -7.7423342
 Dipole Y            :          0.0000000            0.0000000            0.0000000
 Dipole Z            :          0.0000000            0.0000000            0.0000000
 Magnitude           :                                                    7.7423342
  Basis Set: (AUG-CC-PVTZ AUX)
    Blend: AUG-CC-PVTZ-RI
	 Reference Energy          =   -5221.0478254978124824 [Eh]
	 Singles Energy            =      -0.0000000000000000 [Eh]
	 Same-Spin Energy          =      -0.2491846184470542 [Eh]
	 Opposite-Spin Energy      =      -0.6282989987794051 [Eh]
	 Correlation Energy        =      -0.8774836172264593 [Eh]
	 Total Energy              =   -5221.9253091150385444 [Eh]

	 ================> DF-SCS-MP2 Energies <==================
	-----------------------------------------------------------
	 SCS Same-Spin Scale       =       0.3333333333333333 [-]
	 SCS Opposite-Spin Scale   =       1.2000000000000000 [-]
	 SCS Same-Spin Energy      =      -0.0830615394823514 [Eh]
	 SCS Opposite-Spin Energy  =      -0.7539587985352861 [Eh]
	 SCS Correlation Energy    =      -0.8370203380176375 [Eh]
	 SCS Total Energy          =   -5221.8848458358297648 [Eh]
	-----------------------------------------------------------

*** Psi4 exiting successfully. Buy a developer a beer!
