                               Psi4 1.9 release

  ==> Input File <==

--------------------------------------------------------------------------
MEMORY 60 GB

molecule dimer {
0 1
O      0.000000     0.000000     0.000000
H      0.588538     0.756918     0.000000
H      0.588538    -0.756918     0.000000
--
-2 1
Br     2.613467     2.613467     0.000000
Br     2.613467    -2.613467     0.000000

units ang
no_reorient
no_com
symmetry c1
}

set {
basis        aug-cc-pVTZ
scf_type     df
}

energy("mp2", bsse_type="cp")
--------------------------------------------------------------------------

                               Psi4 1.9 release
    Molecular point group: c1
  Charge       = -2
  Multiplicity = 1
  Basis Set: AUG-CC-PVTZ
    Blend: AUG-CC-PVTZ
  Basis Set: (AUG-CC-PVTZ AUX)
    Blend: AUG-CC-PVTZ-JKFIT
  @DF-RHF Final Energy: -5144.97016389101100
    Total Energy =                      -5144.9701638910119073
 Dipole X            :       -355.5952296          345.7115808           -9.8836488
 Dipole Y            :          0.0000000            0.0000000            0.0000000
 Dipole Z            :         -0.0000000            0.0000000           -0.0000000
 Magnitude           :                                                    9.8836488
  Basis Set: (AUG-CC-PVTZ AUX)
    Blend: AUG-CC-PVTZ-RI
	 Reference Energy          =   -5144.9701638910109978 [Eh]
	 Singles Energy            =      -0.0000000000000000 [Eh]
	 Same-Spin Energy          =      -0.1753033455419005 [Eh]
	 Opposite-Spin Energy      =      -0.4063513007350788 [Eh]
	 Correlation Energy        =      -0.5816546462769793 [Eh]
	 Total Energy              =   -5145.5518185372875450 [Eh]
	 SCS Total Energy          =   -5145.5162199004071226 [Eh]
                               Psi4 1.9 release
    Molecular point group: c1
  Multiplicity = 1
  Basis Set: AUG-CC-PVTZ
    Blend: AUG-CC-PVTZ
  Basis Set: (AUG-CC-PVTZ AUX)
    Blend: AUG-CC-PVTZ-JKFIT
  @DF-RHF Final Energy:   -76.06051592593472
    Total Energy =                        -76.0605159259347374
  Basis Set: (AUG-CC-PVTZ AUX)
	 Singles Energy            =      -0.0000000000000000 [Eh]
	 Same-Spin Energy          =      -0.0684092192061953 [Eh]
	 Opposite-Spin Energy      =      -0.2158943245303539 [Eh]
	 Correlation Energy        =      -0.2843035437365492 [Eh]
	 Total Energy              =     -76.3448194696712790 [Eh]
	 SCS Total Energy          =     -76.3423921884398737 [Eh]
                               Psi4 1.9 release
    Molecular point group: c1

    Geometry (in Bohr), charge = -2, multiplicity = 1:

       Center              X                  Y                   Z               Mass
    ------------   -----------------  -----------------  -----------------  -----------------
         O            0.000000000000     0.000000000000     0.000000000000    15.994914619570
         H            1.112175634425     1.430367719429     0.000000000000     1.007825032230
         H            1.112175634425    -1.430367719429     0.000000000000     1.007825032230
         BR           4.938736867922     4.938736867922     0.000000000000    78.918337600000
         BR           4.938736867922    -4.938736867922     0.000000000000    78.918337600000

  Charge       = -2
  Multiplicity = 1
  Basis Set: AUG-CC-PVTZ
    Blend: AUG-CC-PVTZ
  Basis Set: (AUG-CC-PVTZ AUX)
    Blend: AUG-CC-PVTZ-JKFIT

    Orbital Energies [Eh]
    ---------------------

    Doubly Occupied:

       1A   -489.638691     2A   -489.638691     3A    -64.778750
       4A    -64.778750     5A    -58.133241     6A    -58.133241
       7A    -58.133234     8A    -58.133234     9A    -58.133215
      10A    -58.133215    11A    -20.269477    12A     -9.451049
      13A     -9.451048    14A     -7.058503    15A     -7.058503
      16A     -7.058411    17A     -7.058411    18A     -7.058304
      19A     -7.058304    20A     -2.800205    21A     -2.800204
      22A     -2.800194    23A     -2.800193    24A     -2.800062
      25A     -2.800061    26A     -2.799950    27A     -2.799950
      28A     -2.799928    29A     -2.799927    30A     -1.057939
      31A     -0.605511    32A     -0.605412    33A     -0.422275
      34A     -0.297907    35A     -0.218222    36A     -0.062218
      37A     -0.059407    38A     -0.058981    39A     -0.058257
      40A     -0.057343    41A     -0.054061

  @DF-RHF Final Energy: -5221.05777156764270

   => Energetics <=

    Nuclear Repulsion Energy =            236.2828041484981725
    One-Electron Energy =               -7773.2521923784288447
    Two-Electron Energy =                2315.9116166622870878
    Total Energy =                      -5221.0577715676436128
 Dipole X            :       -356.6324443          347.9359320           -8.6965123
 Dipole Y            :          0.0000000            0.0000000            0.0000000
 Dipole Z            :         -0.0000000            0.0000000           -0.0000000
 Magnitude           :                                                    8.6965123
  Basis Set: (AUG-CC-PVTZ AUX)
    Blend: AUG-CC-PVTZ-RI
	 Reference Energy          =   -5221.0577715676427033 [Eh]
	 Singles Energy            =      -0.0000000000000000 [Eh]
	 Same-Spin Energy          =      -0.2461283022643175 [Eh]
	 Opposite-Spin Energy      =      -0.6237192862741567 [Eh]
	 Correlation Energy        =      -0.8698475885384742 [Eh]
	 Total Energy              =   -5221.9276191561812084 [Eh]

	 ================> DF-SCS-MP2 Energies <==================
	-----------------------------------------------------------
	 SCS Same-Spin Scale       =       0.3333333333333333 [-]
	 SCS Opposite-Spin Scale   =       1.2000000000000000 [-]
	 SCS Same-Spin Energy      =      -0.0820427674214392 [Eh]
	 SCS Opposite-Spin Energy  =      -0.7484631435289880 [Eh]
	 SCS Correlation Energy    =      -0.8305059109504271 [Eh]
	 SCS Total Energy          =   -5221.8882774785934089 [Eh]
	-----------------------------------------------------------

*** Psi4 exiting successfully. Buy a developer a beer!
