                               Psi4 1.8.2 release

  ==> Input File <==

--------------------------------------------------------------------------
MEMORY 60 GB

molecule dimer {
-1 1
Gh(O)      0.000000     0.000000     0.000000
Gh(H)      0.588538     0.756918     0.000000
Gh(H)      0.588538    -0.756918     0.000000
Gh(Br)     2.851055     2.851055     0.000000
Br         2.851055    -2.851055     0.000000

units ang
no_reorient
no_com
symmetry c1
}

set {
basis        aug-cc-pVTZ
scf_type     df
}

energy("mp2")
--------------------------------------------------------------------------

    Molecular point group: c1

    Geometry (in Angstrom), charge = -1, multiplicity = 1:

       Center              X                  Y                   Z               Mass
    ------------   -----------------  -----------------  -----------------  -----------------
      Gh(O)           0.000000000000     0.000000000000     0.000000000000    15.994914619570
      Gh(H)           0.588538000000     0.756918000000     0.000000000000     1.007825032230
      Gh(H)           0.588538000000    -0.756918000000     0.000000000000     1.007825032230
      Gh(BR)          2.851055000000     2.851055000000     0.000000000000    78.918337600000
         BR           2.851055000000    -2.851055000000     0.000000000000    78.918337600000

  Charge       = -1
  Multiplicity = 1
  Basis Set: AUG-CC-PVTZ
    Blend: AUG-CC-PVTZ
  Basis Set: (AUG-CC-PVTZ AUX)
    Blend: AUG-CC-PVTZ-JKFIT

    Orbital Energies [Eh]
    ---------------------

    Doubly Occupied:

       1A   -489.720515     2A    -64.860558     3A    -58.215034
       4A    -58.215034     5A    -58.215033     6A     -9.532882
       7A     -7.140228     8A     -7.140227     9A     -7.140219
      10A     -2.881897    11A     -2.881896    12A     -2.881896
      13A     -2.881895    14A     -2.881886    15A     -0.685998
      16A     -0.139338    17A     -0.139336    18A     -0.139335

  @DF-RHF Final Energy: -2572.53367450669475

   => Energetics <=

    Nuclear Repulsion Energy =              0.0000000000000000
    One-Electron Energy =               -3593.6809320010938791
    Two-Electron Energy =                1021.1472574943990139
    Total Energy =                      -2572.5336745066947515
 Dipole X            :       -193.9579044          188.5699592           -5.3879452
 Dipole Y            :        193.9577899         -188.5699592            5.3878308
 Dipole Z            :         -0.0000000            0.0000000           -0.0000000
 Magnitude           :                                                    7.6196243
  Basis Set: (AUG-CC-PVTZ AUX)
    Blend: AUG-CC-PVTZ-RI
	 Reference Energy          =   -2572.5336745066947515 [Eh]
	 Singles Energy            =      -0.0000000000000000 [Eh]
	 Same-Spin Energy          =      -0.0871492213421029 [Eh]
	 Opposite-Spin Energy      =      -0.2021070527483764 [Eh]
	 Correlation Energy        =      -0.2892562740904793 [Eh]
	 Total Energy              =   -2572.8229307807851001 [Eh]

	 ================> DF-SCS-MP2 Energies <==================
	-----------------------------------------------------------
	 SCS Same-Spin Scale       =       0.3333333333333333 [-]
	 SCS Opposite-Spin Scale   =       1.2000000000000000 [-]
	 SCS Same-Spin Energy      =      -0.0290497404473676 [Eh]
	 SCS Opposite-Spin Energy  =      -0.2425284632980517 [Eh]
	 SCS Correlation Energy    =      -0.2715782037454193 [Eh]
	 SCS Total Energy          =   -2572.8052527104400724 [Eh]
	-----------------------------------------------------------

*** Psi4 exiting successfully. Buy a developer a beer!
