                               Psi4 1.8.2 release

  ==> Input File <==

--------------------------------------------------------------------------
MEMORY 60 GB

molecule dimer {
-1 1
Gh(O)      0.000000     0.000000     0.000000
Gh(H)      0.588538     0.756918     0.000000
Gh(H)      0.588538    -0.756918     0.000000
Br         4.751758     4.751758     0.000000
Gh(Br)     4.751758    -4.751758     0.000000

units ang
no_reorient
no_com
symmetry c1
}

set {
basis        aug-cc-pVTZ
scf_type     df
}

energy("mp2")
--------------------------------------------------------------------------

    Molecular point group: c1

    Geometry (in Angstrom), charge = -1, multiplicity = 1:

       Center              X                  Y                   Z               Mass
    ------------   -----------------  -----------------  -----------------  -----------------
      Gh(O)           0.000000000000     0.000000000000     0.000000000000    15.994914619570
      Gh(H)           0.588538000000     0.756918000000     0.000000000000     1.007825032230
      Gh(H)           0.588538000000    -0.756918000000     0.000000000000     1.007825032230
         BR           4.751758000000     4.751758000000     0.000000000000    78.918337600000
      Gh(BR)          4.751758000000    -4.751758000000     0.000000000000    78.918337600000

  Charge       = -1
  Multiplicity = 1
  Basis Set: AUG-CC-PVTZ
    Blend: AUG-CC-PVTZ
  Basis Set: (AUG-CC-PVTZ AUX)
    Blend: AUG-CC-PVTZ-JKFIT

    Orbital Energies [Eh]
    ---------------------

    Doubly Occupied:

       1A   -489.720309     2A    -64.860413     3A    -58.214879
       4A    -58.214879     5A    -58.214878     6A     -9.532841
       7A     -7.140181     8A     -7.140181     9A     -7.140179
      10A     -2.881845    11A     -2.881845    12A     -2.881845
      13A     -2.881845    14A     -2.881844    15A     -0.686001
      16A     -0.139337    17A     -0.139337    18A     -0.139337

  @DF-RHF Final Energy: -2572.53366646637596

   => Energetics <=

    Nuclear Repulsion Energy =              0.0000000000000000
    One-Electron Energy =               -3593.6833705778171861
    Two-Electron Energy =                1021.1497041114407693
    Total Energy =                      -2572.5336664663764168
 Dipole X            :       -323.2628129          314.2832432           -8.9795697
 Dipole Y            :       -323.2627662          314.2832432           -8.9795230
 Dipole Z            :          0.0000000            0.0000000            0.0000000
 Magnitude           :                                                   12.6989962
  Basis Set: (AUG-CC-PVTZ AUX)
    Blend: AUG-CC-PVTZ-RI
	 Reference Energy          =   -2572.5336664663759620 [Eh]
	 Singles Energy            =      -0.0000000000000000 [Eh]
	 Same-Spin Energy          =      -0.0866773841929734 [Eh]
	 Opposite-Spin Energy      =      -0.2009962259907441 [Eh]
	 Correlation Energy        =      -0.2876736101837175 [Eh]
	 Total Energy              =   -2572.8213400765598635 [Eh]

	 ================> DF-SCS-MP2 Energies <==================
	-----------------------------------------------------------
	 SCS Same-Spin Scale       =       0.3333333333333333 [-]
	 SCS Opposite-Spin Scale   =       1.2000000000000000 [-]
	 SCS Same-Spin Energy      =      -0.0288924613976578 [Eh]
	 SCS Opposite-Spin Energy  =      -0.2411954711888930 [Eh]
	 SCS Correlation Energy    =      -0.2700879325865507 [Eh]
	 SCS Total Energy          =   -2572.8037543989626101 [Eh]
	-----------------------------------------------------------

*** Psi4 exiting successfully. Buy a developer a beer!
