                               Psi4 1.8.2 release

  ==> Input File <==

--------------------------------------------------------------------------
MEMORY 60 GB

molecule dimer {
0 1
O      0.000000     0.000000     0.000000
H      0.588538     0.756918     0.000000
H      0.588538    -0.756918     0.000000
--
-1 1
Br     4.751758     4.751758     0.000000
--
-1 1
Br     4.751758    -4.751758     0.000000

units ang
no_reorient
no_com
symmetry c1
}

set {
basis        aug-cc-pVTZ
scf_type     df
}

energy("mp2", bsse_type="cp")
--------------------------------------------------------------------------

                               Psi4 1.8.2 release
    Molecular point group: c1
  Charge       = 0
  Multiplicity = 1
  Basis Set: AUG-CC-PVTZ
    Blend: AUG-CC-PVTZ
  Basis Set: (AUG-CC-PVTZ AUX)
    Blend: AUG-CC-PVTZ-JKFIT
  @DF-RHF Final Energy:   -76.06048253167744
    Total Energy =                        -76.0604825316774367
 Dipole X            :         -1.4421252            2.2243513            0.7822261
 Dipole Y            :         -0.0000000            0.0000000           -0.0000000
 Dipole Z            :          0.0000000            0.0000000            0.0000000
 Magnitude           :                                                    0.7822261
  Basis Set: (AUG-CC-PVTZ AUX)
    Blend: AUG-CC-PVTZ-RI
	 Reference Energy          =     -76.0604825316774367 [Eh]
	 Singles Energy            =      -0.0000000000000000 [Eh]
	 Same-Spin Energy          =      -0.0683679829752924 [Eh]
	 Opposite-Spin Energy      =      -0.2152505542980448 [Eh]
	 Correlation Energy        =      -0.2836185372733371 [Eh]
	 Total Energy              =     -76.3441010689507777 [Eh]
	 SCS Total Energy          =     -76.3415725244935146 [Eh]
                               Psi4 1.8.2 release
    Molecular point group: c1
  Basis Set: AUG-CC-PVTZ
    Blend: AUG-CC-PVTZ
  Basis Set: (AUG-CC-PVTZ AUX)
    Blend: AUG-CC-PVTZ-JKFIT
  @DF-RHF Final Energy: -2572.53366646637733
    Total Energy =                      -2572.5336664663773263
  Basis Set: (AUG-CC-PVTZ AUX)
                               Psi4 1.8.2 release
  @DF-RHF Final Energy: -5145.01201258734272
    Total Energy =                      -5145.0120125873418147
                               Psi4 1.8.2 release
  @DF-RHF Final Energy: -2648.59840126061090
    Total Energy =                      -2648.5984012606113538
                               Psi4 1.8.2 release
  @DF-RHF Final Energy: -2648.59840126074505
    Total Energy =                      -2648.5984012607450495
                               Psi4 1.8.2 release
  Multiplicity = 1
  @DF-RHF Final Energy: -2572.53366646623272
    Total Energy =                      -2572.5336664662327166
	 Singles Energy            =      -0.0000000000000000 [Eh]
	 Same-Spin Energy          =      -0.0866773841929313 [Eh]
	 Opposite-Spin Energy      =      -0.2009962259907418 [Eh]
	 Correlation Energy        =      -0.2876736101836731 [Eh]
	 Total Energy              =   -2572.8213400764161634 [Eh]
	 SCS Total Energy          =   -2572.8037543988193647 [Eh]
                               Psi4 1.8.2 release
    Molecular point group: c1

    Geometry (in Bohr), charge = -2, multiplicity = 1:

       Center              X                  Y                   Z               Mass
    ------------   -----------------  -----------------  -----------------  -----------------
         O            0.000000000000     0.000000000000     0.000000000000    15.994914619570
         H            1.112175634425     1.430367719429     0.000000000000     1.007825032230
         H            1.112175634425    -1.430367719429     0.000000000000     1.007825032230
         BR           8.979521234453     8.979521234453     0.000000000000    78.918337600000
         BR           8.979521234453    -8.979521234453     0.000000000000    78.918337600000

  Charge       = -2
  Multiplicity = 1
  Basis Set: AUG-CC-PVTZ
    Blend: AUG-CC-PVTZ
  Basis Set: (AUG-CC-PVTZ AUX)
    Blend: AUG-CC-PVTZ-JKFIT

    Orbital Energies [Eh]
    ---------------------

    Doubly Occupied:

       1A   -489.669393     2A   -489.669393     3A    -64.809495
       4A    -64.809495     5A    -58.163964     6A    -58.163964
       7A    -58.163961     8A    -58.163961     9A    -58.163956
      10A    -58.163956    11A    -20.406326    12A     -9.481920
      13A     -9.481920    14A     -7.089279    15A     -7.089279
      16A     -7.089264    17A     -7.089264    18A     -7.089232
      19A     -7.089232    20A     -2.830958    21A     -2.830958
      22A     -2.830957    23A     -2.830957    24A     -2.830917
      25A     -2.830917    26A     -2.830897    27A     -2.830897
      28A     -2.830889    29A     -2.830889    30A     -1.192130
      31A     -0.635053    32A     -0.635053    33A     -0.555698
      34A     -0.426552    35A     -0.350543    36A     -0.088543
      37A     -0.088534    38A     -0.088431    39A     -0.088427
      40A     -0.088202    41A     -0.088158

  @DF-RHF Final Energy: -5221.08078953658696

   => Energetics <=

    Nuclear Repulsion Energy =            133.2736945141932665
    One-Electron Energy =               -7563.7453308773410754
    Two-Electron Energy =                2209.3908468265599367
    Total Energy =                      -5221.0807895365878721
 Dipole X            :       -647.8660403          630.7908377          -17.0752026
 Dipole Y            :         -0.0000000            0.0000000           -0.0000000
 Dipole Z            :         -0.0000000            0.0000000           -0.0000000
 Magnitude           :                                                   17.0752026
  Basis Set: (AUG-CC-PVTZ AUX)
    Blend: AUG-CC-PVTZ-RI
	 Reference Energy          =   -5221.0807895365869626 [Eh]
	 Singles Energy            =      -0.0000000000000000 [Eh]
	 Same-Spin Energy          =      -0.2417123920698764 [Eh]
	 Opposite-Spin Energy      =      -0.6169980972341620 [Eh]
	 Correlation Energy        =      -0.8587104893040385 [Eh]
	 Total Energy              =   -5221.9395000258909931 [Eh]

	 ================> DF-SCS-MP2 Energies <==================
	-----------------------------------------------------------
	 SCS Same-Spin Scale       =       0.3333333333333333 [-]
	 SCS Opposite-Spin Scale   =       1.2000000000000000 [-]
	 SCS Same-Spin Energy      =      -0.0805707973566255 [Eh]
	 SCS Opposite-Spin Energy  =      -0.7403977166809944 [Eh]
	 SCS Correlation Energy    =      -0.8209685140376199 [Eh]
	 SCS Total Energy          =   -5221.9017580506242666 [Eh]
	-----------------------------------------------------------

*** Psi4 exiting successfully. Buy a developer a beer!
