                               Psi4 1.8.2 release

  ==> Input File <==

--------------------------------------------------------------------------
MEMORY 60 GB

molecule dimer {
-1 1
Gh(O)      0.000000     0.000000     0.000000
Gh(H)      0.588538     0.756918     0.000000
Gh(H)      0.588538    -0.756918     0.000000
Br         3.326230     3.326230     0.000000
Gh(Br)     3.326230    -3.326230     0.000000

units ang
no_reorient
no_com
symmetry c1
}

set {
basis        aug-cc-pVTZ
scf_type     df
}

energy("mp2")
--------------------------------------------------------------------------

    Molecular point group: c1

    Geometry (in Angstrom), charge = -1, multiplicity = 1:

       Center              X                  Y                   Z               Mass
    ------------   -----------------  -----------------  -----------------  -----------------
      Gh(O)           0.000000000000     0.000000000000     0.000000000000    15.994914619570
      Gh(H)           0.588538000000     0.756918000000     0.000000000000     1.007825032230
      Gh(H)           0.588538000000    -0.756918000000     0.000000000000     1.007825032230
         BR           3.326230000000     3.326230000000     0.000000000000    78.918337600000
      Gh(BR)          3.326230000000    -3.326230000000     0.000000000000    78.918337600000

  Charge       = -1
  Multiplicity = 1
  Basis Set: AUG-CC-PVTZ
    Blend: AUG-CC-PVTZ
  Basis Set: (AUG-CC-PVTZ AUX)
    Blend: AUG-CC-PVTZ-JKFIT

    Orbital Energies [Eh]
    ---------------------

    Doubly Occupied:

       1A   -489.720411     2A    -64.860486     3A    -58.214956
       4A    -58.214956     5A    -58.214956     6A     -9.532862
       7A     -7.140204     8A     -7.140203     9A     -7.140200
      10A     -2.881872    11A     -2.881871    12A     -2.881870
      13A     -2.881870    14A     -2.881865    15A     -0.685999
      16A     -0.139338    17A     -0.139336    18A     -0.139335

  @DF-RHF Final Energy: -2572.53367054550154

   => Energetics <=

    Nuclear Repulsion Energy =              0.0000000000000000
    One-Electron Energy =               -3593.6821519645127410
    Two-Electron Energy =                1021.1484814190110910
    Total Energy =                      -2572.5336705455015363
 Dipole X            :       -226.2838018          219.9982306           -6.2855712
 Dipole Y            :       -226.2838692          219.9982306           -6.2856387
 Dipole Z            :          0.0000000            0.0000000            0.0000000
 Magnitude           :                                                    8.8891878
  Basis Set: (AUG-CC-PVTZ AUX)
    Blend: AUG-CC-PVTZ-RI
	 Reference Energy          =   -2572.5336705455015363 [Eh]
	 Singles Energy            =      -0.0000000000000000 [Eh]
	 Same-Spin Energy          =      -0.0868815277977311 [Eh]
	 Opposite-Spin Energy      =      -0.2014409121712692 [Eh]
	 Correlation Energy        =      -0.2883224399690003 [Eh]
	 Total Energy              =   -2572.8219929854703878 [Eh]

	 ================> DF-SCS-MP2 Energies <==================
	-----------------------------------------------------------
	 SCS Same-Spin Scale       =       0.3333333333333333 [-]
	 SCS Opposite-Spin Scale   =       1.2000000000000000 [-]
	 SCS Same-Spin Energy      =      -0.0289605092659104 [Eh]
	 SCS Opposite-Spin Energy  =      -0.2417290946055231 [Eh]
	 SCS Correlation Energy    =      -0.2706896038714334 [Eh]
	 SCS Total Energy          =   -2572.8043601493727692 [Eh]
	-----------------------------------------------------------

*** Psi4 exiting successfully. Buy a developer a beer!
