                               Psi4 1.8.2 release

  ==> Input File <==

--------------------------------------------------------------------------
MEMORY 60 GB

molecule dimer {
0 1
O      0.000000     0.000000     0.000000
H      0.588538     0.756918     0.000000
H      0.588538    -0.756918     0.000000
--
-1 1
Br     3.088642     3.088642     0.000000
--
-1 1
Br     3.088642    -3.088642     0.000000

units ang
no_reorient
no_com
symmetry c1
}

set {
basis        aug-cc-pVTZ
scf_type     df
}

energy("mp2", bsse_type="cp")
--------------------------------------------------------------------------

                               Psi4 1.8.2 release
    Molecular point group: c1
  Charge       = 0
  Multiplicity = 1
  Basis Set: AUG-CC-PVTZ
    Blend: AUG-CC-PVTZ
  Basis Set: (AUG-CC-PVTZ AUX)
    Blend: AUG-CC-PVTZ-JKFIT
  @DF-RHF Final Energy:   -76.06049696059681
    Total Energy =                        -76.0604969605967938
 Dipole X            :         -1.4419584            2.2243513            0.7823929
 Dipole Y            :         -0.0000000            0.0000000           -0.0000000
 Dipole Z            :          0.0000000            0.0000000            0.0000000
 Magnitude           :                                                    0.7823929
  Basis Set: (AUG-CC-PVTZ AUX)
    Blend: AUG-CC-PVTZ-RI
	 Reference Energy          =     -76.0604969605968080 [Eh]
	 Singles Energy            =      -0.0000000000000000 [Eh]
	 Same-Spin Energy          =      -0.0683826337226410 [Eh]
	 Opposite-Spin Energy      =      -0.2154564888275533 [Eh]
	 Correlation Energy        =      -0.2838391225501943 [Eh]
	 Total Energy              =     -76.3443360831469988 [Eh]
	 SCS Total Energy          =     -76.3418389584307562 [Eh]
                               Psi4 1.8.2 release
    Molecular point group: c1
  Basis Set: AUG-CC-PVTZ
    Blend: AUG-CC-PVTZ
  Basis Set: (AUG-CC-PVTZ AUX)
    Blend: AUG-CC-PVTZ-JKFIT
  @DF-RHF Final Energy: -2572.53367174255573
    Total Energy =                      -2572.5336717425557254
  Basis Set: (AUG-CC-PVTZ AUX)
                               Psi4 1.8.2 release
  @DF-RHF Final Energy: -5144.98379203844797
    Total Energy =                      -5144.9837920384479730
                               Psi4 1.8.2 release
  @DF-RHF Final Energy: -2648.60579658497136
    Total Energy =                      -2648.6057965849709035
                               Psi4 1.8.2 release
  @DF-RHF Final Energy: -2648.60579658497954
    Total Energy =                      -2648.6057965849795437
                               Psi4 1.8.2 release
  Multiplicity = 1
  @DF-RHF Final Energy: -2572.53367174255118
    Total Energy =                      -2572.5336717425511779
	 Singles Energy            =      -0.0000000000000000 [Eh]
	 Same-Spin Energy          =      -0.0869789702192778 [Eh]
	 Opposite-Spin Energy      =      -0.2016753119098533 [Eh]
	 Correlation Energy        =      -0.2886542821291311 [Eh]
	 Total Energy              =   -2572.8223260246804784 [Eh]
	 SCS Total Energy          =   -2572.8046751069159654 [Eh]
                               Psi4 1.8.2 release
    Molecular point group: c1

    Geometry (in Bohr), charge = -2, multiplicity = 1:

       Center              X                  Y                   Z               Mass
    ------------   -----------------  -----------------  -----------------  -----------------
         O            0.000000000000     0.000000000000     0.000000000000    15.994914619570
         H            1.112175634425     1.430367719429     0.000000000000     1.007825032230
         H            1.112175634425    -1.430367719429     0.000000000000     1.007825032230
         BR           5.836687479586     5.836687479586     0.000000000000    78.918337600000
         BR           5.836687479586    -5.836687479586     0.000000000000    78.918337600000

  Charge       = -2
  Multiplicity = 1
  Basis Set: AUG-CC-PVTZ
    Blend: AUG-CC-PVTZ
  Basis Set: (AUG-CC-PVTZ AUX)
    Blend: AUG-CC-PVTZ-JKFIT

    Orbital Energies [Eh]
    ---------------------

    Doubly Occupied:

       1A   -489.648381     2A   -489.648381     3A    -64.788438
       4A    -64.788438     5A    -58.142925     6A    -58.142925
       7A    -58.142910     8A    -58.142910     9A    -58.142897
      10A    -58.142897    11A    -20.317077    12A     -9.460786
      13A     -9.460786    14A     -7.068212    15A     -7.068212
      16A     -7.068125    17A     -7.068125    18A     -7.068046
      19A     -7.068046    20A     -2.809913    21A     -2.809913
      22A     -2.809898    23A     -2.809898    24A     -2.809802
      25A     -2.809802    26A     -2.809689    27A     -2.809689
      28A     -2.809676    29A     -2.809676    30A     -1.103612
      31A     -0.614087    32A     -0.614054    33A     -0.467095
      34A     -0.340957    35A     -0.263471    36A     -0.069003
      37A     -0.068169    38A     -0.067360    39A     -0.067251
      40A     -0.067074    41A     -0.065604

  @DF-RHF Final Energy: -5221.06566457436747

   => Energetics <=

    Nuclear Repulsion Energy =            200.8742033122534849
    One-Electron Energy =               -7701.3113041970309496
    Two-Electron Energy =                2279.3714363104099903
    Total Energy =                      -5221.0656645743674744
 Dipole X            :       -421.3906546          410.7924748          -10.5981798
 Dipole Y            :         -0.0000000            0.0000000           -0.0000000
 Dipole Z            :          0.0000000            0.0000000            0.0000000
 Magnitude           :                                                   10.5981798
  Basis Set: (AUG-CC-PVTZ AUX)
    Blend: AUG-CC-PVTZ-RI
	 Reference Energy          =   -5221.0656645743674744 [Eh]
	 Singles Energy            =      -0.0000000000000000 [Eh]
	 Same-Spin Energy          =      -0.2432720203259083 [Eh]
	 Opposite-Spin Energy      =      -0.6192064218986911 [Eh]
	 Correlation Energy        =      -0.8624784422245994 [Eh]
	 Total Energy              =   -5221.9281430165920028 [Eh]

	 ================> DF-SCS-MP2 Energies <==================
	-----------------------------------------------------------
	 SCS Same-Spin Scale       =       0.3333333333333333 [-]
	 SCS Opposite-Spin Scale   =       1.2000000000000000 [-]
	 SCS Same-Spin Energy      =      -0.0810906734419694 [Eh]
	 SCS Opposite-Spin Energy  =      -0.7430477062784293 [Eh]
	 SCS Correlation Energy    =      -0.8241383797203987 [Eh]
	 SCS Total Energy          =   -5221.8898029540878269 [Eh]
	-----------------------------------------------------------

*** Psi4 exiting successfully. Buy a developer a beer!
