                               Psi4 1.8.2 release

  ==> Input File <==

--------------------------------------------------------------------------
MEMORY 60 GB

molecule dimer {
-1 1
Gh(O)      0.000000     0.000000     0.000000
Gh(H)      0.588538     0.756918     0.000000
Gh(H)      0.588538    -0.756918     0.000000
Br         2.613467     2.613467     0.000000
Gh(Br)     2.613467    -2.613467     0.000000

units ang
no_reorient
no_com
symmetry c1
}

set {
basis        aug-cc-pVTZ
scf_type     df
}

energy("mp2")
--------------------------------------------------------------------------

    Molecular point group: c1

    Geometry (in Angstrom), charge = -1, multiplicity = 1:

       Center              X                  Y                   Z               Mass
    ------------   -----------------  -----------------  -----------------  -----------------
      Gh(O)           0.000000000000     0.000000000000     0.000000000000    15.994914619570
      Gh(H)           0.588538000000     0.756918000000     0.000000000000     1.007825032230
      Gh(H)           0.588538000000    -0.756918000000     0.000000000000     1.007825032230
         BR           2.613467000000     2.613467000000     0.000000000000    78.918337600000
      Gh(BR)          2.613467000000    -2.613467000000     0.000000000000    78.918337600000

  Charge       = -1
  Multiplicity = 1
  Basis Set: AUG-CC-PVTZ
    Blend: AUG-CC-PVTZ
  Basis Set: (AUG-CC-PVTZ AUX)
    Blend: AUG-CC-PVTZ-JKFIT

    Orbital Energies [Eh]
    ---------------------

    Doubly Occupied:

       1A   -489.720640     2A    -64.860649     3A    -58.215131
       4A    -58.215131     5A    -58.215129     6A     -9.532911
       7A     -7.140260     8A     -7.140259     9A     -7.140245
      10A     -2.881931    11A     -2.881930    12A     -2.881929
      13A     -2.881927    14A     -2.881911    15A     -0.685998
      16A     -0.139338    17A     -0.139338    18A     -0.139337

  @DF-RHF Final Energy: -2572.53367844652894

   => Energetics <=

    Nuclear Repulsion Energy =              0.0000000000000000
    One-Electron Energy =               -3593.6793596983948191
    Two-Electron Energy =                1021.1456812518658808
    Total Energy =                      -2572.5336784465289384
 Dipole X            :       -177.7948057          172.8557904           -4.9390153
 Dipole Y            :       -177.7946299          172.8557904           -4.9388395
 Dipole Z            :          0.0000000            0.0000000            0.0000000
 Magnitude           :                                                    6.9846982
  Basis Set: (AUG-CC-PVTZ AUX)
    Blend: AUG-CC-PVTZ-RI
	 Reference Energy          =   -2572.5336784465289384 [Eh]
	 Singles Energy            =      -0.0000000000000000 [Eh]
	 Same-Spin Energy          =      -0.0874509677194864 [Eh]
	 Opposite-Spin Energy      =      -0.2028897149652759 [Eh]
	 Correlation Energy        =      -0.2903406826847623 [Eh]
	 Total Energy              =   -2572.8240191292138661 [Eh]

	 ================> DF-SCS-MP2 Energies <==================
	-----------------------------------------------------------
	 SCS Same-Spin Scale       =       0.3333333333333333 [-]
	 SCS Opposite-Spin Scale   =       1.2000000000000000 [-]
	 SCS Same-Spin Energy      =      -0.0291503225731621 [Eh]
	 SCS Opposite-Spin Energy  =      -0.2434676579583311 [Eh]
	 SCS Correlation Energy    =      -0.2726179805314932 [Eh]
	 SCS Total Energy          =   -2572.8062964270602606 [Eh]
	-----------------------------------------------------------

*** Psi4 exiting successfully. Buy a developer a beer!
