                               Psi4 1.8.2 release

  ==> Input File <==

--------------------------------------------------------------------------
MEMORY 60 GB

molecule dimer {
-2 1
O          0.000000     0.000000     0.000000
H          0.588538     0.756918     0.000000
H          0.588538    -0.756918     0.000000
Br         3.088642     3.088642     0.000000
Br         3.088642    -3.088642     0.000000

units ang
no_reorient
no_com
symmetry c1
}

set {
basis        aug-cc-pVTZ
scf_type     df
}

energy("mp2")
--------------------------------------------------------------------------

    Molecular point group: c1

    Geometry (in Angstrom), charge = -2, multiplicity = 1:

       Center              X                  Y                   Z               Mass
    ------------   -----------------  -----------------  -----------------  -----------------
         O            0.000000000000     0.000000000000     0.000000000000    15.994914619570
         H            0.588538000000     0.756918000000     0.000000000000     1.007825032230
         H            0.588538000000    -0.756918000000     0.000000000000     1.007825032230
         BR           3.088642000000     3.088642000000     0.000000000000    78.918337600000
         BR           3.088642000000    -3.088642000000     0.000000000000    78.918337600000

  Charge       = -2
  Multiplicity = 1
  Basis Set: AUG-CC-PVTZ
    Blend: AUG-CC-PVTZ
  Basis Set: (AUG-CC-PVTZ AUX)
    Blend: AUG-CC-PVTZ-JKFIT

    Orbital Energies [Eh]
    ---------------------

    Doubly Occupied:

       1A   -489.648381     2A   -489.648381     3A    -64.788438
       4A    -64.788438     5A    -58.142925     6A    -58.142925
       7A    -58.142910     8A    -58.142910     9A    -58.142897
      10A    -58.142897    11A    -20.317077    12A     -9.460786
      13A     -9.460786    14A     -7.068212    15A     -7.068212
      16A     -7.068125    17A     -7.068125    18A     -7.068046
      19A     -7.068046    20A     -2.809913    21A     -2.809913
      22A     -2.809898    23A     -2.809898    24A     -2.809802
      25A     -2.809802    26A     -2.809689    27A     -2.809689
      28A     -2.809676    29A     -2.809676    30A     -1.103612
      31A     -0.614087    32A     -0.614054    33A     -0.467095
      34A     -0.340957    35A     -0.263471    36A     -0.069003
      37A     -0.068169    38A     -0.067360    39A     -0.067251
      40A     -0.067074    41A     -0.065604

  @DF-RHF Final Energy: -5221.06566457436747

   => Energetics <=

    Nuclear Repulsion Energy =            200.8742033122534849
    One-Electron Energy =               -7701.3113041970245831
    Two-Electron Energy =                2279.3714363104031690
    Total Energy =                      -5221.0656645743674744
 Dipole X            :       -421.3906546          410.7924748          -10.5981798
 Dipole Y            :         -0.0000000            0.0000000           -0.0000000
 Dipole Z            :          0.0000000            0.0000000            0.0000000
 Magnitude           :                                                   10.5981798
  Basis Set: (AUG-CC-PVTZ AUX)
    Blend: AUG-CC-PVTZ-RI
	 Reference Energy          =   -5221.0656645743674744 [Eh]
	 Singles Energy            =      -0.0000000000000000 [Eh]
	 Same-Spin Energy          =      -0.2432720203259096 [Eh]
	 Opposite-Spin Energy      =      -0.6192064218987082 [Eh]
	 Correlation Energy        =      -0.8624784422246179 [Eh]
	 Total Energy              =   -5221.9281430165920028 [Eh]

	 ================> DF-SCS-MP2 Energies <==================
	-----------------------------------------------------------
	 SCS Same-Spin Scale       =       0.3333333333333333 [-]
	 SCS Opposite-Spin Scale   =       1.2000000000000000 [-]
	 SCS Same-Spin Energy      =      -0.0810906734419699 [Eh]
	 SCS Opposite-Spin Energy  =      -0.7430477062784498 [Eh]
	 SCS Correlation Energy    =      -0.8241383797204197 [Eh]
	 SCS Total Energy          =   -5221.8898029540878269 [Eh]
	-----------------------------------------------------------

*** Psi4 exiting successfully. Buy a developer a beer!
