                               Psi4 1.8.2 release

  ==> Input File <==

--------------------------------------------------------------------------
MEMORY 60 GB

molecule dimer {
-1 1
Gh(O)      0.000000     0.000000     0.000000
Gh(H)      0.588538     0.756918     0.000000
Gh(H)      0.588538    -0.756918     0.000000
Gh(Br)     2.375879     2.375879     0.000000
Br         2.375879    -2.375879     0.000000

units ang
no_reorient
no_com
symmetry c1
}

set {
basis        aug-cc-pVTZ
scf_type     df
}

energy("mp2")
--------------------------------------------------------------------------

    Molecular point group: c1

    Geometry (in Angstrom), charge = -1, multiplicity = 1:

       Center              X                  Y                   Z               Mass
    ------------   -----------------  -----------------  -----------------  -----------------
      Gh(O)           0.000000000000     0.000000000000     0.000000000000    15.994914619570
      Gh(H)           0.588538000000     0.756918000000     0.000000000000     1.007825032230
      Gh(H)           0.588538000000    -0.756918000000     0.000000000000     1.007825032230
      Gh(BR)          2.375879000000     2.375879000000     0.000000000000    78.918337600000
         BR           2.375879000000    -2.375879000000     0.000000000000    78.918337600000

  Charge       = -1
  Multiplicity = 1
  Basis Set: AUG-CC-PVTZ
    Blend: AUG-CC-PVTZ
  Basis Set: (AUG-CC-PVTZ AUX)
    Blend: AUG-CC-PVTZ-JKFIT

    Orbital Energies [Eh]
    ---------------------

    Doubly Occupied:

       1A   -489.720831     2A    -64.860782     3A    -58.215272
       4A    -58.215272     5A    -58.215268     6A     -9.532953
       7A     -7.140306     8A     -7.140305     9A     -7.140282
      10A     -2.881980    11A     -2.881979    12A     -2.881975
      13A     -2.881972    14A     -2.881957    15A     -0.685999
      16A     -0.139341    17A     -0.139341    18A     -0.139337

  @DF-RHF Final Energy: -2572.53368285158558

   => Energetics <=

    Nuclear Repulsion Energy =              0.0000000000000000
    One-Electron Energy =               -3593.6770560439344990
    Two-Electron Energy =                1021.1433731923489177
    Total Energy =                      -2572.5336828515855814
 Dipole X            :       -161.6315784          157.1416216           -4.4899568
 Dipole Y            :        161.6314812         -157.1416216            4.4898596
 Dipole Z            :          0.0000000            0.0000000            0.0000000
 Magnitude           :                                                    6.3496891
  Basis Set: (AUG-CC-PVTZ AUX)
    Blend: AUG-CC-PVTZ-RI
	 Reference Energy          =   -2572.5336828515855814 [Eh]
	 Singles Energy            =      -0.0000000000000000 [Eh]
	 Same-Spin Energy          =      -0.0879118854648333 [Eh]
	 Opposite-Spin Energy      =      -0.2041099585932483 [Eh]
	 Correlation Energy        =      -0.2920218440580816 [Eh]
	 Total Energy              =   -2572.8257046956437080 [Eh]

	 ================> DF-SCS-MP2 Energies <==================
	-----------------------------------------------------------
	 SCS Same-Spin Scale       =       0.3333333333333333 [-]
	 SCS Opposite-Spin Scale   =       1.2000000000000000 [-]
	 SCS Same-Spin Energy      =      -0.0293039618216111 [Eh]
	 SCS Opposite-Spin Energy  =      -0.2449319503118979 [Eh]
	 SCS Correlation Energy    =      -0.2742359121335091 [Eh]
	 SCS Total Energy          =   -2572.8079187637190444 [Eh]
	-----------------------------------------------------------

*** Psi4 exiting successfully. Buy a developer a beer!
