                               Psi4 1.8.2 release

  ==> Input File <==

--------------------------------------------------------------------------
MEMORY 60 GB

molecule dimer {
0 1
Gh(Li)     0.000000     0.000000     0.000000
O         -1.032842     0.396425    -1.658178
H         -1.279584     0.014094    -2.509117
H         -1.562276     1.236030    -1.642107
Gh(O)     -0.418356     0.747917     1.594078
Gh(H)      0.358018     0.959903     2.183691
Gh(H)     -0.999293     1.461192     1.564220
Gh(O)      1.442274     1.084928    -0.518287
Gh(H)      1.966751     1.852884    -0.286094
Gh(H)      1.473632     0.916597    -1.471009
Gh(O)      0.031737    -1.911179     0.426641
Gh(H)      0.902421    -2.258501     0.761336
Gh(H)     -0.721623    -2.124603     0.942511

units ang
no_reorient
no_com
symmetry c1
}

set {
basis        aug-cc-pVTZ
scf_type     df
}

energy("mp2")
--------------------------------------------------------------------------

    Molecular point group: c1

    Geometry (in Angstrom), charge = 0, multiplicity = 1:

       Center              X                  Y                   Z               Mass
    ------------   -----------------  -----------------  -----------------  -----------------
      Gh(LI)          0.000000000000     0.000000000000     0.000000000000     7.016003436600
         O           -1.032842000000     0.396425000000    -1.658178000000    15.994914619570
         H           -1.279584000000     0.014094000000    -2.509117000000     1.007825032230
         H           -1.562276000000     1.236030000000    -1.642107000000     1.007825032230
      Gh(O)          -0.418356000000     0.747917000000     1.594078000000    15.994914619570
      Gh(H)           0.358018000000     0.959903000000     2.183691000000     1.007825032230
      Gh(H)          -0.999293000000     1.461192000000     1.564220000000     1.007825032230
      Gh(O)           1.442274000000     1.084928000000    -0.518287000000    15.994914619570
      Gh(H)           1.966751000000     1.852884000000    -0.286094000000     1.007825032230
      Gh(H)           1.473632000000     0.916597000000    -1.471009000000     1.007825032230
      Gh(O)           0.031737000000    -1.911179000000     0.426641000000    15.994914619570
      Gh(H)           0.902421000000    -2.258501000000     0.761336000000     1.007825032230
      Gh(H)          -0.721623000000    -2.124603000000     0.942511000000     1.007825032230

  Charge       = 0
  Multiplicity = 1
  Basis Set: AUG-CC-PVTZ
    Blend: AUG-CC-PVTZ
  Basis Set: (AUG-CC-PVTZ AUX)
    Blend: AUG-CC-PVTZ-JKFIT + DEF2-UNIVERSAL-JKFIT

    Orbital Energies [Eh]
    ---------------------

    Doubly Occupied:

       1A    -20.571657     2A     -1.344278     3A     -0.701904
       4A     -0.584909     5A     -0.509244

  @DF-RHF Final Energy:   -76.05795753514644

   => Energetics <=

    Nuclear Repulsion Energy =              8.9986494346301384
    One-Electron Energy =                -122.6892273610158952
    Two-Electron Energy =                  37.6326203912393140
    Total Energy =                        -76.0579575351464428
 Dipole X            :         20.4796215          -20.9846452           -0.5050236
 Dipole Y            :         -8.0615178            8.3554694            0.2939516
 Dipole Z            :         32.3655247          -32.9126947           -0.5471701
 Magnitude           :                                                    0.8005320
  Basis Set: (AUG-CC-PVTZ AUX)
    Blend: AUG-CC-PVTZ-RI + DEF2-QZVPP-RI
	 Reference Energy          =     -76.0579575351464428 [Eh]
	 Singles Energy            =      -0.0000000000000000 [Eh]
	 Same-Spin Energy          =      -0.0688536853431404 [Eh]
	 Opposite-Spin Energy      =      -0.2172784153717129 [Eh]
	 Correlation Energy        =      -0.2861321007148534 [Eh]
	 Total Energy              =     -76.3440896358612946 [Eh]

	 ================> DF-SCS-MP2 Energies <==================
	-----------------------------------------------------------
	 SCS Same-Spin Scale       =       0.3333333333333333 [-]
	 SCS Opposite-Spin Scale   =       1.2000000000000000 [-]
	 SCS Same-Spin Energy      =      -0.0229512284477135 [Eh]
	 SCS Opposite-Spin Energy  =      -0.2607340984460555 [Eh]
	 SCS Correlation Energy    =      -0.2836853268937690 [Eh]
	 SCS Total Energy          =     -76.3416428620402172 [Eh]
	-----------------------------------------------------------

*** Psi4 exiting successfully. Buy a developer a beer!
