                               Psi4 1.8.2 release

  ==> Input File <==

--------------------------------------------------------------------------
MEMORY 60 GB

molecule dimer {
1 1
Li         0.000000     0.000000     0.000000
O         -0.956247     0.863490    -1.749096
H         -1.677330     0.462424    -2.223924
H         -1.171884     1.781797    -1.643295
O          1.646899     1.167929    -0.206984
H          2.398522     0.950578    -0.761776
H          2.002825     1.745984     0.467071
O         -1.376351     0.325273     1.324880
H         -1.378159    -0.485756     1.792733
H         -2.258884     0.513625     1.057259
O         -0.433367    -1.659207    -1.078943
H         -0.338542    -2.445579    -0.643428
H         -1.348443    -1.450485    -1.100673
O          1.111588    -0.959952     1.543776
H          0.882604    -1.906565     1.587702
H          2.069318    -0.934575     1.478701

units ang
no_reorient
no_com
symmetry c1
}

set {
basis        aug-cc-pVTZ
scf_type     df
}

energy("mp2")
--------------------------------------------------------------------------

    Molecular point group: c1

    Geometry (in Angstrom), charge = 1, multiplicity = 1:

       Center              X                  Y                   Z               Mass
    ------------   -----------------  -----------------  -----------------  -----------------
         LI           0.000000000000     0.000000000000     0.000000000000     7.016003436600
         O           -0.956247000000     0.863490000000    -1.749096000000    15.994914619570
         H           -1.677330000000     0.462424000000    -2.223924000000     1.007825032230
         H           -1.171884000000     1.781797000000    -1.643295000000     1.007825032230
         O            1.646899000000     1.167929000000    -0.206984000000    15.994914619570
         H            2.398522000000     0.950578000000    -0.761776000000     1.007825032230
         H            2.002825000000     1.745984000000     0.467071000000     1.007825032230
         O           -1.376351000000     0.325273000000     1.324880000000    15.994914619570
         H           -1.378159000000    -0.485756000000     1.792733000000     1.007825032230
         H           -2.258884000000     0.513625000000     1.057259000000     1.007825032230
         O           -0.433367000000    -1.659207000000    -1.078943000000    15.994914619570
         H           -0.338542000000    -2.445579000000    -0.643428000000     1.007825032230
         H           -1.348443000000    -1.450485000000    -1.100673000000     1.007825032230
         O            1.111588000000    -0.959952000000     1.543776000000    15.994914619570
         H            0.882604000000    -1.906565000000     1.587702000000     1.007825032230
         H            2.069318000000    -0.934575000000     1.478701000000     1.007825032230

  Charge       = 1
  Multiplicity = 1
  Basis Set: AUG-CC-PVTZ
    Blend: AUG-CC-PVTZ
  Basis Set: (AUG-CC-PVTZ AUX)
    Blend: AUG-CC-PVTZ-JKFIT + DEF2-UNIVERSAL-JKFIT

    Orbital Energies [Eh]
    ---------------------

    Doubly Occupied:

       1A    -20.738280     2A    -20.735928     3A    -20.735295
       4A    -20.727463     5A    -20.725124     6A     -2.519857
       7A     -1.554030     8A     -1.543036     9A     -1.522446
      10A     -1.519637    11A     -1.515885    12A     -0.930780
      13A     -0.916622    14A     -0.885309    15A     -0.884055
      16A     -0.880111    17A     -0.786429    18A     -0.778065
      19A     -0.765997    20A     -0.756258    21A     -0.743500
      22A     -0.714686    23A     -0.694496    24A     -0.686415
      25A     -0.674605    26A     -0.666995

  @DF-RHF Final Energy:  -387.68826822599004

   => Energetics <=

    Nuclear Repulsion Energy =            244.0531822494491792
    One-Electron Energy =               -1012.2802852201701853
    Two-Electron Energy =                 380.5388347447309911
    Total Energy =                       -387.6882682259900434
 Dipole X            :          1.1997294           -1.6625754           -0.4628460
 Dipole Y            :          6.5328284           -7.3100049           -0.7771765
 Dipole Z            :          2.7097496           -2.4955081            0.2142415
 Magnitude           :                                                    0.9295854
  Basis Set: (AUG-CC-PVTZ AUX)
    Blend: AUG-CC-PVTZ-RI + DEF2-QZVPP-RI
	 Reference Energy          =    -387.6882682259900434 [Eh]
	 Singles Energy            =      -0.0000000000000000 [Eh]
	 Same-Spin Energy          =      -0.3454369665708545 [Eh]
	 Opposite-Spin Energy      =      -1.0947565305985321 [Eh]
	 Correlation Energy        =      -1.4401934971693866 [Eh]
	 Total Energy              =    -389.1284617231594325 [Eh]

	 ================> DF-SCS-MP2 Energies <==================
	-----------------------------------------------------------
	 SCS Same-Spin Scale       =       0.3333333333333333 [-]
	 SCS Opposite-Spin Scale   =       1.2000000000000000 [-]
	 SCS Same-Spin Energy      =      -0.1151456555236182 [Eh]
	 SCS Opposite-Spin Energy  =      -1.3137078367182384 [Eh]
	 SCS Correlation Energy    =      -1.4288534922418565 [Eh]
	 SCS Total Energy          =    -389.1171217182318856 [Eh]
	-----------------------------------------------------------

*** Psi4 exiting successfully. Buy a developer a beer!
