                               Psi4 1.8.2 release

  ==> Input File <==

--------------------------------------------------------------------------
MEMORY 60 GB

molecule dimer {
0 1
Gh(Li)     0.000000     0.000000     0.000000
Gh(O)      1.858934    -0.623976    -0.526781
Gh(H)      1.848269    -1.539102    -0.846784
Gh(H)      2.660861    -0.574173     0.041889
O         -0.075512     1.555018     1.114340
H         -0.140334     2.353388     0.602470
H          0.715955     1.755071     1.596003
Gh(O)     -0.507566     0.606809    -1.968779
Gh(H)     -0.605809    -0.214582    -2.524121
Gh(H)     -0.969069     1.265079    -2.433698
Gh(O)     -0.854187    -1.323968     1.103405
Gh(H)     -1.682373    -1.653239     0.783875
Gh(H)     -1.040480    -0.735892     1.855917

units ang
no_reorient
no_com
symmetry c1
}

set {
basis        aug-cc-pVTZ
scf_type     df
}

energy("mp2")
--------------------------------------------------------------------------

    Molecular point group: c1

    Geometry (in Angstrom), charge = 0, multiplicity = 1:

       Center              X                  Y                   Z               Mass
    ------------   -----------------  -----------------  -----------------  -----------------
      Gh(LI)          0.000000000000     0.000000000000     0.000000000000     7.016003436600
      Gh(O)           1.858934000000    -0.623976000000    -0.526781000000    15.994914619570
      Gh(H)           1.848269000000    -1.539102000000    -0.846784000000     1.007825032230
      Gh(H)           2.660861000000    -0.574173000000     0.041889000000     1.007825032230
         O           -0.075512000000     1.555018000000     1.114340000000    15.994914619570
         H           -0.140334000000     2.353388000000     0.602470000000     1.007825032230
         H            0.715955000000     1.755071000000     1.596003000000     1.007825032230
      Gh(O)          -0.507566000000     0.606809000000    -1.968779000000    15.994914619570
      Gh(H)          -0.605809000000    -0.214582000000    -2.524121000000     1.007825032230
      Gh(H)          -0.969069000000     1.265079000000    -2.433698000000     1.007825032230
      Gh(O)          -0.854187000000    -1.323968000000     1.103405000000    15.994914619570
      Gh(H)          -1.682373000000    -1.653239000000     0.783875000000     1.007825032230
      Gh(H)          -1.040480000000    -0.735892000000     1.855917000000     1.007825032230

  Charge       = 0
  Multiplicity = 1
  Basis Set: AUG-CC-PVTZ
    Blend: AUG-CC-PVTZ
  Basis Set: (AUG-CC-PVTZ AUX)
    Blend: AUG-CC-PVTZ-JKFIT + DEF2-UNIVERSAL-JKFIT

    Orbital Energies [Eh]
    ---------------------

    Doubly Occupied:

       1A    -20.567856     2A     -1.361987     3A     -0.710438
       4A     -0.597676     5A     -0.512600

  @DF-RHF Final Energy:   -76.05978737885044

   => Energetics <=

    Nuclear Repulsion Energy =              9.2868494187898865
    One-Electron Energy =                -123.1921591034779766
    Two-Electron Energy =                  37.8455223058376404
    Total Energy =                        -76.0597873788504444
 Dipole X            :          0.5318924           -0.0538100            0.4780825
 Dipole Y            :        -30.6157569           31.2723274            0.6565705
 Dipole Z            :        -21.0201728           21.0008911           -0.0192817
 Magnitude           :                                                    0.8124158
  Basis Set: (AUG-CC-PVTZ AUX)
    Blend: AUG-CC-PVTZ-RI + DEF2-QZVPP-RI
	 Reference Energy          =     -76.0597873788504444 [Eh]
	 Singles Energy            =      -0.0000000000000000 [Eh]
	 Same-Spin Energy          =      -0.0684375282353130 [Eh]
	 Opposite-Spin Energy      =      -0.2159521478757600 [Eh]
	 Correlation Energy        =      -0.2843896761110730 [Eh]
	 Total Energy              =     -76.3441770549615200 [Eh]

	 ================> DF-SCS-MP2 Energies <==================
	-----------------------------------------------------------
	 SCS Same-Spin Scale       =       0.3333333333333333 [-]
	 SCS Opposite-Spin Scale   =       1.2000000000000000 [-]
	 SCS Same-Spin Energy      =      -0.0228125094117710 [Eh]
	 SCS Opposite-Spin Energy  =      -0.2591425774509120 [Eh]
	 SCS Correlation Energy    =      -0.2819550868626830 [Eh]
	 SCS Total Energy          =     -76.3417424657131249 [Eh]
	-----------------------------------------------------------

*** Psi4 exiting successfully. Buy a developer a beer!
