                               Psi4 1.8.2 release

  ==> Input File <==

--------------------------------------------------------------------------
MEMORY 60 GB

molecule dimer {
1 1
Li         0.000000     0.000000     0.000000
O         -1.781604    -0.308774     0.672957
H         -2.416149    -0.940715     1.042678
H         -2.210738     0.488272     0.415933
O          1.567111     0.207798     1.466968
H          1.921405    -0.551822     1.871146
H          1.660695     0.824584     2.244772
O         -0.361356     1.821734    -0.682767
H         -0.637570     2.716843    -0.478202
H         -0.758879     1.674910    -1.588356
O          0.457511    -1.012211    -1.602176
H         -0.028832    -1.739527    -1.960288
H          1.106696    -0.664268    -2.216768

units ang
no_reorient
no_com
symmetry c1
}

set {
basis        aug-cc-pVTZ
scf_type     df
}

energy("mp2")
--------------------------------------------------------------------------

    Molecular point group: c1

    Geometry (in Angstrom), charge = 1, multiplicity = 1:

       Center              X                  Y                   Z               Mass
    ------------   -----------------  -----------------  -----------------  -----------------
         LI           0.000000000000     0.000000000000     0.000000000000     7.016003436600
         O           -1.781604000000    -0.308774000000     0.672957000000    15.994914619570
         H           -2.416149000000    -0.940715000000     1.042678000000     1.007825032230
         H           -2.210738000000     0.488272000000     0.415933000000     1.007825032230
         O            1.567111000000     0.207798000000     1.466968000000    15.994914619570
         H            1.921405000000    -0.551822000000     1.871146000000     1.007825032230
         H            1.660695000000     0.824584000000     2.244772000000     1.007825032230
         O           -0.361356000000     1.821734000000    -0.682767000000    15.994914619570
         H           -0.637570000000     2.716843000000    -0.478202000000     1.007825032230
         H           -0.758879000000     1.674910000000    -1.588356000000     1.007825032230
         O            0.457511000000    -1.012211000000    -1.602176000000    15.994914619570
         H           -0.028832000000    -1.739527000000    -1.960288000000     1.007825032230
         H            1.106696000000    -0.664268000000    -2.216768000000     1.007825032230

  Charge       = 1
  Multiplicity = 1
  Basis Set: AUG-CC-PVTZ
    Blend: AUG-CC-PVTZ
  Basis Set: (AUG-CC-PVTZ AUX)
    Blend: AUG-CC-PVTZ-JKFIT + DEF2-UNIVERSAL-JKFIT

    Orbital Energies [Eh]
    ---------------------

    Doubly Occupied:

       1A    -20.755188     2A    -20.745823     3A    -20.741718
       4A    -20.730140     5A     -2.539364     6A     -1.539022
       7A     -1.536314     8A     -1.531301     9A     -1.518188
      10A     -0.920343    11A     -0.914409    12A     -0.890649
      13A     -0.860928    14A     -0.794324    15A     -0.779450
      16A     -0.774041    17A     -0.770911    18A     -0.700653
      19A     -0.699609    20A     -0.692392    21A     -0.675892

  @DF-RHF Final Energy:  -311.62677107507494

   => Energetics <=

    Nuclear Repulsion Energy =            160.0335303704671617
    One-Electron Energy =                -741.0992824157702898
    Two-Electron Energy =                 269.4389809702282150
    Total Energy =                       -311.6267710750749416
 Dipole X            :          3.5577398           -4.3654110           -0.8076711
 Dipole Y            :        -13.7799771           14.1288265            0.3488494
 Dipole Z            :          3.1196335           -3.4567418           -0.3371083
 Magnitude           :                                                    0.9421627
  Basis Set: (AUG-CC-PVTZ AUX)
    Blend: AUG-CC-PVTZ-RI + DEF2-QZVPP-RI
	 Reference Energy          =    -311.6267710750749416 [Eh]
	 Singles Energy            =      -0.0000000000000000 [Eh]
	 Same-Spin Energy          =      -0.2753579336830219 [Eh]
	 Opposite-Spin Energy      =      -0.8779732452613285 [Eh]
	 Correlation Energy        =      -1.1533311789443503 [Eh]
	 Total Energy              =    -312.7801022540193117 [Eh]

	 ================> DF-SCS-MP2 Energies <==================
	-----------------------------------------------------------
	 SCS Same-Spin Scale       =       0.3333333333333333 [-]
	 SCS Opposite-Spin Scale   =       1.2000000000000000 [-]
	 SCS Same-Spin Energy      =      -0.0917859778943406 [Eh]
	 SCS Opposite-Spin Energy  =      -1.0535678943135942 [Eh]
	 SCS Correlation Energy    =      -1.1453538722079348 [Eh]
	 SCS Total Energy          =    -312.7721249472828617 [Eh]
	-----------------------------------------------------------

*** Psi4 exiting successfully. Buy a developer a beer!
