                               Psi4 1.9 release

  ==> Input File <==

--------------------------------------------------------------------------
MEMORY 60 GB

molecule dimer {
1 1
Li     0.000000     0.000000     0.000000
--
0 1
O     -1.666848    -0.230775    -0.571178
H     -2.403845    -0.078846     0.061316
H     -1.852157    -1.160914    -0.900576
O      0.811830     1.681269     0.295015
H      1.209914     1.723784     1.184017
H      1.431522     2.147366    -0.312900
O      1.245948    -0.573251    -1.667623
H      0.710361    -0.536181    -2.500262
H      1.978230    -0.048153    -1.882404

units ang
no_reorient
no_com
symmetry c1
}

set {
basis        aug-cc-pVTZ
scf_type     df
}

energy("mp2", bsse_type="cp")
--------------------------------------------------------------------------

                               Psi4 1.9 release
    Molecular point group: c1
  Charge       = 0
  Multiplicity = 1
  Basis Set: AUG-CC-PVTZ
    Blend: AUG-CC-PVTZ
  Basis Set: (AUG-CC-PVTZ AUX)
    Blend: AUG-CC-PVTZ-JKFIT + DEF2-UNIVERSAL-JKFIT
  @DF-RHF Final Energy:  -228.15998061751117
    Total Energy =                       -228.1599806175111667
 Dipole X            :         -7.7575675            7.9396182            0.1820507
 Dipole Y            :        -16.9308632           17.1303673            0.1995041
 Dipole Z            :         37.3628048          -37.6076229           -0.2448181
 Magnitude           :                                                    0.3645274
  Basis Set: (AUG-CC-PVTZ AUX)
    Blend: AUG-CC-PVTZ-RI + DEF2-QZVPP-RI
	 Reference Energy          =    -228.1599806175111667 [Eh]
	 Singles Energy            =      -0.0000000000000000 [Eh]
	 Same-Spin Energy          =      -0.2079560797131725 [Eh]
	 Opposite-Spin Energy      =      -0.6531003895897760 [Eh]
	 Correlation Energy        =      -0.8610564693029485 [Eh]
	 Total Energy              =    -229.0210370868141183 [Eh]
	 SCS Total Energy          =    -229.0130197782566199 [Eh]
                               Psi4 1.9 release
    Molecular point group: c1
  Multiplicity = 1
  Basis Set: AUG-CC-PVTZ
    Blend: AUG-CC-PVTZ
  Basis Set: (AUG-CC-PVTZ AUX)
    Blend: AUG-CC-PVTZ-JKFIT + DEF2-UNIVERSAL-JKFIT
  @DF-RHF Final Energy:    -7.23638438505131
    Total Energy =                         -7.2363843850513145
  Basis Set: (AUG-CC-PVTZ AUX)
	 Singles Energy            =      -0.0000000000000000 [Eh]
	 Same-Spin Energy          =      -0.0000000000000000 [Eh]
	 Opposite-Spin Energy      =      -0.0159189548662335 [Eh]
	 Correlation Energy        =      -0.0159189548662335 [Eh]
	 Total Energy              =      -7.2523033399175478 [Eh]
	 SCS Total Energy          =      -7.2554871308907947 [Eh]
                               Psi4 1.9 release
    Molecular point group: c1

    Geometry (in Bohr), charge = 1, multiplicity = 1:

       Center              X                  Y                   Z               Mass
    ------------   -----------------  -----------------  -----------------  -----------------
         LI           0.000000000000     0.000000000000     0.000000000000     7.016003436600
         O           -3.149886212767    -0.436101546603    -1.079369988887    15.994914619570
         H           -4.542608698051    -0.148997346088     0.115870447109     1.007825032230
         H           -3.500069471350    -2.193809515210    -1.701841995160     1.007825032230
         O            1.534136360430     3.177137953222     0.557497552902    15.994914619570
         H            2.286406095357     3.257479659446     2.237467857886     1.007825032230
         H            2.705184522568     4.057933631120    -0.591295304656     1.007825032230
         O            2.354500486562    -1.083287391145    -3.151350750514    15.994914619570
         H            1.342387740206    -1.013235243674    -4.724810421889     1.007825032230
         H            3.738312913164    -0.090995982119    -3.557228017466     1.007825032230

  Charge       = 1
  Multiplicity = 1
  Basis Set: AUG-CC-PVTZ
    Blend: AUG-CC-PVTZ
  Basis Set: (AUG-CC-PVTZ AUX)
    Blend: AUG-CC-PVTZ-JKFIT + DEF2-UNIVERSAL-JKFIT

    Orbital Energies [Eh]
    ---------------------

    Doubly Occupied:

       1A    -20.783337     2A    -20.771409     3A    -20.752578
       4A     -2.580671     5A     -1.556961     6A     -1.549972
       7A     -1.542596     8A     -0.914998     9A     -0.911211
      10A     -0.897277    11A     -0.820399    12A     -0.802784
      13A     -0.786607    14A     -0.734447    15A     -0.724403
      16A     -0.697771

  @DF-RHF Final Energy:  -235.52998734628346

   => Energetics <=

    Nuclear Repulsion Energy =             98.9497870618555453
    One-Electron Energy =                -515.3047032616324259
    Two-Electron Energy =                 180.8249288534934180
    Total Energy =                       -235.5299873462834626
 Dipole X            :         -7.7580793            7.9396182            0.1815388
 Dipole Y            :        -16.7449941           17.1303673            0.3853733
 Dipole Z            :         37.0275694          -37.6076229           -0.5800535
 Magnitude           :                                                    0.7196742
  Basis Set: (AUG-CC-PVTZ AUX)
    Blend: AUG-CC-PVTZ-RI + DEF2-QZVPP-RI
	 Reference Energy          =    -235.5299873462834626 [Eh]
	 Singles Energy            =      -0.0000000000000000 [Eh]
	 Same-Spin Energy          =      -0.2066421861960557 [Eh]
	 Opposite-Spin Energy      =      -0.6627815926738759 [Eh]
	 Correlation Energy        =      -0.8694237788699316 [Eh]
	 Total Energy              =    -236.3994111251533923 [Eh]

	 ================> DF-SCS-MP2 Energies <==================
	-----------------------------------------------------------
	 SCS Same-Spin Scale       =       0.3333333333333333 [-]
	 SCS Opposite-Spin Scale   =       1.2000000000000000 [-]
	 SCS Same-Spin Energy      =      -0.0688807287320186 [Eh]
	 SCS Opposite-Spin Energy  =      -0.7953379112086510 [Eh]
	 SCS Correlation Energy    =      -0.8642186399406696 [Eh]
	 SCS Total Energy          =    -236.3942059862241365 [Eh]
	-----------------------------------------------------------

*** Psi4 exiting successfully. Buy a developer a beer!
