                               Psi4 1.8.2 release

  ==> Input File <==

--------------------------------------------------------------------------
MEMORY 60 GB

molecule dimer {
1 1
Li         0.000000     0.000000     0.000000
Gh(O)      0.699917    -1.605590    -0.538374
Gh(H)      0.331929    -2.479437    -0.070724
Gh(H)      1.595037    -1.827290    -0.867616
Gh(O)     -0.415776     0.409880     1.974965
Gh(H)     -0.632469    -0.216349     2.683802
Gh(H)     -1.094302     1.112373     2.095595
Gh(O)      1.114874     1.438486    -0.655299
Gh(H)      2.041900     1.265101    -0.736658
Gh(H)      0.981857     2.289101    -0.189952
Gh(O)     -1.728885     0.283644    -1.130470
Gh(H)     -1.722627    -0.186960    -2.021005
Gh(H)     -2.497560    -0.024047    -0.644402

units ang
no_reorient
no_com
symmetry c1
}

set {
basis        aug-cc-pVTZ
scf_type     df
}

energy("mp2")
--------------------------------------------------------------------------

    Molecular point group: c1

    Geometry (in Angstrom), charge = 1, multiplicity = 1:

       Center              X                  Y                   Z               Mass
    ------------   -----------------  -----------------  -----------------  -----------------
         LI           0.000000000000     0.000000000000     0.000000000000     7.016003436600
      Gh(O)           0.699917000000    -1.605590000000    -0.538374000000    15.994914619570
      Gh(H)           0.331929000000    -2.479437000000    -0.070724000000     1.007825032230
      Gh(H)           1.595037000000    -1.827290000000    -0.867616000000     1.007825032230
      Gh(O)          -0.415776000000     0.409880000000     1.974965000000    15.994914619570
      Gh(H)          -0.632469000000    -0.216349000000     2.683802000000     1.007825032230
      Gh(H)          -1.094302000000     1.112373000000     2.095595000000     1.007825032230
      Gh(O)           1.114874000000     1.438486000000    -0.655299000000    15.994914619570
      Gh(H)           2.041900000000     1.265101000000    -0.736658000000     1.007825032230
      Gh(H)           0.981857000000     2.289101000000    -0.189952000000     1.007825032230
      Gh(O)          -1.728885000000     0.283644000000    -1.130470000000    15.994914619570
      Gh(H)          -1.722627000000    -0.186960000000    -2.021005000000     1.007825032230
      Gh(H)          -2.497560000000    -0.024047000000    -0.644402000000     1.007825032230

  Charge       = 1
  Multiplicity = 1
  Basis Set: AUG-CC-PVTZ
    Blend: AUG-CC-PVTZ
  Basis Set: (AUG-CC-PVTZ AUX)
    Blend: AUG-CC-PVTZ-JKFIT + DEF2-UNIVERSAL-JKFIT

    Orbital Energies [Eh]
    ---------------------

    Doubly Occupied:

       1A     -2.792353

  @DF-RHF Final Energy:    -7.23638483709105

   => Energetics <=

    Nuclear Repulsion Energy =              0.0000000000000000
    One-Electron Energy =                  -8.8880629286894237
    Two-Electron Energy =                   1.6516780915983766
    Total Energy =                         -7.2363848370910473
 Dipole X            :         -0.0000067            0.0000000           -0.0000067
 Dipole Y            :          0.0000027            0.0000000            0.0000027
 Dipole Z            :          0.0000049            0.0000000            0.0000049
 Magnitude           :                                                    0.0000087
  Basis Set: (AUG-CC-PVTZ AUX)
    Blend: AUG-CC-PVTZ-RI + DEF2-QZVPP-RI
	 Reference Energy          =      -7.2363848370910464 [Eh]
	 Singles Energy            =      -0.0000000000000000 [Eh]
	 Same-Spin Energy          =       0.0000000000000000 [Eh]
	 Opposite-Spin Energy      =      -0.0168882952588205 [Eh]
	 Correlation Energy        =      -0.0168882952588205 [Eh]
	 Total Energy              =      -7.2532731323498671 [Eh]

	 ================> DF-SCS-MP2 Energies <==================
	-----------------------------------------------------------
	 SCS Same-Spin Scale       =       0.3333333333333333 [-]
	 SCS Opposite-Spin Scale   =       1.2000000000000000 [-]
	 SCS Same-Spin Energy      =       0.0000000000000000 [Eh]
	 SCS Opposite-Spin Energy  =      -0.0202659543105845 [Eh]
	 SCS Correlation Energy    =      -0.0202659543105845 [Eh]
	 SCS Total Energy          =      -7.2566507914016309 [Eh]
	-----------------------------------------------------------

*** Psi4 exiting successfully. Buy a developer a beer!
