                               Psi4 1.8.2 release

  ==> Input File <==

--------------------------------------------------------------------------
MEMORY 60 GB

molecule dimer {
1 1
Li         0.000000     0.000000     0.000000
O          1.208138    -1.483905    -0.054330
H          1.706083    -1.757206     0.774298
H          1.774244    -1.511918    -0.824749
O          0.360921     0.615778     1.634830
H          1.202116     0.241370     2.076436
H          0.323012     1.571300     1.866216
O          0.388360     1.633741    -1.150752
H          0.616019     1.302636    -2.021055
H          1.215882     1.819896    -0.713647
O         -1.776461    -0.480367    -0.202286
H         -2.398739    -0.310590     0.568127
H         -1.994482    -1.342837    -0.497433

units ang
no_reorient
no_com
symmetry c1
}

set {
basis        aug-cc-pVTZ
scf_type     df
}

energy("mp2")
--------------------------------------------------------------------------

    Molecular point group: c1

    Geometry (in Angstrom), charge = 1, multiplicity = 1:

       Center              X                  Y                   Z               Mass
    ------------   -----------------  -----------------  -----------------  -----------------
         LI           0.000000000000     0.000000000000     0.000000000000     7.016003436600
         O            1.208138000000    -1.483905000000    -0.054330000000    15.994914619570
         H            1.706083000000    -1.757206000000     0.774298000000     1.007825032230
         H            1.774244000000    -1.511918000000    -0.824749000000     1.007825032230
         O            0.360921000000     0.615778000000     1.634830000000    15.994914619570
         H            1.202116000000     0.241370000000     2.076436000000     1.007825032230
         H            0.323012000000     1.571300000000     1.866216000000     1.007825032230
         O            0.388360000000     1.633741000000    -1.150752000000    15.994914619570
         H            0.616019000000     1.302636000000    -2.021055000000     1.007825032230
         H            1.215882000000     1.819896000000    -0.713647000000     1.007825032230
         O           -1.776461000000    -0.480367000000    -0.202286000000    15.994914619570
         H           -2.398739000000    -0.310590000000     0.568127000000     1.007825032230
         H           -1.994482000000    -1.342837000000    -0.497433000000     1.007825032230

  Charge       = 1
  Multiplicity = 1
  Basis Set: AUG-CC-PVTZ
    Blend: AUG-CC-PVTZ
  Basis Set: (AUG-CC-PVTZ AUX)
    Blend: AUG-CC-PVTZ-JKFIT + DEF2-UNIVERSAL-JKFIT

    Orbital Energies [Eh]
    ---------------------

    Doubly Occupied:

       1A    -20.768164     2A    -20.764496     3A    -20.744523
       4A    -20.740296     5A     -2.521909     6A     -1.543379
       7A     -1.537309     8A     -1.533905     9A     -1.526680
      10A     -0.921794    11A     -0.903451    12A     -0.895183
      13A     -0.887020    14A     -0.801648    15A     -0.784003
      16A     -0.781156    17A     -0.763221    18A     -0.727834
      19A     -0.705360    20A     -0.695800    21A     -0.690918

  @DF-RHF Final Energy:  -311.60773362987652

   => Energetics <=

    Nuclear Repulsion Energy =            166.6698589646414064
    One-Electron Energy =                -754.0790788472618260
    Two-Electron Energy =                 275.8014862527438709
    Total Energy =                       -311.6077336298765204
 Dipole X            :         -5.9434132            7.3544342            1.4110210
 Dipole Y            :         -4.7160284            4.3362166           -0.3798118
 Dipole Z            :         -5.1518900            5.7596755            0.6077855
 Magnitude           :                                                    1.5826056
  Basis Set: (AUG-CC-PVTZ AUX)
    Blend: AUG-CC-PVTZ-RI + DEF2-QZVPP-RI
	 Reference Energy          =    -311.6077336298765204 [Eh]
	 Singles Energy            =      -0.0000000000000000 [Eh]
	 Same-Spin Energy          =      -0.2770354876849955 [Eh]
	 Opposite-Spin Energy      =      -0.8823144646004484 [Eh]
	 Correlation Energy        =      -1.1593499522854440 [Eh]
	 Total Energy              =    -312.7670835821619448 [Eh]

	 ================> DF-SCS-MP2 Energies <==================
	-----------------------------------------------------------
	 SCS Same-Spin Scale       =       0.3333333333333333 [-]
	 SCS Opposite-Spin Scale   =       1.2000000000000000 [-]
	 SCS Same-Spin Energy      =      -0.0923451625616652 [Eh]
	 SCS Opposite-Spin Energy  =      -1.0587773575205379 [Eh]
	 SCS Correlation Energy    =      -1.1511225200822031 [Eh]
	 SCS Total Energy          =    -312.7588561499587172 [Eh]
	-----------------------------------------------------------

*** Psi4 exiting successfully. Buy a developer a beer!
