                               Psi4 1.8.2 release

  ==> Input File <==

--------------------------------------------------------------------------
MEMORY 60 GB

molecule dimer {
0 1
Gh(Li)     0.000000     0.000000     0.000000
Gh(O)      0.219560    -0.265810     2.012776
Gh(H)      0.521880    -0.931016     2.699863
Gh(H)     -0.159480     0.513072     2.429735
Gh(O)      1.524244     0.531832    -0.864764
Gh(H)      2.438492     0.209908    -0.974378
Gh(H)      1.411270     1.193130    -1.596493
O         -0.434713    -1.802003    -0.583452
H         -1.078675    -2.086057     0.124510
H          0.349421    -2.345056    -0.533103
Gh(O)     -1.896730     0.843373    -0.137028
Gh(H)     -2.188506     0.658287    -0.989367
Gh(H)     -2.580292     0.611598     0.561824

units ang
no_reorient
no_com
symmetry c1
}

set {
basis        aug-cc-pVTZ
scf_type     df
}

energy("mp2")
--------------------------------------------------------------------------

    Molecular point group: c1

    Geometry (in Angstrom), charge = 0, multiplicity = 1:

       Center              X                  Y                   Z               Mass
    ------------   -----------------  -----------------  -----------------  -----------------
      Gh(LI)          0.000000000000     0.000000000000     0.000000000000     7.016003436600
      Gh(O)           0.219560000000    -0.265810000000     2.012776000000    15.994914619570
      Gh(H)           0.521880000000    -0.931016000000     2.699863000000     1.007825032230
      Gh(H)          -0.159480000000     0.513072000000     2.429735000000     1.007825032230
      Gh(O)           1.524244000000     0.531832000000    -0.864764000000    15.994914619570
      Gh(H)           2.438492000000     0.209908000000    -0.974378000000     1.007825032230
      Gh(H)           1.411270000000     1.193130000000    -1.596493000000     1.007825032230
         O           -0.434713000000    -1.802003000000    -0.583452000000    15.994914619570
         H           -1.078675000000    -2.086057000000     0.124510000000     1.007825032230
         H            0.349421000000    -2.345056000000    -0.533103000000     1.007825032230
      Gh(O)          -1.896730000000     0.843373000000    -0.137028000000    15.994914619570
      Gh(H)          -2.188506000000     0.658287000000    -0.989367000000     1.007825032230
      Gh(H)          -2.580292000000     0.611598000000     0.561824000000     1.007825032230

  Charge       = 0
  Multiplicity = 1
  Basis Set: AUG-CC-PVTZ
    Blend: AUG-CC-PVTZ
  Basis Set: (AUG-CC-PVTZ AUX)
    Blend: AUG-CC-PVTZ-JKFIT + DEF2-UNIVERSAL-JKFIT

    Orbital Energies [Eh]
    ---------------------

    Doubly Occupied:

       1A    -20.568028     2A     -1.340821     3A     -0.715930
       4A     -0.571758     5A     -0.507298

  @DF-RHF Final Energy:   -76.05748455474385

   => Energetics <=

    Nuclear Repulsion Energy =              9.0049794125909877
    One-Electron Energy =                -122.7172546534404347
    Two-Electron Energy =                  37.6547906861055850
    Total Energy =                        -76.0574845547438656
 Dipole X            :          8.0490499           -7.9499984            0.0990514
 Dipole Y            :         35.0633508          -35.6159272           -0.5525764
 Dipole Z            :         10.0954407           -9.5926448            0.5027959
 Magnitude           :                                                    0.7536283
  Basis Set: (AUG-CC-PVTZ AUX)
    Blend: AUG-CC-PVTZ-RI + DEF2-QZVPP-RI
	 Reference Energy          =     -76.0574845547438514 [Eh]
	 Singles Energy            =      -0.0000000000000000 [Eh]
	 Same-Spin Energy          =      -0.0686980333844828 [Eh]
	 Opposite-Spin Energy      =      -0.2168507516823395 [Eh]
	 Correlation Energy        =      -0.2855487850668223 [Eh]
	 Total Energy              =     -76.3430333398106740 [Eh]

	 ================> DF-SCS-MP2 Energies <==================
	-----------------------------------------------------------
	 SCS Same-Spin Scale       =       0.3333333333333333 [-]
	 SCS Opposite-Spin Scale   =       1.2000000000000000 [-]
	 SCS Same-Spin Energy      =      -0.0228993444614943 [Eh]
	 SCS Opposite-Spin Energy  =      -0.2602209020188074 [Eh]
	 SCS Correlation Energy    =      -0.2831202464803017 [Eh]
	 SCS Total Energy          =     -76.3406048012241598 [Eh]
	-----------------------------------------------------------

*** Psi4 exiting successfully. Buy a developer a beer!
