                               Psi4 1.8.2 release

  ==> Input File <==

--------------------------------------------------------------------------
MEMORY 60 GB

molecule dimer {
0 1
Gh(Li)     0.000000     0.000000     0.000000
Gh(O)     -0.428160     1.212107    -1.751504
Gh(H)      0.387713     1.643643    -1.963741
Gh(H)     -1.121361     1.575916    -2.325391
Gh(O)      1.781596    -0.020473     0.442877
Gh(H)      2.189669     0.324703     1.208714
Gh(H)      2.203752    -0.870775     0.253747
O         -1.533512     0.539063     0.971746
H         -2.298372     0.645210     0.470736
H         -1.196049     1.459017     1.138273
Gh(O)     -1.049215    -1.406233    -0.742604
Gh(H)     -1.939552    -1.034779    -0.873238
Gh(H)     -1.113130    -2.374025    -0.865088

units ang
no_reorient
no_com
symmetry c1
}

set {
basis        aug-cc-pVTZ
scf_type     df
}

energy("mp2")
--------------------------------------------------------------------------

    Molecular point group: c1

    Geometry (in Angstrom), charge = 0, multiplicity = 1:

       Center              X                  Y                   Z               Mass
    ------------   -----------------  -----------------  -----------------  -----------------
      Gh(LI)          0.000000000000     0.000000000000     0.000000000000     7.016003436600
      Gh(O)          -0.428160000000     1.212107000000    -1.751504000000    15.994914619570
      Gh(H)           0.387713000000     1.643643000000    -1.963741000000     1.007825032230
      Gh(H)          -1.121361000000     1.575916000000    -2.325391000000     1.007825032230
      Gh(O)           1.781596000000    -0.020473000000     0.442877000000    15.994914619570
      Gh(H)           2.189669000000     0.324703000000     1.208714000000     1.007825032230
      Gh(H)           2.203752000000    -0.870775000000     0.253747000000     1.007825032230
         O           -1.533512000000     0.539063000000     0.971746000000    15.994914619570
         H           -2.298372000000     0.645210000000     0.470736000000     1.007825032230
         H           -1.196049000000     1.459017000000     1.138273000000     1.007825032230
      Gh(O)          -1.049215000000    -1.406233000000    -0.742604000000    15.994914619570
      Gh(H)          -1.939552000000    -1.034779000000    -0.873238000000     1.007825032230
      Gh(H)          -1.113130000000    -2.374025000000    -0.865088000000     1.007825032230

  Charge       = 0
  Multiplicity = 1
  Basis Set: AUG-CC-PVTZ
    Blend: AUG-CC-PVTZ
  Basis Set: (AUG-CC-PVTZ AUX)
    Blend: AUG-CC-PVTZ-JKFIT + DEF2-UNIVERSAL-JKFIT

    Orbital Energies [Eh]
    ---------------------

    Doubly Occupied:

       1A    -20.566248     2A     -1.354115     3A     -0.719980
       4A     -0.582535     5A     -0.510158

  @DF-RHF Final Energy:   -76.05806966100621

   => Energetics <=

    Nuclear Repulsion Energy =              9.2055279776433938
    One-Electron Energy =                -123.0611200620175083
    Two-Electron Energy =                  37.7975224233678802
    Total Energy =                        -76.0580696610062290
 Dipole X            :         29.4925509          -29.7868402           -0.2942893
 Dipole Y            :        -11.4478465           12.1258642            0.6780177
 Dipole Z            :        -17.9597901           17.7312568           -0.2285334
 Magnitude           :                                                    0.7736547
  Basis Set: (AUG-CC-PVTZ AUX)
    Blend: AUG-CC-PVTZ-RI + DEF2-QZVPP-RI
	 Reference Energy          =     -76.0580696610062148 [Eh]
	 Singles Energy            =      -0.0000000000000000 [Eh]
	 Same-Spin Energy          =      -0.0684119191552068 [Eh]
	 Opposite-Spin Energy      =      -0.2161786595020447 [Eh]
	 Correlation Energy        =      -0.2845905786572515 [Eh]
	 Total Energy              =     -76.3426602396634593 [Eh]

	 ================> DF-SCS-MP2 Energies <==================
	-----------------------------------------------------------
	 SCS Same-Spin Scale       =       0.3333333333333333 [-]
	 SCS Opposite-Spin Scale   =       1.2000000000000000 [-]
	 SCS Same-Spin Energy      =      -0.0228039730517356 [Eh]
	 SCS Opposite-Spin Energy  =      -0.2594143914024536 [Eh]
	 SCS Correlation Energy    =      -0.2822183644541892 [Eh]
	 SCS Total Energy          =     -76.3402880254604099 [Eh]
	-----------------------------------------------------------

*** Psi4 exiting successfully. Buy a developer a beer!
