                               Psi4 1.8.2 release

  ==> Input File <==

--------------------------------------------------------------------------
MEMORY 60 GB

molecule dimer {
1 1
Li         0.000000     0.000000     0.000000
Gh(O)      0.181903     1.777450    -0.729930
Gh(H)      0.593085     1.934525    -1.596672
Gh(H)      0.280321     2.525539    -0.178489
Gh(O)     -1.196907    -1.054425    -1.199409
Gh(H)     -2.179947    -1.140973    -1.113703
Gh(H)     -0.981597    -0.750434    -2.076686
Gh(O)      1.630893    -0.829171     0.343299
Gh(H)      1.796402    -1.357139     1.140948
Gh(H)      2.284558    -1.180292    -0.243308

units ang
no_reorient
no_com
symmetry c1
}

set {
basis        aug-cc-pVTZ
scf_type     df
}

energy("mp2")
--------------------------------------------------------------------------

    Molecular point group: c1

    Geometry (in Angstrom), charge = 1, multiplicity = 1:

       Center              X                  Y                   Z               Mass
    ------------   -----------------  -----------------  -----------------  -----------------
         LI           0.000000000000     0.000000000000     0.000000000000     7.016003436600
      Gh(O)           0.181903000000     1.777450000000    -0.729930000000    15.994914619570
      Gh(H)           0.593085000000     1.934525000000    -1.596672000000     1.007825032230
      Gh(H)           0.280321000000     2.525539000000    -0.178489000000     1.007825032230
      Gh(O)          -1.196907000000    -1.054425000000    -1.199409000000    15.994914619570
      Gh(H)          -2.179947000000    -1.140973000000    -1.113703000000     1.007825032230
      Gh(H)          -0.981597000000    -0.750434000000    -2.076686000000     1.007825032230
      Gh(O)           1.630893000000    -0.829171000000     0.343299000000    15.994914619570
      Gh(H)           1.796402000000    -1.357139000000     1.140948000000     1.007825032230
      Gh(H)           2.284558000000    -1.180292000000    -0.243308000000     1.007825032230

  Charge       = 1
  Multiplicity = 1
  Basis Set: AUG-CC-PVTZ
    Blend: AUG-CC-PVTZ
  Basis Set: (AUG-CC-PVTZ AUX)
    Blend: AUG-CC-PVTZ-JKFIT + DEF2-UNIVERSAL-JKFIT

    Orbital Energies [Eh]
    ---------------------

    Doubly Occupied:

       1A     -2.792359

  @DF-RHF Final Energy:    -7.23638443520527

   => Energetics <=

    Nuclear Repulsion Energy =              0.0000000000000000
    One-Electron Energy =                  -8.8880509829710412
    Two-Electron Energy =                   1.6516665477657717
    Total Energy =                         -7.2363844352052693
 Dipole X            :          0.0000037            0.0000000            0.0000037
 Dipole Y            :         -0.0000037            0.0000000           -0.0000037
 Dipole Z            :         -0.0000238            0.0000000           -0.0000238
 Magnitude           :                                                    0.0000244
  Basis Set: (AUG-CC-PVTZ AUX)
    Blend: AUG-CC-PVTZ-RI + DEF2-QZVPP-RI
	 Reference Energy          =      -7.2363844352052693 [Eh]
	 Singles Energy            =      -0.0000000000000000 [Eh]
	 Same-Spin Energy          =       0.0000000000000000 [Eh]
	 Opposite-Spin Energy      =      -0.0159227753120919 [Eh]
	 Correlation Energy        =      -0.0159227753120919 [Eh]
	 Total Energy              =      -7.2523072105173609 [Eh]

	 ================> DF-SCS-MP2 Energies <==================
	-----------------------------------------------------------
	 SCS Same-Spin Scale       =       0.3333333333333333 [-]
	 SCS Opposite-Spin Scale   =       1.2000000000000000 [-]
	 SCS Same-Spin Energy      =       0.0000000000000000 [Eh]
	 SCS Opposite-Spin Energy  =      -0.0191073303745102 [Eh]
	 SCS Correlation Energy    =      -0.0191073303745102 [Eh]
	 SCS Total Energy          =      -7.2554917655797793 [Eh]
	-----------------------------------------------------------

*** Psi4 exiting successfully. Buy a developer a beer!
