                               Psi4 1.8.2 release

  ==> Input File <==

--------------------------------------------------------------------------
MEMORY 60 GB

molecule dimer {
0 1
Gh(Li)     0.000000     0.000000     0.000000
Gh(O)      0.310094    -1.762459     0.424676
Gh(H)      1.019755    -2.370888     0.219586
Gh(H)     -0.545566    -2.125910     0.340252
Gh(O)      1.379131     0.920850    -0.326352
Gh(H)      2.291762     0.787935     0.009136
Gh(H)      1.516037     1.585216    -1.021019
O         -1.539823     0.503766    -1.067499
H         -2.441997     0.161504    -1.061971
H         -1.551102     1.250548    -1.642154

units ang
no_reorient
no_com
symmetry c1
}

set {
basis        aug-cc-pVTZ
scf_type     df
}

energy("mp2")
--------------------------------------------------------------------------

    Molecular point group: c1

    Geometry (in Angstrom), charge = 0, multiplicity = 1:

       Center              X                  Y                   Z               Mass
    ------------   -----------------  -----------------  -----------------  -----------------
      Gh(LI)          0.000000000000     0.000000000000     0.000000000000     7.016003436600
      Gh(O)           0.310094000000    -1.762459000000     0.424676000000    15.994914619570
      Gh(H)           1.019755000000    -2.370888000000     0.219586000000     1.007825032230
      Gh(H)          -0.545566000000    -2.125910000000     0.340252000000     1.007825032230
      Gh(O)           1.379131000000     0.920850000000    -0.326352000000    15.994914619570
      Gh(H)           2.291762000000     0.787935000000     0.009136000000     1.007825032230
      Gh(H)           1.516037000000     1.585216000000    -1.021019000000     1.007825032230
         O           -1.539823000000     0.503766000000    -1.067499000000    15.994914619570
         H           -2.441997000000     0.161504000000    -1.061971000000     1.007825032230
         H           -1.551102000000     1.250548000000    -1.642154000000     1.007825032230

  Charge       = 0
  Multiplicity = 1
  Basis Set: AUG-CC-PVTZ
    Blend: AUG-CC-PVTZ
  Basis Set: (AUG-CC-PVTZ AUX)
    Blend: AUG-CC-PVTZ-JKFIT + DEF2-UNIVERSAL-JKFIT

    Orbital Energies [Eh]
    ---------------------

    Doubly Occupied:

       1A    -20.565755     2A     -1.354514     3A     -0.722393
       4A     -0.582871     5A     -0.510219

  @DF-RHF Final Energy:   -76.06070669980633

   => Energetics <=

    Nuclear Repulsion Energy =              9.2273385312676446
    One-Electron Energy =                -123.1045833262388385
    Two-Electron Energy =                  37.8165380951648586
    Total Energy =                        -76.0607066998063317
 Dipole X            :         30.2154387          -30.8246135           -0.6091749
 Dipole Y            :        -10.0108065           10.2842297            0.2734232
 Dipole Z            :         20.8659221          -21.2483017           -0.3823795
 Magnitude           :                                                    0.7694598
  Basis Set: (AUG-CC-PVTZ AUX)
    Blend: AUG-CC-PVTZ-RI + DEF2-QZVPP-RI
	 Reference Energy          =     -76.0607066998063317 [Eh]
	 Singles Energy            =      -0.0000000000000000 [Eh]
	 Same-Spin Energy          =      -0.0683176081777936 [Eh]
	 Opposite-Spin Energy      =      -0.2155195977826076 [Eh]
	 Correlation Energy        =      -0.2838372059604012 [Eh]
	 Total Energy              =     -76.3445439057667272 [Eh]

	 ================> DF-SCS-MP2 Energies <==================
	-----------------------------------------------------------
	 SCS Same-Spin Scale       =       0.3333333333333333 [-]
	 SCS Opposite-Spin Scale   =       1.2000000000000000 [-]
	 SCS Same-Spin Energy      =      -0.0227725360592645 [Eh]
	 SCS Opposite-Spin Energy  =      -0.2586235173391291 [Eh]
	 SCS Correlation Energy    =      -0.2813960533983937 [Eh]
	 SCS Total Energy          =     -76.3421027532047276 [Eh]
	-----------------------------------------------------------

*** Psi4 exiting successfully. Buy a developer a beer!
