                               Psi4 1.8.2 release

  ==> Input File <==

--------------------------------------------------------------------------
MEMORY 60 GB

molecule dimer {
0 1
Gh(Li)     0.000000     0.000000     0.000000
O         -0.018395    -0.041580     1.983631
H         -0.386092    -0.854160     2.162791
H         -0.588807     0.602468     2.387195
Gh(O)      1.568867    -0.245466    -0.873446
Gh(H)      1.921565     0.450636    -1.498824
Gh(H)      1.715073    -1.117651    -1.298721
Gh(O)     -1.777084    -0.764231    -0.483763
Gh(H)     -1.639151    -1.700624    -0.297360
Gh(H)     -2.502232    -0.406567     0.104343

units ang
no_reorient
no_com
symmetry c1
}

set {
basis        aug-cc-pVTZ
scf_type     df
}

energy("mp2")
--------------------------------------------------------------------------

    Molecular point group: c1

    Geometry (in Angstrom), charge = 0, multiplicity = 1:

       Center              X                  Y                   Z               Mass
    ------------   -----------------  -----------------  -----------------  -----------------
      Gh(LI)          0.000000000000     0.000000000000     0.000000000000     7.016003436600
         O           -0.018395000000    -0.041580000000     1.983631000000    15.994914619570
         H           -0.386092000000    -0.854160000000     2.162791000000     1.007825032230
         H           -0.588807000000     0.602468000000     2.387195000000     1.007825032230
      Gh(O)           1.568867000000    -0.245466000000    -0.873446000000    15.994914619570
      Gh(H)           1.921565000000     0.450636000000    -1.498824000000     1.007825032230
      Gh(H)           1.715073000000    -1.117651000000    -1.298721000000     1.007825032230
      Gh(O)          -1.777084000000    -0.764231000000    -0.483763000000    15.994914619570
      Gh(H)          -1.639151000000    -1.700624000000    -0.297360000000     1.007825032230
      Gh(H)          -2.502232000000    -0.406567000000     0.104343000000     1.007825032230

  Charge       = 0
  Multiplicity = 1
  Basis Set: AUG-CC-PVTZ
    Blend: AUG-CC-PVTZ
  Basis Set: (AUG-CC-PVTZ AUX)
    Blend: AUG-CC-PVTZ-JKFIT + DEF2-UNIVERSAL-JKFIT

    Orbital Energies [Eh]
    ---------------------

    Doubly Occupied:

       1A    -20.561253     2A     -1.367237     3A     -0.736548
       4A     -0.586583     5A     -0.512266

  @DF-RHF Final Energy:   -76.06004215623679

   => Energetics <=

    Nuclear Repulsion Energy =              9.4641745635027590
    One-Electron Energy =                -123.5206592182950089
    Two-Electron Energy =                  37.9964424985554601
    Total Energy =                        -76.0600421562367899
 Dipole X            :          1.4831757           -2.1203842           -0.6372085
 Dipole Y            :          0.9828944           -1.1042274           -0.1213330
 Dipole Z            :        -38.1906685           38.5863820            0.3957135
 Magnitude           :                                                    0.7598326
  Basis Set: (AUG-CC-PVTZ AUX)
    Blend: AUG-CC-PVTZ-RI + DEF2-QZVPP-RI
	 Reference Energy          =     -76.0600421562367899 [Eh]
	 Singles Energy            =      -0.0000000000000000 [Eh]
	 Same-Spin Energy          =      -0.0679111116200661 [Eh]
	 Opposite-Spin Energy      =      -0.2143694460108842 [Eh]
	 Correlation Energy        =      -0.2822805576309503 [Eh]
	 Total Energy              =     -76.3423227138677447 [Eh]

	 ================> DF-SCS-MP2 Energies <==================
	-----------------------------------------------------------
	 SCS Same-Spin Scale       =       0.3333333333333333 [-]
	 SCS Opposite-Spin Scale   =       1.2000000000000000 [-]
	 SCS Same-Spin Energy      =      -0.0226370372066887 [Eh]
	 SCS Opposite-Spin Energy  =      -0.2572433352130610 [Eh]
	 SCS Correlation Energy    =      -0.2798803724197497 [Eh]
	 SCS Total Energy          =     -76.3399225286565439 [Eh]
	-----------------------------------------------------------

*** Psi4 exiting successfully. Buy a developer a beer!
