                               Psi4 1.8.2 release

  ==> Input File <==

--------------------------------------------------------------------------
MEMORY 60 GB

molecule dimer {
0 1
Gh(Li)     0.000000     0.000000     0.000000
Gh(O)      1.650053    -0.530993    -1.064242
Gh(H)      2.392035    -0.101949    -0.686952
Gh(H)      1.463285    -0.258144    -1.959656
Gh(O)     -0.289415    -0.712498     1.685242
Gh(H)     -1.101029    -0.657522     2.234823
Gh(H)     -0.070434    -1.611500     1.899930
O          0.217487     1.895362     0.182598
H         -0.273195     2.192923     0.988240
H          1.131525     2.307122     0.234605
Gh(O)     -1.285096    -0.509246    -1.306926
Gh(H)     -0.917246    -0.560268    -2.152485
Gh(H)     -1.585156    -1.421720    -1.166242

units ang
no_reorient
no_com
symmetry c1
}

set {
basis        aug-cc-pVTZ
scf_type     df
}

energy("mp2")
--------------------------------------------------------------------------

    Molecular point group: c1

    Geometry (in Angstrom), charge = 0, multiplicity = 1:

       Center              X                  Y                   Z               Mass
    ------------   -----------------  -----------------  -----------------  -----------------
      Gh(LI)          0.000000000000     0.000000000000     0.000000000000     7.016003436600
      Gh(O)           1.650053000000    -0.530993000000    -1.064242000000    15.994914619570
      Gh(H)           2.392035000000    -0.101949000000    -0.686952000000     1.007825032230
      Gh(H)           1.463285000000    -0.258144000000    -1.959656000000     1.007825032230
      Gh(O)          -0.289415000000    -0.712498000000     1.685242000000    15.994914619570
      Gh(H)          -1.101029000000    -0.657522000000     2.234823000000     1.007825032230
      Gh(H)          -0.070434000000    -1.611500000000     1.899930000000     1.007825032230
         O            0.217487000000     1.895362000000     0.182598000000    15.994914619570
         H           -0.273195000000     2.192923000000     0.988240000000     1.007825032230
         H            1.131525000000     2.307122000000     0.234605000000     1.007825032230
      Gh(O)          -1.285096000000    -0.509246000000    -1.306926000000    15.994914619570
      Gh(H)          -0.917246000000    -0.560268000000    -2.152485000000     1.007825032230
      Gh(H)          -1.585156000000    -1.421720000000    -1.166242000000     1.007825032230

  Charge       = 0
  Multiplicity = 1
  Basis Set: AUG-CC-PVTZ
    Blend: AUG-CC-PVTZ
  Basis Set: (AUG-CC-PVTZ AUX)
    Blend: AUG-CC-PVTZ-JKFIT + DEF2-UNIVERSAL-JKFIT

    Orbital Energies [Eh]
    ---------------------

    Doubly Occupied:

       1A    -20.572670     2A     -1.332770     3A     -0.700472
       4A     -0.573238     5A     -0.506573

  @DF-RHF Final Energy:   -76.05519341222022

   => Energetics <=

    Nuclear Repulsion Energy =              8.8282437517045977
    One-Electron Energy =                -122.3954220382796336
    Two-Electron Energy =                  37.5119848743548090
    Total Energy =                        -76.0551934122202198
 Dipole X            :         -4.6356716            4.9099356            0.2742639
 Dipole Y            :        -36.6944014           37.1575733            0.4631719
 Dipole Z            :         -4.5103348            5.0713238            0.5609891
 Magnitude           :                                                    0.7774688
  Basis Set: (AUG-CC-PVTZ AUX)
    Blend: AUG-CC-PVTZ-RI + DEF2-QZVPP-RI
	 Reference Energy          =     -76.0551934122202198 [Eh]
	 Singles Energy            =      -0.0000000000000000 [Eh]
	 Same-Spin Energy          =      -0.0690838261483995 [Eh]
	 Opposite-Spin Energy      =      -0.2180642850719998 [Eh]
	 Correlation Energy        =      -0.2871481112203993 [Eh]
	 Total Energy              =     -76.3423415234406235 [Eh]

	 ================> DF-SCS-MP2 Energies <==================
	-----------------------------------------------------------
	 SCS Same-Spin Scale       =       0.3333333333333333 [-]
	 SCS Opposite-Spin Scale   =       1.2000000000000000 [-]
	 SCS Same-Spin Energy      =      -0.0230279420494665 [Eh]
	 SCS Opposite-Spin Energy  =      -0.2616771420863997 [Eh]
	 SCS Correlation Energy    =      -0.2847050841358663 [Eh]
	 SCS Total Energy          =     -76.3398984963560849 [Eh]
	-----------------------------------------------------------

*** Psi4 exiting successfully. Buy a developer a beer!
