                               Psi4 1.8.2 release

  ==> Input File <==

--------------------------------------------------------------------------
MEMORY 60 GB

molecule dimer {
0 1
Gh(Li)     0.000000     0.000000     0.000000
O          1.624602    -0.599215     0.407332
H          1.779901    -1.053384     1.285034
H          1.968336    -1.288296    -0.194457
Gh(O)      0.015130     0.160288    -2.112000
Gh(H)     -0.400199    -0.626732    -2.426521
Gh(H)     -0.526316     0.911430    -2.400797
Gh(O)     -0.104266     2.062866     0.061524
Gh(H)      0.705352     2.549678    -0.205842
Gh(H)     -0.844368     2.633268     0.033918
Gh(O)     -1.648907    -0.748215     0.007261
Gh(H)     -1.595409    -1.659784    -0.142717
Gh(H)     -2.314959    -0.624781     0.666327

units ang
no_reorient
no_com
symmetry c1
}

set {
basis        aug-cc-pVTZ
scf_type     df
}

energy("mp2")
--------------------------------------------------------------------------

    Molecular point group: c1

    Geometry (in Angstrom), charge = 0, multiplicity = 1:

       Center              X                  Y                   Z               Mass
    ------------   -----------------  -----------------  -----------------  -----------------
      Gh(LI)          0.000000000000     0.000000000000     0.000000000000     7.016003436600
         O            1.624602000000    -0.599215000000     0.407332000000    15.994914619570
         H            1.779901000000    -1.053384000000     1.285034000000     1.007825032230
         H            1.968336000000    -1.288296000000    -0.194457000000     1.007825032230
      Gh(O)           0.015130000000     0.160288000000    -2.112000000000    15.994914619570
      Gh(H)          -0.400199000000    -0.626732000000    -2.426521000000     1.007825032230
      Gh(H)          -0.526316000000     0.911430000000    -2.400797000000     1.007825032230
      Gh(O)          -0.104266000000     2.062866000000     0.061524000000    15.994914619570
      Gh(H)           0.705352000000     2.549678000000    -0.205842000000     1.007825032230
      Gh(H)          -0.844368000000     2.633268000000     0.033918000000     1.007825032230
      Gh(O)          -1.648907000000    -0.748215000000     0.007261000000    15.994914619570
      Gh(H)          -1.595409000000    -1.659784000000    -0.142717000000     1.007825032230
      Gh(H)          -2.314959000000    -0.624781000000     0.666327000000     1.007825032230

  Charge       = 0
  Multiplicity = 1
  Basis Set: AUG-CC-PVTZ
    Blend: AUG-CC-PVTZ
  Basis Set: (AUG-CC-PVTZ AUX)
    Blend: AUG-CC-PVTZ-JKFIT + DEF2-UNIVERSAL-JKFIT

    Orbital Energies [Eh]
    ---------------------

    Doubly Occupied:

       1A    -20.574590     2A     -1.341279     3A     -0.691391
       4A     -0.588343     5A     -0.509339

  @DF-RHF Final Energy:   -76.05595245587179

   => Energetics <=

    Nuclear Repulsion Energy =              8.9140253319973262
    One-Electron Energy =                -122.5300698473403855
    Two-Electron Energy =                  37.5600920594712804
    Total Energy =                        -76.0559524558717897
 Dipole X            :        -31.3218051           31.6435641            0.3217591
 Dipole Y            :         12.7480832          -13.4839518           -0.7358686
 Dipole Z            :         -8.0458594            8.2188592            0.1729998
 Magnitude           :                                                    0.8215597
  Basis Set: (AUG-CC-PVTZ AUX)
    Blend: AUG-CC-PVTZ-RI + DEF2-QZVPP-RI
	 Reference Energy          =     -76.0559524558717897 [Eh]
	 Singles Energy            =      -0.0000000000000000 [Eh]
	 Same-Spin Energy          =      -0.0691299047021823 [Eh]
	 Opposite-Spin Energy      =      -0.2182084630167313 [Eh]
	 Correlation Energy        =      -0.2873383677189137 [Eh]
	 Total Energy              =     -76.3432908235907064 [Eh]

	 ================> DF-SCS-MP2 Energies <==================
	-----------------------------------------------------------
	 SCS Same-Spin Scale       =       0.3333333333333333 [-]
	 SCS Opposite-Spin Scale   =       1.2000000000000000 [-]
	 SCS Same-Spin Energy      =      -0.0230433015673941 [Eh]
	 SCS Opposite-Spin Energy  =      -0.2618501556200776 [Eh]
	 SCS Correlation Energy    =      -0.2848934571874717 [Eh]
	 SCS Total Energy          =     -76.3408459130592547 [Eh]
	-----------------------------------------------------------

*** Psi4 exiting successfully. Buy a developer a beer!
