                               Psi4 1.8.2 release

  ==> Input File <==

--------------------------------------------------------------------------
MEMORY 60 GB

molecule dimer {
1 1
Li         0.000000     0.000000     0.000000
O         -1.829508    -0.641529    -0.116596
H         -2.245218    -1.401823     0.337083
H         -2.405229     0.147066     0.040068
O          1.045908    -1.319112     0.956515
H          0.891268    -2.074872     0.424262
H          1.373886    -1.802633     1.730328
O         -0.336450     1.237982     1.473212
H         -0.080217     1.043728     2.387034
H         -1.249922     1.540474     1.565383
O          0.944052     0.330530    -1.628880
H          1.016951    -0.286313    -2.447950
H          1.828938     0.753977    -1.669468

units ang
no_reorient
no_com
symmetry c1
}

set {
basis        aug-cc-pVTZ
scf_type     df
}

energy("mp2")
--------------------------------------------------------------------------

    Molecular point group: c1

    Geometry (in Angstrom), charge = 1, multiplicity = 1:

       Center              X                  Y                   Z               Mass
    ------------   -----------------  -----------------  -----------------  -----------------
         LI           0.000000000000     0.000000000000     0.000000000000     7.016003436600
         O           -1.829508000000    -0.641529000000    -0.116596000000    15.994914619570
         H           -2.245218000000    -1.401823000000     0.337083000000     1.007825032230
         H           -2.405229000000     0.147066000000     0.040068000000     1.007825032230
         O            1.045908000000    -1.319112000000     0.956515000000    15.994914619570
         H            0.891268000000    -2.074872000000     0.424262000000     1.007825032230
         H            1.373886000000    -1.802633000000     1.730328000000     1.007825032230
         O           -0.336450000000     1.237982000000     1.473212000000    15.994914619570
         H           -0.080217000000     1.043728000000     2.387034000000     1.007825032230
         H           -1.249922000000     1.540474000000     1.565383000000     1.007825032230
         O            0.944052000000     0.330530000000    -1.628880000000    15.994914619570
         H            1.016951000000    -0.286313000000    -2.447950000000     1.007825032230
         H            1.828938000000     0.753977000000    -1.669468000000     1.007825032230

  Charge       = 1
  Multiplicity = 1
  Basis Set: AUG-CC-PVTZ
    Blend: AUG-CC-PVTZ
  Basis Set: (AUG-CC-PVTZ AUX)
    Blend: AUG-CC-PVTZ-JKFIT + DEF2-UNIVERSAL-JKFIT

    Orbital Energies [Eh]
    ---------------------

    Doubly Occupied:

       1A    -20.752628     2A    -20.751028     3A    -20.747721
       4A    -20.745075     5A     -2.530663     6A     -1.547361
       7A     -1.533242     8A     -1.526520     9A     -1.515194
      10A     -0.901232    11A     -0.889504    12A     -0.883010
      13A     -0.861234    14A     -0.808048    15A     -0.787601
      16A     -0.781668    17A     -0.776319    18A     -0.718215
      19A     -0.697914    20A     -0.687787    21A     -0.681718

  @DF-RHF Final Energy:  -311.61185068998162

   => Energetics <=

    Nuclear Repulsion Energy =            163.9667050795007412
    One-Electron Energy =                -748.9097430841037522
    Two-Electron Energy =                 273.3311873146214452
    Total Energy =                       -311.6118506899816225
 Dipole X            :          3.9720053           -4.3039023           -0.3318970
 Dipole Y            :          8.9019754           -9.8595100           -0.9575346
 Dipole Z            :        -14.0302567           14.8168663            0.7866096
 Magnitude           :                                                    1.2828807
  Basis Set: (AUG-CC-PVTZ AUX)
    Blend: AUG-CC-PVTZ-RI + DEF2-QZVPP-RI
	 Reference Energy          =    -311.6118506899816225 [Eh]
	 Singles Energy            =      -0.0000000000000000 [Eh]
	 Same-Spin Energy          =      -0.2769792465763415 [Eh]
	 Opposite-Spin Energy      =      -0.8823224863652804 [Eh]
	 Correlation Energy        =      -1.1593017329416220 [Eh]
	 Total Energy              =    -312.7711524229232509 [Eh]

	 ================> DF-SCS-MP2 Energies <==================
	-----------------------------------------------------------
	 SCS Same-Spin Scale       =       0.3333333333333333 [-]
	 SCS Opposite-Spin Scale   =       1.2000000000000000 [-]
	 SCS Same-Spin Energy      =      -0.0923264155254472 [Eh]
	 SCS Opposite-Spin Energy  =      -1.0587869836383366 [Eh]
	 SCS Correlation Energy    =      -1.1511133991637839 [Eh]
	 SCS Total Energy          =    -312.7629640891453846 [Eh]
	-----------------------------------------------------------

*** Psi4 exiting successfully. Buy a developer a beer!
