                               Psi4 1.8.2 release

  ==> Input File <==

--------------------------------------------------------------------------
MEMORY 60 GB

molecule dimer {
1 1
Li         0.000000     0.000000     0.000000
O          1.891419    -0.158379     0.528671
H          2.349768    -0.987879     0.327543
H          1.829373    -0.013513     1.475622
O         -0.554841     1.482555     1.052622
H         -0.087815     1.879686     1.842708
H         -0.786767     2.214477     0.472406
O         -0.527123    -0.402664    -1.792316
H         -0.769570     0.305457    -2.402126
H         -0.735432    -1.286504    -2.275183

units ang
no_reorient
no_com
symmetry c1
}

set {
basis        aug-cc-pVTZ
scf_type     df
}

energy("mp2")
--------------------------------------------------------------------------

    Molecular point group: c1

    Geometry (in Angstrom), charge = 1, multiplicity = 1:

       Center              X                  Y                   Z               Mass
    ------------   -----------------  -----------------  -----------------  -----------------
         LI           0.000000000000     0.000000000000     0.000000000000     7.016003436600
         O            1.891419000000    -0.158379000000     0.528671000000    15.994914619570
         H            2.349768000000    -0.987879000000     0.327543000000     1.007825032230
         H            1.829373000000    -0.013513000000     1.475622000000     1.007825032230
         O           -0.554841000000     1.482555000000     1.052622000000    15.994914619570
         H           -0.087815000000     1.879686000000     1.842708000000     1.007825032230
         H           -0.786767000000     2.214477000000     0.472406000000     1.007825032230
         O           -0.527123000000    -0.402664000000    -1.792316000000    15.994914619570
         H           -0.769570000000     0.305457000000    -2.402126000000     1.007825032230
         H           -0.735432000000    -1.286504000000    -2.275183000000     1.007825032230

  Charge       = 1
  Multiplicity = 1
  Basis Set: AUG-CC-PVTZ
    Blend: AUG-CC-PVTZ
  Basis Set: (AUG-CC-PVTZ AUX)
    Blend: AUG-CC-PVTZ-JKFIT + DEF2-UNIVERSAL-JKFIT

    Orbital Energies [Eh]
    ---------------------

    Doubly Occupied:

       1A    -20.772948     2A    -20.772026     3A    -20.761197
       4A     -2.576035     5A     -1.551136     6A     -1.545625
       7A     -1.539696     8A     -0.926294     9A     -0.913911
      10A     -0.903004    11A     -0.805722    12A     -0.803327
      13A     -0.781850    14A     -0.721036    15A     -0.715727
      16A     -0.711667

  @DF-RHF Final Energy:  -235.53627955782923

   => Energetics <=

    Nuclear Repulsion Energy =             97.1132685960993172
    One-Electron Energy =                -511.6966921456833575
    Two-Electron Energy =                 179.0471439917548082
    Total Energy =                       -235.5362795578292321
 Dipole X            :        -15.3911387           15.6378560            0.2467173
 Dipole Y            :        -17.5911975           17.9218224            0.3306249
 Dipole Z            :          4.0726848           -4.2466190           -0.1739342
 Magnitude           :                                                    0.4477001
  Basis Set: (AUG-CC-PVTZ AUX)
    Blend: AUG-CC-PVTZ-RI + DEF2-QZVPP-RI
	 Reference Energy          =    -235.5362795578292321 [Eh]
	 Singles Energy            =      -0.0000000000000000 [Eh]
	 Same-Spin Energy          =      -0.2063469900105344 [Eh]
	 Opposite-Spin Energy      =      -0.6623341923757144 [Eh]
	 Correlation Energy        =      -0.8686811823862488 [Eh]
	 Total Energy              =    -236.4049607402154720 [Eh]

	 ================> DF-SCS-MP2 Energies <==================
	-----------------------------------------------------------
	 SCS Same-Spin Scale       =       0.3333333333333333 [-]
	 SCS Opposite-Spin Scale   =       1.2000000000000000 [-]
	 SCS Same-Spin Energy      =      -0.0687823300035114 [Eh]
	 SCS Opposite-Spin Energy  =      -0.7948010308508573 [Eh]
	 SCS Correlation Energy    =      -0.8635833608543687 [Eh]
	 SCS Total Energy          =    -236.3998629186835956 [Eh]
	-----------------------------------------------------------

*** Psi4 exiting successfully. Buy a developer a beer!
