                               Psi4 1.8.2 release

  ==> Input File <==

--------------------------------------------------------------------------
MEMORY 60 GB

molecule dimer {
0 1
Gh(Li)     0.000000     0.000000     0.000000
Gh(O)     -1.250276    -0.767961    -1.527750
Gh(H)     -0.774486    -1.486835    -1.895383
Gh(H)     -2.179176    -0.820415    -1.767325
O         -1.166798    -0.535753     1.661617
H         -0.741108    -0.764670     2.507558
H         -1.879153    -1.203534     1.673004
Gh(O)      0.410563     1.717860     0.405025
Gh(H)      0.955455     1.673867     1.174611
Gh(H)      1.000185     2.068463    -0.282656
Gh(O)      1.643875    -1.072325    -0.704594
Gh(H)      1.714216    -1.974251    -0.225525
Gh(H)      2.114756    -1.224097    -1.564307

units ang
no_reorient
no_com
symmetry c1
}

set {
basis        aug-cc-pVTZ
scf_type     df
}

energy("mp2")
--------------------------------------------------------------------------

    Molecular point group: c1

    Geometry (in Angstrom), charge = 0, multiplicity = 1:

       Center              X                  Y                   Z               Mass
    ------------   -----------------  -----------------  -----------------  -----------------
      Gh(LI)          0.000000000000     0.000000000000     0.000000000000     7.016003436600
      Gh(O)          -1.250276000000    -0.767961000000    -1.527750000000    15.994914619570
      Gh(H)          -0.774486000000    -1.486835000000    -1.895383000000     1.007825032230
      Gh(H)          -2.179176000000    -0.820415000000    -1.767325000000     1.007825032230
         O           -1.166798000000    -0.535753000000     1.661617000000    15.994914619570
         H           -0.741108000000    -0.764670000000     2.507558000000     1.007825032230
         H           -1.879153000000    -1.203534000000     1.673004000000     1.007825032230
      Gh(O)           0.410563000000     1.717860000000     0.405025000000    15.994914619570
      Gh(H)           0.955455000000     1.673867000000     1.174611000000     1.007825032230
      Gh(H)           1.000185000000     2.068463000000    -0.282656000000     1.007825032230
      Gh(O)           1.643875000000    -1.072325000000    -0.704594000000    15.994914619570
      Gh(H)           1.714216000000    -1.974251000000    -0.225525000000     1.007825032230
      Gh(H)           2.114756000000    -1.224097000000    -1.564307000000     1.007825032230

  Charge       = 0
  Multiplicity = 1
  Basis Set: AUG-CC-PVTZ
    Blend: AUG-CC-PVTZ
  Basis Set: (AUG-CC-PVTZ AUX)
    Blend: AUG-CC-PVTZ-JKFIT + DEF2-UNIVERSAL-JKFIT

    Orbital Energies [Eh]
    ---------------------

    Doubly Occupied:

       1A    -20.572723     2A     -1.348574     3A     -0.696155
       4A     -0.593105     5A     -0.510614

  @DF-RHF Final Energy:   -76.05777033865006

   => Energetics <=

    Nuclear Repulsion Energy =              9.0386019759992653
    One-Electron Energy =                -122.7504000040834029
    Two-Electron Energy =                  37.6540276894340735
    Total Energy =                        -76.0577703386500588
 Dipole X            :         22.4058726          -22.5910050           -0.1851324
 Dipole Y            :         11.2392560          -11.8187780           -0.5795220
 Dipole Z            :        -32.4654331           33.0201257            0.5546925
 Magnitude           :                                                    0.8232883
  Basis Set: (AUG-CC-PVTZ AUX)
    Blend: AUG-CC-PVTZ-RI + DEF2-QZVPP-RI
	 Reference Energy          =     -76.0577703386500588 [Eh]
	 Singles Energy            =      -0.0000000000000000 [Eh]
	 Same-Spin Energy          =      -0.0688964722077426 [Eh]
	 Opposite-Spin Energy      =      -0.2172534828165016 [Eh]
	 Correlation Energy        =      -0.2861499550242442 [Eh]
	 Total Energy              =     -76.3439202936743015 [Eh]

	 ================> DF-SCS-MP2 Energies <==================
	-----------------------------------------------------------
	 SCS Same-Spin Scale       =       0.3333333333333333 [-]
	 SCS Opposite-Spin Scale   =       1.2000000000000000 [-]
	 SCS Same-Spin Energy      =      -0.0229654907359142 [Eh]
	 SCS Opposite-Spin Energy  =      -0.2607041793798019 [Eh]
	 SCS Correlation Energy    =      -0.2836696701157161 [Eh]
	 SCS Total Energy          =     -76.3414400087657725 [Eh]
	-----------------------------------------------------------

*** Psi4 exiting successfully. Buy a developer a beer!
