                               Psi4 1.8.2 release

  ==> Input File <==

--------------------------------------------------------------------------
MEMORY 60 GB

molecule dimer {
0 1
Gh(Li)     0.000000     0.000000     0.000000
Gh(O)      0.699917    -1.605590    -0.538374
Gh(H)      0.331929    -2.479437    -0.070724
Gh(H)      1.595037    -1.827290    -0.867616
O         -0.415776     0.409880     1.974965
H         -0.632469    -0.216349     2.683802
H         -1.094302     1.112373     2.095595
Gh(O)      1.114874     1.438486    -0.655299
Gh(H)      2.041900     1.265101    -0.736658
Gh(H)      0.981857     2.289101    -0.189952
Gh(O)     -1.728885     0.283644    -1.130470
Gh(H)     -1.722627    -0.186960    -2.021005
Gh(H)     -2.497560    -0.024047    -0.644402

units ang
no_reorient
no_com
symmetry c1
}

set {
basis        aug-cc-pVTZ
scf_type     df
}

energy("mp2")
--------------------------------------------------------------------------

    Molecular point group: c1

    Geometry (in Angstrom), charge = 0, multiplicity = 1:

       Center              X                  Y                   Z               Mass
    ------------   -----------------  -----------------  -----------------  -----------------
      Gh(LI)          0.000000000000     0.000000000000     0.000000000000     7.016003436600
      Gh(O)           0.699917000000    -1.605590000000    -0.538374000000    15.994914619570
      Gh(H)           0.331929000000    -2.479437000000    -0.070724000000     1.007825032230
      Gh(H)           1.595037000000    -1.827290000000    -0.867616000000     1.007825032230
         O           -0.415776000000     0.409880000000     1.974965000000    15.994914619570
         H           -0.632469000000    -0.216349000000     2.683802000000     1.007825032230
         H           -1.094302000000     1.112373000000     2.095595000000     1.007825032230
      Gh(O)           1.114874000000     1.438486000000    -0.655299000000    15.994914619570
      Gh(H)           2.041900000000     1.265101000000    -0.736658000000     1.007825032230
      Gh(H)           0.981857000000     2.289101000000    -0.189952000000     1.007825032230
      Gh(O)          -1.728885000000     0.283644000000    -1.130470000000    15.994914619570
      Gh(H)          -1.722627000000    -0.186960000000    -2.021005000000     1.007825032230
      Gh(H)          -2.497560000000    -0.024047000000    -0.644402000000     1.007825032230

  Charge       = 0
  Multiplicity = 1
  Basis Set: AUG-CC-PVTZ
    Blend: AUG-CC-PVTZ
  Basis Set: (AUG-CC-PVTZ AUX)
    Blend: AUG-CC-PVTZ-JKFIT + DEF2-UNIVERSAL-JKFIT

    Orbital Energies [Eh]
    ---------------------

    Doubly Occupied:

       1A    -20.571314     2A     -1.344787     3A     -0.703175
       4A     -0.584810     5A     -0.509300

  @DF-RHF Final Energy:   -76.05845155062494

   => Energetics <=

    Nuclear Repulsion Energy =              9.0116957815845833
    One-Electron Energy =                -122.7135206029149685
    Two-Electron Energy =                  37.6433732707054531
    Total Energy =                        -76.0584515506249375
 Dipole X            :          8.9650693           -9.5487464           -0.5836771
 Dipole Y            :         -7.8420881            7.8897275            0.0476394
 Dipole Z            :        -38.3461463           38.8888950            0.5427487
 Magnitude           :                                                    0.7984514
  Basis Set: (AUG-CC-PVTZ AUX)
    Blend: AUG-CC-PVTZ-RI + DEF2-QZVPP-RI
	 Reference Energy          =     -76.0584515506249375 [Eh]
	 Singles Energy            =      -0.0000000000000000 [Eh]
	 Same-Spin Energy          =      -0.0688130774730413 [Eh]
	 Opposite-Spin Energy      =      -0.2170850937622947 [Eh]
	 Correlation Energy        =      -0.2858981712353361 [Eh]
	 Total Energy              =     -76.3443497218602687 [Eh]

	 ================> DF-SCS-MP2 Energies <==================
	-----------------------------------------------------------
	 SCS Same-Spin Scale       =       0.3333333333333333 [-]
	 SCS Opposite-Spin Scale   =       1.2000000000000000 [-]
	 SCS Same-Spin Energy      =      -0.0229376924910138 [Eh]
	 SCS Opposite-Spin Energy  =      -0.2605021125147537 [Eh]
	 SCS Correlation Energy    =      -0.2834398050057675 [Eh]
	 SCS Total Energy          =     -76.3418913556307075 [Eh]
	-----------------------------------------------------------

*** Psi4 exiting successfully. Buy a developer a beer!
