                               Psi4 1.8.2 release

  ==> Input File <==

--------------------------------------------------------------------------
MEMORY 60 GB

molecule dimer {
1 1
Li         0.000000     0.000000     0.000000
O          0.552963    -1.749645     0.131307
H          1.284114    -2.048599    -0.399136
H          0.552090    -2.127656     1.036364
O          1.541907     1.226823    -0.519578
H          1.551480     2.047459     0.018367
H          1.441348     1.555636    -1.465228
O         -0.063798     0.553262     1.985834
H          0.380477     1.157738     2.576072
H         -0.932985     0.385820     2.447181
O         -1.255138     0.486686    -1.137426
H         -1.106484     0.045005    -1.941916
H         -1.576557     1.362913    -1.297025

units ang
no_reorient
no_com
symmetry c1
}

set {
basis        aug-cc-pVTZ
scf_type     df
}

energy("mp2")
--------------------------------------------------------------------------

    Molecular point group: c1

    Geometry (in Angstrom), charge = 1, multiplicity = 1:

       Center              X                  Y                   Z               Mass
    ------------   -----------------  -----------------  -----------------  -----------------
         LI           0.000000000000     0.000000000000     0.000000000000     7.016003436600
         O            0.552963000000    -1.749645000000     0.131307000000    15.994914619570
         H            1.284114000000    -2.048599000000    -0.399136000000     1.007825032230
         H            0.552090000000    -2.127656000000     1.036364000000     1.007825032230
         O            1.541907000000     1.226823000000    -0.519578000000    15.994914619570
         H            1.551480000000     2.047459000000     0.018367000000     1.007825032230
         H            1.441348000000     1.555636000000    -1.465228000000     1.007825032230
         O           -0.063798000000     0.553262000000     1.985834000000    15.994914619570
         H            0.380477000000     1.157738000000     2.576072000000     1.007825032230
         H           -0.932985000000     0.385820000000     2.447181000000     1.007825032230
         O           -1.255138000000     0.486686000000    -1.137426000000    15.994914619570
         H           -1.106484000000     0.045005000000    -1.941916000000     1.007825032230
         H           -1.576557000000     1.362913000000    -1.297025000000     1.007825032230

  Charge       = 1
  Multiplicity = 1
  Basis Set: AUG-CC-PVTZ
    Blend: AUG-CC-PVTZ
  Basis Set: (AUG-CC-PVTZ AUX)
    Blend: AUG-CC-PVTZ-JKFIT + DEF2-UNIVERSAL-JKFIT

    Orbital Energies [Eh]
    ---------------------

    Doubly Occupied:

       1A    -20.753917     2A    -20.747917     3A    -20.746650
       4A    -20.740925     5A     -2.522469     6A     -1.562235
       7A     -1.529023     8A     -1.526111     9A     -1.514839
      10A     -0.938469    11A     -0.910029    12A     -0.885923
      13A     -0.873569    14A     -0.801790    15A     -0.786752
      16A     -0.769661    17A     -0.763694    18A     -0.724863
      19A     -0.698499    20A     -0.689452    21A     -0.682143

  @DF-RHF Final Energy:  -311.61851490996503

   => Energetics <=

    Nuclear Repulsion Energy =            165.0659366311894871
    One-Electron Energy =                -751.0310399516979487
    Two-Electron Energy =                 274.3465884105434043
    Total Energy =                       -311.6185149099650289
 Dipole X            :        -14.6187880           14.7416685            0.1228805
 Dipole Y            :        -11.3610860           12.3121780            0.9510920
 Dipole Z            :         -8.6996665            8.7981397            0.0984731
 Magnitude           :                                                    0.9640397
  Basis Set: (AUG-CC-PVTZ AUX)
    Blend: AUG-CC-PVTZ-RI + DEF2-QZVPP-RI
	 Reference Energy          =    -311.6185149099650289 [Eh]
	 Singles Energy            =      -0.0000000000000000 [Eh]
	 Same-Spin Energy          =      -0.2758854226852886 [Eh]
	 Opposite-Spin Energy      =      -0.8793590658774888 [Eh]
	 Correlation Energy        =      -1.1552444885627775 [Eh]
	 Total Energy              =    -312.7737593985278295 [Eh]

	 ================> DF-SCS-MP2 Energies <==================
	-----------------------------------------------------------
	 SCS Same-Spin Scale       =       0.3333333333333333 [-]
	 SCS Opposite-Spin Scale   =       1.2000000000000000 [-]
	 SCS Same-Spin Energy      =      -0.0919618075617629 [Eh]
	 SCS Opposite-Spin Energy  =      -1.0552308790529865 [Eh]
	 SCS Correlation Energy    =      -1.1471926866147495 [Eh]
	 SCS Total Energy          =    -312.7657075965797731 [Eh]
	-----------------------------------------------------------

*** Psi4 exiting successfully. Buy a developer a beer!
