                               Psi4 1.8.2 release

  ==> Input File <==

--------------------------------------------------------------------------
MEMORY 60 GB

molecule dimer {
1 1
Li         0.000000     0.000000     0.000000
O         -1.666848    -0.230775    -0.571178
H         -2.403845    -0.078846     0.061316
H         -1.852157    -1.160914    -0.900576
O          0.811830     1.681269     0.295015
H          1.209914     1.723784     1.184017
H          1.431522     2.147366    -0.312900
O          1.245948    -0.573251    -1.667623
H          0.710361    -0.536181    -2.500262
H          1.978230    -0.048153    -1.882404

units ang
no_reorient
no_com
symmetry c1
}

set {
basis        aug-cc-pVTZ
scf_type     df
}

energy("mp2")
--------------------------------------------------------------------------

    Molecular point group: c1

    Geometry (in Angstrom), charge = 1, multiplicity = 1:

       Center              X                  Y                   Z               Mass
    ------------   -----------------  -----------------  -----------------  -----------------
         LI           0.000000000000     0.000000000000     0.000000000000     7.016003436600
         O           -1.666848000000    -0.230775000000    -0.571178000000    15.994914619570
         H           -2.403845000000    -0.078846000000     0.061316000000     1.007825032230
         H           -1.852157000000    -1.160914000000    -0.900576000000     1.007825032230
         O            0.811830000000     1.681269000000     0.295015000000    15.994914619570
         H            1.209914000000     1.723784000000     1.184017000000     1.007825032230
         H            1.431522000000     2.147366000000    -0.312900000000     1.007825032230
         O            1.245948000000    -0.573251000000    -1.667623000000    15.994914619570
         H            0.710361000000    -0.536181000000    -2.500262000000     1.007825032230
         H            1.978230000000    -0.048153000000    -1.882404000000     1.007825032230

  Charge       = 1
  Multiplicity = 1
  Basis Set: AUG-CC-PVTZ
    Blend: AUG-CC-PVTZ
  Basis Set: (AUG-CC-PVTZ AUX)
    Blend: AUG-CC-PVTZ-JKFIT + DEF2-UNIVERSAL-JKFIT

    Orbital Energies [Eh]
    ---------------------

    Doubly Occupied:

       1A    -20.783337     2A    -20.771409     3A    -20.752578
       4A     -2.580671     5A     -1.556961     6A     -1.549972
       7A     -1.542596     8A     -0.914998     9A     -0.911211
      10A     -0.897277    11A     -0.820399    12A     -0.802784
      13A     -0.786607    14A     -0.734447    15A     -0.724403
      16A     -0.697771

  @DF-RHF Final Energy:  -235.52998734626681

   => Energetics <=

    Nuclear Repulsion Energy =             98.9497870618555453
    One-Electron Energy =                -515.3047032616375418
    Two-Electron Energy =                 180.8249288535151891
    Total Energy =                       -235.5299873462668074
 Dipole X            :         -7.7580793            7.9396182            0.1815388
 Dipole Y            :        -16.7449941           17.1303673            0.3853733
 Dipole Z            :         37.0275694          -37.6076229           -0.5800535
 Magnitude           :                                                    0.7196742
  Basis Set: (AUG-CC-PVTZ AUX)
    Blend: AUG-CC-PVTZ-RI + DEF2-QZVPP-RI
	 Reference Energy          =    -235.5299873462668074 [Eh]
	 Singles Energy            =      -0.0000000000000000 [Eh]
	 Same-Spin Energy          =      -0.2066421861959963 [Eh]
	 Opposite-Spin Energy      =      -0.6627815926683898 [Eh]
	 Correlation Energy        =      -0.8694237788643862 [Eh]
	 Total Energy              =    -236.3994111251311949 [Eh]

	 ================> DF-SCS-MP2 Energies <==================
	-----------------------------------------------------------
	 SCS Same-Spin Scale       =       0.3333333333333333 [-]
	 SCS Opposite-Spin Scale   =       1.2000000000000000 [-]
	 SCS Same-Spin Energy      =      -0.0688807287319988 [Eh]
	 SCS Opposite-Spin Energy  =      -0.7953379112020676 [Eh]
	 SCS Correlation Energy    =      -0.8642186399340664 [Eh]
	 SCS Total Energy          =    -236.3942059862008875 [Eh]
	-----------------------------------------------------------

*** Psi4 exiting successfully. Buy a developer a beer!
