                               Psi4 1.8.2 release

  ==> Input File <==

--------------------------------------------------------------------------
MEMORY 60 GB

molecule dimer {
0 1
Gh(Li)     0.000000     0.000000     0.000000
Gh(O)      0.699917    -1.605590    -0.538374
Gh(H)      0.331929    -2.479437    -0.070724
Gh(H)      1.595037    -1.827290    -0.867616
Gh(O)     -0.415776     0.409880     1.974965
Gh(H)     -0.632469    -0.216349     2.683802
Gh(H)     -1.094302     1.112373     2.095595
Gh(O)      1.114874     1.438486    -0.655299
Gh(H)      2.041900     1.265101    -0.736658
Gh(H)      0.981857     2.289101    -0.189952
O         -1.728885     0.283644    -1.130470
H         -1.722627    -0.186960    -2.021005
H         -2.497560    -0.024047    -0.644402

units ang
no_reorient
no_com
symmetry c1
}

set {
basis        aug-cc-pVTZ
scf_type     df
}

energy("mp2")
--------------------------------------------------------------------------

    Molecular point group: c1

    Geometry (in Angstrom), charge = 0, multiplicity = 1:

       Center              X                  Y                   Z               Mass
    ------------   -----------------  -----------------  -----------------  -----------------
      Gh(LI)          0.000000000000     0.000000000000     0.000000000000     7.016003436600
      Gh(O)           0.699917000000    -1.605590000000    -0.538374000000    15.994914619570
      Gh(H)           0.331929000000    -2.479437000000    -0.070724000000     1.007825032230
      Gh(H)           1.595037000000    -1.827290000000    -0.867616000000     1.007825032230
      Gh(O)          -0.415776000000     0.409880000000     1.974965000000    15.994914619570
      Gh(H)          -0.632469000000    -0.216349000000     2.683802000000     1.007825032230
      Gh(H)          -1.094302000000     1.112373000000     2.095595000000     1.007825032230
      Gh(O)           1.114874000000     1.438486000000    -0.655299000000    15.994914619570
      Gh(H)           2.041900000000     1.265101000000    -0.736658000000     1.007825032230
      Gh(H)           0.981857000000     2.289101000000    -0.189952000000     1.007825032230
         O           -1.728885000000     0.283644000000    -1.130470000000    15.994914619570
         H           -1.722627000000    -0.186960000000    -2.021005000000     1.007825032230
         H           -2.497560000000    -0.024047000000    -0.644402000000     1.007825032230

  Charge       = 0
  Multiplicity = 1
  Basis Set: AUG-CC-PVTZ
    Blend: AUG-CC-PVTZ
  Basis Set: (AUG-CC-PVTZ AUX)
    Blend: AUG-CC-PVTZ-JKFIT + DEF2-UNIVERSAL-JKFIT

    Orbital Energies [Eh]
    ---------------------

    Doubly Occupied:

       1A    -20.569974     2A     -1.338637     3A     -0.709254
       4A     -0.573596     5A     -0.507277

  @DF-RHF Final Energy:   -76.05657758235647

   => Energetics <=

    Nuclear Repulsion Energy =              8.9454814273847933
    One-Electron Energy =                -122.6066395272772951
    Two-Electron Energy =                  37.6045805175360357
    Total Energy =                        -76.0565775823564678
 Dipole X            :         33.6047704          -34.1119508           -0.5071804
 Dipole Y            :         -4.4023426            3.8893304           -0.5130122
 Dipole Z            :         21.8663060          -22.1271188           -0.2608128
 Magnitude           :                                                    0.7670964
  Basis Set: (AUG-CC-PVTZ AUX)
    Blend: AUG-CC-PVTZ-RI + DEF2-QZVPP-RI
	 Reference Energy          =     -76.0565775823564678 [Eh]
	 Singles Energy            =      -0.0000000000000000 [Eh]
	 Same-Spin Energy          =      -0.0688231612654569 [Eh]
	 Opposite-Spin Energy      =      -0.2171781824684043 [Eh]
	 Correlation Energy        =      -0.2860013437338612 [Eh]
	 Total Energy              =     -76.3425789260903258 [Eh]

	 ================> DF-SCS-MP2 Energies <==================
	-----------------------------------------------------------
	 SCS Same-Spin Scale       =       0.3333333333333333 [-]
	 SCS Opposite-Spin Scale   =       1.2000000000000000 [-]
	 SCS Same-Spin Energy      =      -0.0229410537551523 [Eh]
	 SCS Opposite-Spin Energy  =      -0.2606138189620852 [Eh]
	 SCS Correlation Energy    =      -0.2835548727172375 [Eh]
	 SCS Total Energy          =     -76.3401324550737002 [Eh]
	-----------------------------------------------------------

*** Psi4 exiting successfully. Buy a developer a beer!
