                               Psi4 1.8.2 release

  ==> Input File <==

--------------------------------------------------------------------------
MEMORY 60 GB

molecule dimer {
0 1
Gh(Li)     0.000000     0.000000     0.000000
Gh(O)      1.865459    -0.354169     0.201545
Gh(H)      2.093877    -0.548368     1.130116
Gh(H)      2.178545    -1.139580    -0.260272
O          0.175866     1.813815     0.284345
H         -0.515507     2.243153     0.826268
H          0.889311     1.834078     0.952204
Gh(O)     -0.923465    -0.274645    -1.649009
Gh(H)     -0.830755     0.486977    -2.218102
Gh(H)     -1.826401    -0.476768    -1.767965
Gh(O)     -1.217772    -1.202794     1.092934
Gh(H)     -1.879809    -1.607959     0.562364
Gh(H)     -1.655044    -0.939992     1.956239

units ang
no_reorient
no_com
symmetry c1
}

set {
basis        aug-cc-pVTZ
scf_type     df
}

energy("mp2")
--------------------------------------------------------------------------

    Molecular point group: c1

    Geometry (in Angstrom), charge = 0, multiplicity = 1:

       Center              X                  Y                   Z               Mass
    ------------   -----------------  -----------------  -----------------  -----------------
      Gh(LI)          0.000000000000     0.000000000000     0.000000000000     7.016003436600
      Gh(O)           1.865459000000    -0.354169000000     0.201545000000    15.994914619570
      Gh(H)           2.093877000000    -0.548368000000     1.130116000000     1.007825032230
      Gh(H)           2.178545000000    -1.139580000000    -0.260272000000     1.007825032230
         O            0.175866000000     1.813815000000     0.284345000000    15.994914619570
         H           -0.515507000000     2.243153000000     0.826268000000     1.007825032230
         H            0.889311000000     1.834078000000     0.952204000000     1.007825032230
      Gh(O)          -0.923465000000    -0.274645000000    -1.649009000000    15.994914619570
      Gh(H)          -0.830755000000     0.486977000000    -2.218102000000     1.007825032230
      Gh(H)          -1.826401000000    -0.476768000000    -1.767965000000     1.007825032230
      Gh(O)          -1.217772000000    -1.202794000000     1.092934000000    15.994914619570
      Gh(H)          -1.879809000000    -1.607959000000     0.562364000000     1.007825032230
      Gh(H)          -1.655044000000    -0.939992000000     1.956239000000     1.007825032230

  Charge       = 0
  Multiplicity = 1
  Basis Set: AUG-CC-PVTZ
    Blend: AUG-CC-PVTZ
  Basis Set: (AUG-CC-PVTZ AUX)
    Blend: AUG-CC-PVTZ-JKFIT + DEF2-UNIVERSAL-JKFIT

    Orbital Energies [Eh]
    ---------------------

    Doubly Occupied:

       1A    -20.573577     2A     -1.348285     3A     -0.692706
       4A     -0.594884     5A     -0.510784

  @DF-RHF Final Energy:   -76.05707272906764

   => Energetics <=

    Nuclear Repulsion Energy =              9.0210478802391290
    One-Electron Energy =                -122.7157663446743072
    Two-Electron Energy =                  37.6376457353675349
    Total Energy =                        -76.0570727290676416
 Dipole X            :         -3.3507755            3.3650958            0.0143202
 Dipole Y            :        -34.8360472           35.1257587            0.2897115
 Dipole Z            :         -6.8806691            7.6594984            0.7788293
 Magnitude           :                                                    0.8310914
  Basis Set: (AUG-CC-PVTZ AUX)
    Blend: AUG-CC-PVTZ-RI + DEF2-QZVPP-RI
	 Reference Energy          =     -76.0570727290676416 [Eh]
	 Singles Energy            =      -0.0000000000000000 [Eh]
	 Same-Spin Energy          =      -0.0690014136776890 [Eh]
	 Opposite-Spin Energy      =      -0.2177164906311453 [Eh]
	 Correlation Energy        =      -0.2867179043088344 [Eh]
	 Total Energy              =     -76.3437906333764715 [Eh]

	 ================> DF-SCS-MP2 Energies <==================
	-----------------------------------------------------------
	 SCS Same-Spin Scale       =       0.3333333333333333 [-]
	 SCS Opposite-Spin Scale   =       1.2000000000000000 [-]
	 SCS Same-Spin Energy      =      -0.0230004712258963 [Eh]
	 SCS Opposite-Spin Energy  =      -0.2612597887573744 [Eh]
	 SCS Correlation Energy    =      -0.2842602599832707 [Eh]
	 SCS Total Energy          =     -76.3413329890509118 [Eh]
	-----------------------------------------------------------

*** Psi4 exiting successfully. Buy a developer a beer!
