                               Psi4 1.8.2 release

  ==> Input File <==

--------------------------------------------------------------------------
MEMORY 60 GB

molecule dimer {
0 1
Gh(Li)     0.000000     0.000000     0.000000
O          0.430496    -1.782940     0.114535
H         -0.122461    -2.196776     0.778018
H          0.095863    -2.257410    -0.608199
Gh(O)     -0.871002     0.606188     1.579229
Gh(H)     -1.261790     1.443134     1.764322
Gh(H)     -0.325521     0.477508     2.360804
Gh(O)     -1.263445     0.240469    -1.487618
Gh(H)     -1.400715    -0.414623    -2.199240
Gh(H)     -1.655584     1.079449    -1.825628
Gh(O)      1.839475     0.772754    -0.481884
Gh(H)      2.223970     0.990559     0.396906
Gh(H)      1.766020     1.624400    -0.919013

units ang
no_reorient
no_com
symmetry c1
}

set {
basis        aug-cc-pVTZ
scf_type     df
}

energy("mp2")
--------------------------------------------------------------------------

    Molecular point group: c1

    Geometry (in Angstrom), charge = 0, multiplicity = 1:

       Center              X                  Y                   Z               Mass
    ------------   -----------------  -----------------  -----------------  -----------------
      Gh(LI)          0.000000000000     0.000000000000     0.000000000000     7.016003436600
         O            0.430496000000    -1.782940000000     0.114535000000    15.994914619570
         H           -0.122461000000    -2.196776000000     0.778018000000     1.007825032230
         H            0.095863000000    -2.257410000000    -0.608199000000     1.007825032230
      Gh(O)          -0.871002000000     0.606188000000     1.579229000000    15.994914619570
      Gh(H)          -1.261790000000     1.443134000000     1.764322000000     1.007825032230
      Gh(H)          -0.325521000000     0.477508000000     2.360804000000     1.007825032230
      Gh(O)          -1.263445000000     0.240469000000    -1.487618000000    15.994914619570
      Gh(H)          -1.400715000000    -0.414623000000    -2.199240000000     1.007825032230
      Gh(H)          -1.655584000000     1.079449000000    -1.825628000000     1.007825032230
      Gh(O)           1.839475000000     0.772754000000    -0.481884000000    15.994914619570
      Gh(H)           2.223970000000     0.990559000000     0.396906000000     1.007825032230
      Gh(H)           1.766020000000     1.624400000000    -0.919013000000     1.007825032230

  Charge       = 0
  Multiplicity = 1
  Basis Set: AUG-CC-PVTZ
    Blend: AUG-CC-PVTZ
  Basis Set: (AUG-CC-PVTZ AUX)
    Blend: AUG-CC-PVTZ-JKFIT + DEF2-UNIVERSAL-JKFIT

    Orbital Energies [Eh]
    ---------------------

    Doubly Occupied:

       1A    -20.567493     2A     -1.367962     3A     -0.708785
       4A     -0.603903     5A     -0.513864

  @DF-RHF Final Energy:   -76.05809592717253

   => Energetics <=

    Nuclear Repulsion Energy =              9.3635256168333303
    One-Electron Energy =                -123.3192261817094391
    Two-Electron Energy =                  37.8976046377035800
    Total Energy =                        -76.0580959271725305
 Dipole X            :         -7.0391949            6.4578934           -0.5813016
 Dipole Y            :         34.7878030          -35.3713380           -0.5835351
 Dipole Z            :         -2.0976923            2.0524297           -0.0452627
 Magnitude           :                                                    0.8249081
  Basis Set: (AUG-CC-PVTZ AUX)
    Blend: AUG-CC-PVTZ-RI + DEF2-QZVPP-RI
	 Reference Energy          =     -76.0580959271725305 [Eh]
	 Singles Energy            =      -0.0000000000000000 [Eh]
	 Same-Spin Energy          =      -0.0684067509904111 [Eh]
	 Opposite-Spin Energy      =      -0.2158317975556523 [Eh]
	 Correlation Energy        =      -0.2842385485460634 [Eh]
	 Total Energy              =     -76.3423344757185873 [Eh]

	 ================> DF-SCS-MP2 Energies <==================
	-----------------------------------------------------------
	 SCS Same-Spin Scale       =       0.3333333333333333 [-]
	 SCS Opposite-Spin Scale   =       1.2000000000000000 [-]
	 SCS Same-Spin Energy      =      -0.0228022503301370 [Eh]
	 SCS Opposite-Spin Energy  =      -0.2589981570667828 [Eh]
	 SCS Correlation Energy    =      -0.2818004073969198 [Eh]
	 SCS Total Energy          =     -76.3398963345694455 [Eh]
	-----------------------------------------------------------

*** Psi4 exiting successfully. Buy a developer a beer!
