                               Psi4 1.8.2 release

  ==> Input File <==

--------------------------------------------------------------------------
MEMORY 60 GB

molecule dimer {
1 1
Li         0.000000     0.000000     0.000000
Gh(O)      0.961071     1.351951     1.068468
Gh(H)      0.543505     2.245666     1.123463
Gh(H)      1.894820     1.439035     0.841481
Gh(O)      1.418184    -0.868693    -1.271038
Gh(H)      2.348027    -0.958677    -0.873231
Gh(H)      1.382908    -1.525987    -1.963044
Gh(O)     -1.084978    -1.202284     1.231747
Gh(H)     -1.926492    -1.041220     1.657002
Gh(H)     -0.514799    -1.668475     1.817292
Gh(O)     -1.045399     0.614483    -1.372430
Gh(H)     -0.839504     1.531726    -1.726197
Gh(H)     -1.458688     0.162252    -2.113895

units ang
no_reorient
no_com
symmetry c1
}

set {
basis        aug-cc-pVTZ
scf_type     df
}

energy("mp2")
--------------------------------------------------------------------------

    Molecular point group: c1

    Geometry (in Angstrom), charge = 1, multiplicity = 1:

       Center              X                  Y                   Z               Mass
    ------------   -----------------  -----------------  -----------------  -----------------
         LI           0.000000000000     0.000000000000     0.000000000000     7.016003436600
      Gh(O)           0.961071000000     1.351951000000     1.068468000000    15.994914619570
      Gh(H)           0.543505000000     2.245666000000     1.123463000000     1.007825032230
      Gh(H)           1.894820000000     1.439035000000     0.841481000000     1.007825032230
      Gh(O)           1.418184000000    -0.868693000000    -1.271038000000    15.994914619570
      Gh(H)           2.348027000000    -0.958677000000    -0.873231000000     1.007825032230
      Gh(H)           1.382908000000    -1.525987000000    -1.963044000000     1.007825032230
      Gh(O)          -1.084978000000    -1.202284000000     1.231747000000    15.994914619570
      Gh(H)          -1.926492000000    -1.041220000000     1.657002000000     1.007825032230
      Gh(H)          -0.514799000000    -1.668475000000     1.817292000000     1.007825032230
      Gh(O)          -1.045399000000     0.614483000000    -1.372430000000    15.994914619570
      Gh(H)          -0.839504000000     1.531726000000    -1.726197000000     1.007825032230
      Gh(H)          -1.458688000000     0.162252000000    -2.113895000000     1.007825032230

  Charge       = 1
  Multiplicity = 1
  Basis Set: AUG-CC-PVTZ
    Blend: AUG-CC-PVTZ
  Basis Set: (AUG-CC-PVTZ AUX)
    Blend: AUG-CC-PVTZ-JKFIT + DEF2-UNIVERSAL-JKFIT

    Orbital Energies [Eh]
    ---------------------

    Doubly Occupied:

       1A     -2.792354

  @DF-RHF Final Energy:    -7.23638481647157

   => Energetics <=

    Nuclear Repulsion Energy =              0.0000000000000000
    One-Electron Energy =                  -8.8880620904088321
    Two-Electron Energy =                   1.6516772739372618
    Total Energy =                         -7.2363848164715705
 Dipole X            :          0.0000053            0.0000000            0.0000053
 Dipole Y            :         -0.0000090            0.0000000           -0.0000090
 Dipole Z            :          0.0000009            0.0000000            0.0000009
 Magnitude           :                                                    0.0000105
  Basis Set: (AUG-CC-PVTZ AUX)
    Blend: AUG-CC-PVTZ-RI + DEF2-QZVPP-RI
	 Reference Energy          =      -7.2363848164715705 [Eh]
	 Singles Energy            =      -0.0000000000000000 [Eh]
	 Same-Spin Energy          =       0.0000000000000000 [Eh]
	 Opposite-Spin Energy      =      -0.0168076291012505 [Eh]
	 Correlation Energy        =      -0.0168076291012505 [Eh]
	 Total Energy              =      -7.2531924455728207 [Eh]

	 ================> DF-SCS-MP2 Energies <==================
	-----------------------------------------------------------
	 SCS Same-Spin Scale       =       0.3333333333333333 [-]
	 SCS Opposite-Spin Scale   =       1.2000000000000000 [-]
	 SCS Same-Spin Energy      =       0.0000000000000000 [Eh]
	 SCS Opposite-Spin Energy  =      -0.0201691549215007 [Eh]
	 SCS Correlation Energy    =      -0.0201691549215007 [Eh]
	 SCS Total Energy          =      -7.2565539713930711 [Eh]
	-----------------------------------------------------------

*** Psi4 exiting successfully. Buy a developer a beer!
