                               Psi4 1.8.2 release

  ==> Input File <==

--------------------------------------------------------------------------
MEMORY 60 GB

molecule dimer {
0 1
Gh(Li)     0.000000     0.000000     0.000000
Gh(O)      0.284917     1.873038     0.598396
Gh(H)     -0.265799     2.437262     1.203763
Gh(H)      0.312342     2.308963    -0.239182
Gh(O)      1.375746    -1.157772    -0.584152
Gh(H)      2.185946    -1.587349    -0.474694
Gh(H)      0.789827    -1.882919    -1.039732
Gh(O)     -0.959321     0.359899    -1.687719
Gh(H)     -1.273101     1.273988    -1.980653
Gh(H)     -0.367583     0.108484    -2.390242
O         -0.285954    -0.870627     1.731899
H          0.387606    -1.563219     1.998960
H         -1.094979    -1.130535     2.143406

units ang
no_reorient
no_com
symmetry c1
}

set {
basis        aug-cc-pVTZ
scf_type     df
}

energy("mp2")
--------------------------------------------------------------------------

    Molecular point group: c1

    Geometry (in Angstrom), charge = 0, multiplicity = 1:

       Center              X                  Y                   Z               Mass
    ------------   -----------------  -----------------  -----------------  -----------------
      Gh(LI)          0.000000000000     0.000000000000     0.000000000000     7.016003436600
      Gh(O)           0.284917000000     1.873038000000     0.598396000000    15.994914619570
      Gh(H)          -0.265799000000     2.437262000000     1.203763000000     1.007825032230
      Gh(H)           0.312342000000     2.308963000000    -0.239182000000     1.007825032230
      Gh(O)           1.375746000000    -1.157772000000    -0.584152000000    15.994914619570
      Gh(H)           2.185946000000    -1.587349000000    -0.474694000000     1.007825032230
      Gh(H)           0.789827000000    -1.882919000000    -1.039732000000     1.007825032230
      Gh(O)          -0.959321000000     0.359899000000    -1.687719000000    15.994914619570
      Gh(H)          -1.273101000000     1.273988000000    -1.980653000000     1.007825032230
      Gh(H)          -0.367583000000     0.108484000000    -2.390242000000     1.007825032230
         O           -0.285954000000    -0.870627000000     1.731899000000    15.994914619570
         H            0.387606000000    -1.563219000000     1.998960000000     1.007825032230
         H           -1.094979000000    -1.130535000000     2.143406000000     1.007825032230

  Charge       = 0
  Multiplicity = 1
  Basis Set: AUG-CC-PVTZ
    Blend: AUG-CC-PVTZ
  Basis Set: (AUG-CC-PVTZ AUX)
    Blend: AUG-CC-PVTZ-JKFIT + DEF2-UNIVERSAL-JKFIT

    Orbital Energies [Eh]
    ---------------------

    Doubly Occupied:

       1A    -20.569049     2A     -1.345343     3A     -0.711392
       4A     -0.579296     5A     -0.508734

  @DF-RHF Final Energy:   -76.05770228702650

   => Energetics <=

    Nuclear Repulsion Energy =              9.0485343000000942
    One-Electron Energy =                -122.7848395405668072
    Two-Electron Energy =                  37.6786029535402065
    Total Energy =                        -76.0577022870265012
 Dipole X            :          5.5609260           -5.6597392           -0.0988132
 Dipole Y            :         17.6258955          -18.2524300           -0.6265345
 Dipole Z            :        -33.5611102           34.0104555            0.4493454
 Magnitude           :                                                    0.7773164
  Basis Set: (AUG-CC-PVTZ AUX)
    Blend: AUG-CC-PVTZ-RI + DEF2-QZVPP-RI
	 Reference Energy          =     -76.0577022870265012 [Eh]
	 Singles Energy            =      -0.0000000000000000 [Eh]
	 Same-Spin Energy          =      -0.0686760868494820 [Eh]
	 Opposite-Spin Energy      =      -0.2167922367312109 [Eh]
	 Correlation Energy        =      -0.2854683235806930 [Eh]
	 Total Energy              =     -76.3431706106071886 [Eh]

	 ================> DF-SCS-MP2 Energies <==================
	-----------------------------------------------------------
	 SCS Same-Spin Scale       =       0.3333333333333333 [-]
	 SCS Opposite-Spin Scale   =       1.2000000000000000 [-]
	 SCS Same-Spin Energy      =      -0.0228920289498273 [Eh]
	 SCS Opposite-Spin Energy  =      -0.2601506840774531 [Eh]
	 SCS Correlation Energy    =      -0.2830427130272805 [Eh]
	 SCS Total Energy          =     -76.3407450000537864 [Eh]
	-----------------------------------------------------------

*** Psi4 exiting successfully. Buy a developer a beer!
