                               Psi4 1.9 release

  ==> Input File <==

--------------------------------------------------------------------------
MEMORY 60 GB

molecule dimer {
1 1
Li     0.000000     0.000000     0.000000
--
0 1
O     -1.680746     0.276584    -0.524122
H     -2.436906    -0.277091    -0.431906
H     -1.899859     1.075426    -0.063132
O     -0.071560    -1.420903     1.240510
H     -0.473745    -2.213538     0.802591
H     -0.780622    -1.152250     1.882048
O      0.700028     1.207376     1.195221
H      0.272867     1.039453     2.053918
H      0.629594     2.124003     0.978537
O      1.186987    -0.149614    -1.450273
H      1.341045     0.793609    -1.646914
H      0.746015    -0.501685    -2.225984

units ang
no_reorient
no_com
symmetry c1
}

set {
basis        aug-cc-pVTZ
scf_type     df
}

energy("mp2", bsse_type="cp")
--------------------------------------------------------------------------

                               Psi4 1.9 release
    Molecular point group: c1
  Charge       = 0
  Multiplicity = 1
  Basis Set: AUG-CC-PVTZ
    Blend: AUG-CC-PVTZ
  Basis Set: (AUG-CC-PVTZ AUX)
    Blend: AUG-CC-PVTZ-JKFIT + DEF2-UNIVERSAL-JKFIT
  @DF-RHF Final Energy:  -304.20676120163517
    Total Energy =                       -304.2067612016351745
 Dipole X            :          1.1051715           -2.8798273           -1.7746559
 Dipole Y            :          0.2913030            0.3693867            0.6606896
 Dipole Z            :         -9.2787883            9.5239287            0.2451403
 Magnitude           :                                                    1.9094523
  Basis Set: (AUG-CC-PVTZ AUX)
    Blend: AUG-CC-PVTZ-RI + DEF2-QZVPP-RI
	 Reference Energy          =    -304.2067612016351745 [Eh]
	 Singles Energy            =      -0.0000000000000000 [Eh]
	 Same-Spin Energy          =      -0.2783862633754446 [Eh]
	 Opposite-Spin Energy      =      -0.8714655944123494 [Eh]
	 Correlation Energy        =      -1.1498518577877941 [Eh]
	 Total Energy              =    -305.3566130594229548 [Eh]
	 SCS Total Energy          =    -305.3453153360551369 [Eh]
                               Psi4 1.9 release
    Molecular point group: c1
  Multiplicity = 1
  Basis Set: AUG-CC-PVTZ
    Blend: AUG-CC-PVTZ
  Basis Set: (AUG-CC-PVTZ AUX)
    Blend: AUG-CC-PVTZ-JKFIT + DEF2-UNIVERSAL-JKFIT
  @DF-RHF Final Energy:    -7.23638504872508
    Total Energy =                         -7.2363850487250776
  Basis Set: (AUG-CC-PVTZ AUX)
	 Singles Energy            =      -0.0000000000000000 [Eh]
	 Same-Spin Energy          =      -0.0000000000000000 [Eh]
	 Opposite-Spin Energy      =      -0.0180499930694696 [Eh]
	 Correlation Energy        =      -0.0180499930694696 [Eh]
	 Total Energy              =      -7.2544350417945482 [Eh]
	 SCS Total Energy          =      -7.2580450404084420 [Eh]
                               Psi4 1.9 release
    Molecular point group: c1

    Geometry (in Bohr), charge = 1, multiplicity = 1:

       Center              X                  Y                   Z               Mass
    ------------   -----------------  -----------------  -----------------  -----------------
         LI           0.000000000000     0.000000000000     0.000000000000     7.016003436600
         O           -3.176149626459     0.522668010684    -0.990447036327    15.994914619570
         H           -4.605084933485    -0.523626101829    -0.816184051942     1.007825032230
         H           -3.590213186986     2.032260608197    -0.119302189752     1.007825032230
         O           -0.135228801538    -2.685117520841     2.344224155892    15.994914619570
         H           -0.895248303305    -4.182980588294     1.516677180757     1.007825032230
         H           -1.475161787507    -2.177436928059     3.556555274966     1.007825032230
         O            1.322861200152     2.281609970451     2.258640349396    15.994914619570
         H            0.515643898675     1.964281490286     3.881342504148     1.007825032230
         H            1.189760230231     4.013783959651     1.849166933627     1.007825032230
         O            2.243080344479    -0.282729484534    -2.740618777146    15.994914619570
         H            2.534207771915     1.499703660698    -3.112216412182     1.007825032230
         H            1.409764035483    -0.948047251250    -4.206500119651     1.007825032230

  Charge       = 1
  Multiplicity = 1
  Basis Set: AUG-CC-PVTZ
    Blend: AUG-CC-PVTZ
  Basis Set: (AUG-CC-PVTZ AUX)
    Blend: AUG-CC-PVTZ-JKFIT + DEF2-UNIVERSAL-JKFIT

    Orbital Energies [Eh]
    ---------------------

    Doubly Occupied:

       1A    -20.772811     2A    -20.762059     3A    -20.760768
       4A    -20.745145     5A     -2.522345     6A     -1.578438
       7A     -1.555528     8A     -1.533549     9A     -1.532332
      10A     -0.942324    11A     -0.931603    12A     -0.895149
      13A     -0.885110    14A     -0.821930    15A     -0.802064
      16A     -0.775154    17A     -0.769897    18A     -0.746607
      19A     -0.717009    20A     -0.702579    21A     -0.699699

  @DF-RHF Final Energy:  -311.60338523705974

   => Energetics <=

    Nuclear Repulsion Energy =            171.0599593135112286
    One-Electron Energy =                -762.4224869237145867
    Two-Electron Energy =                 279.7591423731436748
    Total Energy =                       -311.6033852370597401
 Dipole X            :          0.9619938           -2.8798273           -1.9178336
 Dipole Y            :          0.3239200            0.3693867            0.6933066
 Dipole Z            :         -9.1772238            9.5239287            0.3467048
 Magnitude           :                                                    2.0685657
  Basis Set: (AUG-CC-PVTZ AUX)
    Blend: AUG-CC-PVTZ-RI + DEF2-QZVPP-RI
	 Reference Energy          =    -311.6033852370597401 [Eh]
	 Singles Energy            =      -0.0000000000000000 [Eh]
	 Same-Spin Energy          =      -0.2769100360330465 [Eh]
	 Opposite-Spin Energy      =      -0.8815612538818401 [Eh]
	 Correlation Energy        =      -1.1584712899148868 [Eh]
	 Total Energy              =    -312.7618565269746114 [Eh]

	 ================> DF-SCS-MP2 Energies <==================
	-----------------------------------------------------------
	 SCS Same-Spin Scale       =       0.3333333333333333 [-]
	 SCS Opposite-Spin Scale   =       1.2000000000000000 [-]
	 SCS Same-Spin Energy      =      -0.0923033453443488 [Eh]
	 SCS Opposite-Spin Energy  =      -1.0578735046582082 [Eh]
	 SCS Correlation Energy    =      -1.1501768500025571 [Eh]
	 SCS Total Energy          =    -312.7535620870622779 [Eh]
	-----------------------------------------------------------

*** Psi4 exiting successfully. Buy a developer a beer!
