                               Psi4 1.9 release

  ==> Input File <==

--------------------------------------------------------------------------
MEMORY 60 GB

molecule dimer {
1 1
Li     0.000000     0.000000     0.000000
--
0 1
O      1.014907    -1.846591     0.065476
H      0.268180    -2.329649    -0.359526
H      1.399774    -2.433915     0.796256
O      1.462449     1.073689     0.580959
H      1.086336     1.782468     1.119353
H      2.002930     0.547479     1.110363
O     -0.252680     0.490401    -1.807295
H      0.113651     0.060304    -2.550227
H     -1.152599     0.460089    -2.081251
O     -1.692409     0.463443     0.935552
H     -2.421769     0.480840     0.338377
H     -1.923923    -0.014474     1.749577

units ang
no_reorient
no_com
symmetry c1
}

set {
basis        aug-cc-pVTZ
scf_type     df
}

energy("mp2", bsse_type="cp")
--------------------------------------------------------------------------

                               Psi4 1.9 release
    Molecular point group: c1
  Charge       = 0
  Multiplicity = 1
  Basis Set: AUG-CC-PVTZ
    Blend: AUG-CC-PVTZ
  Basis Set: (AUG-CC-PVTZ AUX)
    Blend: AUG-CC-PVTZ-JKFIT + DEF2-UNIVERSAL-JKFIT
  @DF-RHF Final Energy:  -304.21209092897089
    Total Energy =                       -304.2120909289708948
 Dipole X            :         -7.9598847            6.8610589           -1.0988258
 Dipole Y            :         -1.1669793            0.0012812           -1.1656980
 Dipole Z            :          3.5384050           -3.1738744            0.3645306
 Magnitude           :                                                    1.6429098
  Basis Set: (AUG-CC-PVTZ AUX)
    Blend: AUG-CC-PVTZ-RI + DEF2-QZVPP-RI
	 Reference Energy          =    -304.2120909289708948 [Eh]
	 Singles Energy            =      -0.0000000000000000 [Eh]
	 Same-Spin Energy          =      -0.2768934780902968 [Eh]
	 Opposite-Spin Energy      =      -0.8683505686975564 [Eh]
	 Correlation Energy        =      -1.1452440467878533 [Eh]
	 Total Energy              =    -305.3573349757587607 [Eh]
	 SCS Total Energy          =    -305.3464094374380693 [Eh]
                               Psi4 1.9 release
    Molecular point group: c1
  Multiplicity = 1
  Basis Set: AUG-CC-PVTZ
    Blend: AUG-CC-PVTZ
  Basis Set: (AUG-CC-PVTZ AUX)
    Blend: AUG-CC-PVTZ-JKFIT + DEF2-UNIVERSAL-JKFIT
  @DF-RHF Final Energy:    -7.23638489410532
    Total Energy =                         -7.2363848941053224
  Basis Set: (AUG-CC-PVTZ AUX)
	 Singles Energy            =      -0.0000000000000000 [Eh]
	 Same-Spin Energy          =      -0.0000000000000000 [Eh]
	 Opposite-Spin Energy      =      -0.0169378448988933 [Eh]
	 Correlation Energy        =      -0.0169378448988933 [Eh]
	 Total Energy              =      -7.2533227390042159 [Eh]
	 SCS Total Energy          =      -7.2567103079839947 [Eh]
                               Psi4 1.9 release
    Molecular point group: c1

    Geometry (in Bohr), charge = 1, multiplicity = 1:

       Center              X                  Y                   Z               Mass
    ------------   -----------------  -----------------  -----------------  -----------------
         LI           0.000000000000     0.000000000000     0.000000000000     7.016003436600
         O            1.917896272810    -3.489551255735     0.123731707790    15.994914619570
         H            0.506786752325    -4.402398578447    -0.679405674981     1.007825032230
         H            2.645189497537    -4.599432762644     1.504705765753     1.007825032230
         O            2.763628082450     2.028978153917     1.097853400120    15.994914619570
         H            2.052877520225     3.368376347393     2.115270607710     1.007825032230
         H            3.784989148463     1.034585369440     2.098281969842     1.007825032230
         O           -0.477495997381     0.926723581651    -3.415292577909    15.994914619570
         H            0.214769263884     0.113958044270    -4.819230587748     1.007825032230
         H           -2.178096442477     0.869442203336    -3.932994388335     1.007825032230
         O           -3.198189502260     0.875780344761     1.767937056124    15.994914619570
         H           -4.576480149124     0.908655910165     0.639439857154     1.007825032230
         H           -3.635687556469    -0.027351895940     3.306221365400     1.007825032230

  Charge       = 1
  Multiplicity = 1
  Basis Set: AUG-CC-PVTZ
    Blend: AUG-CC-PVTZ
  Basis Set: (AUG-CC-PVTZ AUX)
    Blend: AUG-CC-PVTZ-JKFIT + DEF2-UNIVERSAL-JKFIT

    Orbital Energies [Eh]
    ---------------------

    Doubly Occupied:

       1A    -20.761151     2A    -20.755338     3A    -20.753737
       4A    -20.731774     5A     -2.540274     6A     -1.563189
       7A     -1.550678     8A     -1.533943     9A     -1.518052
      10A     -0.928874    11A     -0.906818    12A     -0.903507
      13A     -0.887904    14A     -0.815389    15A     -0.787743
      16A     -0.769831    17A     -0.755895    18A     -0.717795
      19A     -0.709644    20A     -0.698786    21A     -0.688894

  @DF-RHF Final Energy:  -311.61342666141400

   => Energetics <=

    Nuclear Repulsion Energy =            162.7157893648342792
    One-Electron Energy =                -746.0999983247916134
    Two-Electron Energy =                 271.7707822985432813
    Total Energy =                       -311.6134266614139960
 Dipole X            :         -7.9332899            6.8610589           -1.0722310
 Dipole Y            :         -1.1820478            0.0012812           -1.1807665
 Dipole Z            :          3.5349088           -3.1738744            0.3610344
 Magnitude           :                                                    1.6353088
  Basis Set: (AUG-CC-PVTZ AUX)
    Blend: AUG-CC-PVTZ-RI + DEF2-QZVPP-RI
	 Reference Energy          =    -311.6134266614139960 [Eh]
	 Singles Energy            =      -0.0000000000000000 [Eh]
	 Same-Spin Energy          =      -0.2755171522976532 [Eh]
	 Opposite-Spin Energy      =      -0.8785176933223297 [Eh]
	 Correlation Energy        =      -1.1540348456199827 [Eh]
	 Total Energy              =    -312.7674615070339996 [Eh]

	 ================> DF-SCS-MP2 Energies <==================
	-----------------------------------------------------------
	 SCS Same-Spin Scale       =       0.3333333333333333 [-]
	 SCS Opposite-Spin Scale   =       1.2000000000000000 [-]
	 SCS Same-Spin Energy      =      -0.0918390507658844 [Eh]
	 SCS Opposite-Spin Energy  =      -1.0542212319867956 [Eh]
	 SCS Correlation Energy    =      -1.1460602827526800 [Eh]
	 SCS Total Energy          =    -312.7594869441666674 [Eh]
	-----------------------------------------------------------

*** Psi4 exiting successfully. Buy a developer a beer!
