                               Psi4 1.9 release

  ==> Input File <==

--------------------------------------------------------------------------
MEMORY 60 GB

molecule dimer {
1 1
Li     0.000000     0.000000     0.000000
--
0 1
O     -0.207258     1.893567    -0.189270
H     -1.121865     2.058966     0.128404
H     -0.276352     2.100735    -1.147691
O     -0.450346    -0.540463     1.792528
H     -1.197754    -1.034385     1.966029
H     -0.329736    -0.092928     2.623816
O      1.811809    -0.507348    -0.752479
H      2.033480    -0.946021     0.085056
H      1.816157    -1.201410    -1.392174
O     -1.390009    -0.914970    -1.164105
H     -2.030872    -0.570429    -0.544099
H     -1.574691    -1.795563    -1.145738

units ang
no_reorient
no_com
symmetry c1
}

set {
basis        aug-cc-pVTZ
scf_type     df
}

energy("mp2", bsse_type="cp")
--------------------------------------------------------------------------

                               Psi4 1.9 release
    Molecular point group: c1
  Charge       = 0
  Multiplicity = 1
  Basis Set: AUG-CC-PVTZ
    Blend: AUG-CC-PVTZ
  Basis Set: (AUG-CC-PVTZ AUX)
    Blend: AUG-CC-PVTZ-JKFIT + DEF2-UNIVERSAL-JKFIT
  @DF-RHF Final Energy:  -304.21989353373772
    Total Energy =                       -304.2198935337377179
 Dipole X            :          7.2526468           -8.6323918           -1.3797450
 Dipole Y            :          2.9481762           -3.8451146           -0.8969384
 Dipole Z            :          4.4616014           -3.6528500            0.8087513
 Magnitude           :                                                    1.8336503
  Basis Set: (AUG-CC-PVTZ AUX)
    Blend: AUG-CC-PVTZ-RI + DEF2-QZVPP-RI
	 Reference Energy          =    -304.2198935337377179 [Eh]
	 Singles Energy            =      -0.0000000000000000 [Eh]
	 Same-Spin Energy          =      -0.2761316856616385 [Eh]
	 Opposite-Spin Energy      =      -0.8664490409381271 [Eh]
	 Correlation Energy        =      -1.1425807265997656 [Eh]
	 Total Energy              =    -305.3624742603374784 [Eh]
	 SCS Total Energy          =    -305.3516762780840281 [Eh]
                               Psi4 1.9 release
    Molecular point group: c1
  Multiplicity = 1
  Basis Set: AUG-CC-PVTZ
    Blend: AUG-CC-PVTZ
  Basis Set: (AUG-CC-PVTZ AUX)
    Blend: AUG-CC-PVTZ-JKFIT + DEF2-UNIVERSAL-JKFIT
  @DF-RHF Final Energy:    -7.23638495693514
    Total Energy =                         -7.2363849569351402
  Basis Set: (AUG-CC-PVTZ AUX)
	 Singles Energy            =      -0.0000000000000000 [Eh]
	 Same-Spin Energy          =      -0.0000000000000000 [Eh]
	 Opposite-Spin Energy      =      -0.0169620389252432 [Eh]
	 Correlation Energy        =      -0.0169620389252432 [Eh]
	 Total Energy              =      -7.2533469958603831 [Eh]
	 SCS Total Energy          =      -7.2567394036454322 [Eh]
                               Psi4 1.9 release
    Molecular point group: c1

    Geometry (in Bohr), charge = 1, multiplicity = 1:

       Center              X                  Y                   Z               Mass
    ------------   -----------------  -----------------  -----------------  -----------------
         LI           0.000000000000     0.000000000000     0.000000000000     7.016003436600
         O           -0.391660857310     3.578323030205    -0.357668463765    15.994914619570
         H           -2.120017599737     3.890881841629     0.242648393413     1.007825032230
         H           -0.522229594223     3.969813812164    -2.168821666653     1.007825032230
         O           -0.851030601695    -1.021327050943     3.387386992215    15.994914619570
         H           -2.263427025672    -1.954704358282     3.715256364708     1.007825032230
         H           -0.623110733704    -0.175608469387     4.958293643594     1.007825032230
         O            3.423822801640    -0.958748770299    -1.421979225158    15.994914619570
         H            3.842720281596    -1.787720598932     0.160732545327     1.007825032230
         H            3.432039330833    -2.270335864386    -2.630827578983     1.007825032230
         O           -2.626736321922    -1.729042713010    -2.199839631276    15.994914619570
         H           -3.837791875861    -1.077954584019    -1.028198095135     1.007825032230
         H           -2.975734722223    -3.393122311005    -2.165131031530     1.007825032230

  Charge       = 1
  Multiplicity = 1
  Basis Set: AUG-CC-PVTZ
    Blend: AUG-CC-PVTZ
  Basis Set: (AUG-CC-PVTZ AUX)
    Blend: AUG-CC-PVTZ-JKFIT + DEF2-UNIVERSAL-JKFIT

    Orbital Energies [Eh]
    ---------------------

    Doubly Occupied:

       1A    -20.773438     2A    -20.760760     3A    -20.758185
       4A    -20.742320     5A     -2.553177     6A     -1.584691
       7A     -1.574380     8A     -1.535408     9A     -1.533332
      10A     -0.938011    11A     -0.929455    12A     -0.895371
      13A     -0.888960    14A     -0.833334    15A     -0.803623
      16A     -0.786544    17A     -0.765784    18A     -0.733453
      19A     -0.721667    20A     -0.708224    21A     -0.694827

  @DF-RHF Final Energy:  -311.60937465160976

   => Energetics <=

    Nuclear Repulsion Energy =            163.3925295581425985
    One-Electron Energy =                -746.9739209818371819
    Two-Electron Energy =                 271.9720167720848849
    Total Energy =                       -311.6093746516097553
 Dipole X            :          7.1231147           -8.6323918           -1.5092770
 Dipole Y            :          2.9209900           -3.8451146           -0.9241245
 Dipole Z            :          4.4565008           -3.6528500            0.8036508
 Magnitude           :                                                    1.9436507
  Basis Set: (AUG-CC-PVTZ AUX)
    Blend: AUG-CC-PVTZ-RI + DEF2-QZVPP-RI
	 Reference Energy          =    -311.6093746516097553 [Eh]
	 Singles Energy            =      -0.0000000000000000 [Eh]
	 Same-Spin Energy          =      -0.2750660677045068 [Eh]
	 Opposite-Spin Energy      =      -0.8775610361260714 [Eh]
	 Correlation Energy        =      -1.1526271038305782 [Eh]
	 Total Energy              =    -312.7620017554403375 [Eh]

	 ================> DF-SCS-MP2 Energies <==================
	-----------------------------------------------------------
	 SCS Same-Spin Scale       =       0.3333333333333333 [-]
	 SCS Opposite-Spin Scale   =       1.2000000000000000 [-]
	 SCS Same-Spin Energy      =      -0.0916886892348356 [Eh]
	 SCS Opposite-Spin Energy  =      -1.0530732433512857 [Eh]
	 SCS Correlation Energy    =      -1.1447619325861214 [Eh]
	 SCS Total Energy          =    -312.7541365841958623 [Eh]
	-----------------------------------------------------------

*** Psi4 exiting successfully. Buy a developer a beer!
