                               Psi4 1.8.2 release

  ==> Input File <==

--------------------------------------------------------------------------
MEMORY 60 GB

molecule dimer {
1 1
Li         0.000000     0.000000     0.000000
Gh(O)      1.639321    -0.729901    -0.741028
Gh(H)      2.317640    -0.292230    -0.190534
Gh(H)      1.830515    -0.437536    -1.637740
Gh(O)     -1.213233    -0.784151    -1.126646
Gh(H)     -2.144486    -0.625012    -0.756992
Gh(H)     -1.331930    -0.459099    -2.088330
Gh(O)      0.356812     1.866213     0.273167
Gh(H)      0.727568     1.761017     1.166760
Gh(H)     -0.181844     2.672161     0.214819
Gh(O)     -0.385442    -0.624008     1.841742
Gh(H)     -1.072760     0.019128     2.225122
Gh(H)      0.268191    -0.695409     2.554002

units ang
no_reorient
no_com
symmetry c1
}

set {
basis        aug-cc-pVTZ
scf_type     df
}

energy("mp2")
--------------------------------------------------------------------------

    Molecular point group: c1

    Geometry (in Angstrom), charge = 1, multiplicity = 1:

       Center              X                  Y                   Z               Mass
    ------------   -----------------  -----------------  -----------------  -----------------
         LI           0.000000000000     0.000000000000     0.000000000000     7.016003436600
      Gh(O)           1.639321000000    -0.729901000000    -0.741028000000    15.994914619570
      Gh(H)           2.317640000000    -0.292230000000    -0.190534000000     1.007825032230
      Gh(H)           1.830515000000    -0.437536000000    -1.637740000000     1.007825032230
      Gh(O)          -1.213233000000    -0.784151000000    -1.126646000000    15.994914619570
      Gh(H)          -2.144486000000    -0.625012000000    -0.756992000000     1.007825032230
      Gh(H)          -1.331930000000    -0.459099000000    -2.088330000000     1.007825032230
      Gh(O)           0.356812000000     1.866213000000     0.273167000000    15.994914619570
      Gh(H)           0.727568000000     1.761017000000     1.166760000000     1.007825032230
      Gh(H)          -0.181844000000     2.672161000000     0.214819000000     1.007825032230
      Gh(O)          -0.385442000000    -0.624008000000     1.841742000000    15.994914619570
      Gh(H)          -1.072760000000     0.019128000000     2.225122000000     1.007825032230
      Gh(H)           0.268191000000    -0.695409000000     2.554002000000     1.007825032230

  Charge       = 1
  Multiplicity = 1
  Basis Set: AUG-CC-PVTZ
    Blend: AUG-CC-PVTZ
  Basis Set: (AUG-CC-PVTZ AUX)
    Blend: AUG-CC-PVTZ-JKFIT + DEF2-UNIVERSAL-JKFIT

    Orbital Energies [Eh]
    ---------------------

    Doubly Occupied:

       1A     -2.792353

  @DF-RHF Final Energy:    -7.23638495297012

   => Energetics <=

    Nuclear Repulsion Energy =              0.0000000000000000
    One-Electron Energy =                  -8.8880646522541493
    Two-Electron Energy =                   1.6516796992840341
    Total Energy =                         -7.2363849529701154
 Dipole X            :          0.0000004            0.0000000            0.0000004
 Dipole Y            :          0.0000031            0.0000000            0.0000031
 Dipole Z            :          0.0000014            0.0000000            0.0000014
 Magnitude           :                                                    0.0000034
  Basis Set: (AUG-CC-PVTZ AUX)
    Blend: AUG-CC-PVTZ-RI + DEF2-QZVPP-RI
	 Reference Energy          =      -7.2363849529701154 [Eh]
	 Singles Energy            =      -0.0000000000000000 [Eh]
	 Same-Spin Energy          =       0.0000000000000000 [Eh]
	 Opposite-Spin Energy      =      -0.0173789192871417 [Eh]
	 Correlation Energy        =      -0.0173789192871417 [Eh]
	 Total Energy              =      -7.2537638722572568 [Eh]

	 ================> DF-SCS-MP2 Energies <==================
	-----------------------------------------------------------
	 SCS Same-Spin Scale       =       0.3333333333333333 [-]
	 SCS Opposite-Spin Scale   =       1.2000000000000000 [-]
	 SCS Same-Spin Energy      =       0.0000000000000000 [Eh]
	 SCS Opposite-Spin Energy  =      -0.0208547031445700 [Eh]
	 SCS Correlation Energy    =      -0.0208547031445700 [Eh]
	 SCS Total Energy          =      -7.2572396561146855 [Eh]
	-----------------------------------------------------------

*** Psi4 exiting successfully. Buy a developer a beer!
