                               Psi4 1.9 release

  ==> Input File <==

--------------------------------------------------------------------------
MEMORY 60 GB

molecule dimer {
1 1
Li     0.000000     0.000000     0.000000
--
0 1
O     -0.018395    -0.041580     1.983631
H     -0.386092    -0.854160     2.162791
H     -0.588807     0.602468     2.387195
O      1.568867    -0.245466    -0.873446
H      1.921565     0.450636    -1.498824
H      1.715073    -1.117651    -1.298721
O     -1.777084    -0.764231    -0.483763
H     -1.639151    -1.700624    -0.297360
H     -2.502232    -0.406567     0.104343

units ang
no_reorient
no_com
symmetry c1
}

set {
basis        aug-cc-pVTZ
scf_type     df
}

energy("mp2", bsse_type="cp")
--------------------------------------------------------------------------

                               Psi4 1.9 release
    Molecular point group: c1
  Charge       = 0
  Multiplicity = 1
  Basis Set: AUG-CC-PVTZ
    Blend: AUG-CC-PVTZ
  Basis Set: (AUG-CC-PVTZ AUX)
    Blend: AUG-CC-PVTZ-JKFIT + DEF2-UNIVERSAL-JKFIT
  @DF-RHF Final Energy:  -228.16079198512253
    Total Energy =                       -228.1607919851225290
 Dipole X            :          5.5669054           -6.2219989           -0.6550934
 Dipole Y            :         21.0435646          -21.6111234           -0.5675588
 Dipole Z            :        -12.2299279           12.4170124            0.1870845
 Magnitude           :                                                    0.8867192
  Basis Set: (AUG-CC-PVTZ AUX)
    Blend: AUG-CC-PVTZ-RI + DEF2-QZVPP-RI
	 Reference Energy          =    -228.1607919851225290 [Eh]
	 Singles Energy            =      -0.0000000000000000 [Eh]
	 Same-Spin Energy          =      -0.2069632436427631 [Eh]
	 Opposite-Spin Energy      =      -0.6506734795611138 [Eh]
	 Correlation Energy        =      -0.8576367232038768 [Eh]
	 Total Energy              =    -229.0184287083264110 [Eh]
	 SCS Total Energy          =    -229.0105879084767935 [Eh]
                               Psi4 1.9 release
    Molecular point group: c1
  Multiplicity = 1
  Basis Set: AUG-CC-PVTZ
    Blend: AUG-CC-PVTZ
  Basis Set: (AUG-CC-PVTZ AUX)
    Blend: AUG-CC-PVTZ-JKFIT + DEF2-UNIVERSAL-JKFIT
  @DF-RHF Final Energy:    -7.23638450168872
    Total Energy =                         -7.2363845016887236
  Basis Set: (AUG-CC-PVTZ AUX)
	 Singles Energy            =      -0.0000000000000000 [Eh]
	 Same-Spin Energy          =       0.0000000000000000 [Eh]
	 Opposite-Spin Energy      =      -0.0158592982525181 [Eh]
	 Correlation Energy        =      -0.0158592982525181 [Eh]
	 Total Energy              =      -7.2522437999412421 [Eh]
	 SCS Total Energy          =      -7.2554156595917449 [Eh]
                               Psi4 1.9 release
    Molecular point group: c1

    Geometry (in Bohr), charge = 1, multiplicity = 1:

       Center              X                  Y                   Z               Mass
    ------------   -----------------  -----------------  -----------------  -----------------
         LI           0.000000000000     0.000000000000     0.000000000000     7.016003436600
         O           -0.034761512078    -0.078574812297     3.748519323968    15.994914619570
         H           -0.729608139230    -1.614128467321     4.087082656605     1.007825032230
         H           -1.112683970752     1.138499519352     4.511144758062     1.007825032230
         O            2.964728957269    -0.463863513112    -1.650573725377    15.994914619570
         H            3.631231582265     0.851578622272    -2.832366870263     1.007825032230
         H            3.241018255167    -2.112054293844    -2.454227003381     1.007825032230
         O           -3.358202061933    -1.444187286585    -0.914179579630    15.994914619570
         H           -3.097546468270    -3.213713602381    -0.561928960666     1.007825032230
         H           -4.728533182357    -0.768300281649     0.197179693109     1.007825032230

  Charge       = 1
  Multiplicity = 1
  Basis Set: AUG-CC-PVTZ
    Blend: AUG-CC-PVTZ
  Basis Set: (AUG-CC-PVTZ AUX)
    Blend: AUG-CC-PVTZ-JKFIT + DEF2-UNIVERSAL-JKFIT

    Orbital Energies [Eh]
    ---------------------

    Doubly Occupied:

       1A    -20.777399     2A    -20.776504     3A    -20.764950
       4A     -2.582464     5A     -1.575709     6A     -1.551937
       7A     -1.549590     8A     -0.941487     9A     -0.923668
      10A     -0.914300    11A     -0.813018    12A     -0.799925
      13A     -0.792218    14A     -0.742384    15A     -0.724688
      16A     -0.712356

  @DF-RHF Final Energy:  -235.52899894246974

   => Energetics <=

    Nuclear Repulsion Energy =             97.8604395039619277
    One-Electron Energy =                -512.8936814499530783
    Two-Electron Energy =                 179.5042430035214238
    Total Energy =                       -235.5289989424697410
 Dipole X            :          5.5229952           -6.2219989           -0.6990036
 Dipole Y            :         20.8229896          -21.6111234           -0.7881338
 Dipole Z            :        -12.1494442           12.4170124            0.2675683
 Magnitude           :                                                    1.0869010
  Basis Set: (AUG-CC-PVTZ AUX)
    Blend: AUG-CC-PVTZ-RI + DEF2-QZVPP-RI
	 Reference Energy          =    -235.5289989424697410 [Eh]
	 Singles Energy            =      -0.0000000000000000 [Eh]
	 Same-Spin Energy          =      -0.2058580575408136 [Eh]
	 Opposite-Spin Energy      =      -0.6610021828226513 [Eh]
	 Correlation Energy        =      -0.8668602403634649 [Eh]
	 Total Energy              =    -236.3958591828331919 [Eh]

	 ================> DF-SCS-MP2 Energies <==================
	-----------------------------------------------------------
	 SCS Same-Spin Scale       =       0.3333333333333333 [-]
	 SCS Opposite-Spin Scale   =       1.2000000000000000 [-]
	 SCS Same-Spin Energy      =      -0.0686193525136045 [Eh]
	 SCS Opposite-Spin Energy  =      -0.7932026193871816 [Eh]
	 SCS Correlation Energy    =      -0.8618219719007861 [Eh]
	 SCS Total Energy          =    -236.3908209143705221 [Eh]
	-----------------------------------------------------------

*** Psi4 exiting successfully. Buy a developer a beer!
