                               Psi4 1.8.2 release

  ==> Input File <==

--------------------------------------------------------------------------
MEMORY 60 GB

molecule dimer {
1 1
Li         0.000000     0.000000     0.000000
Gh(O)      0.479299    -0.023155     2.040576
Gh(H)      1.401203    -0.047344     1.992724
Gh(H)      0.183700    -0.723857     2.589691
Gh(O)      1.211465     0.917124    -1.085982
Gh(H)      1.893267     0.250849    -1.335533
Gh(H)      1.514507     1.731669    -0.789172
Gh(O)      0.020647    -1.905313    -0.620925
Gh(H)      0.710937    -2.493526    -1.007313
Gh(H)     -0.763325    -2.495709    -0.483083
Gh(O)     -1.823938     0.516909    -0.645776
Gh(H)     -2.499709    -0.060327    -0.255399
Gh(H)     -2.179640     1.399153    -0.823341

units ang
no_reorient
no_com
symmetry c1
}

set {
basis        aug-cc-pVTZ
scf_type     df
}

energy("mp2")
--------------------------------------------------------------------------

    Molecular point group: c1

    Geometry (in Angstrom), charge = 1, multiplicity = 1:

       Center              X                  Y                   Z               Mass
    ------------   -----------------  -----------------  -----------------  -----------------
         LI           0.000000000000     0.000000000000     0.000000000000     7.016003436600
      Gh(O)           0.479299000000    -0.023155000000     2.040576000000    15.994914619570
      Gh(H)           1.401203000000    -0.047344000000     1.992724000000     1.007825032230
      Gh(H)           0.183700000000    -0.723857000000     2.589691000000     1.007825032230
      Gh(O)           1.211465000000     0.917124000000    -1.085982000000    15.994914619570
      Gh(H)           1.893267000000     0.250849000000    -1.335533000000     1.007825032230
      Gh(H)           1.514507000000     1.731669000000    -0.789172000000     1.007825032230
      Gh(O)           0.020647000000    -1.905313000000    -0.620925000000    15.994914619570
      Gh(H)           0.710937000000    -2.493526000000    -1.007313000000     1.007825032230
      Gh(H)          -0.763325000000    -2.495709000000    -0.483083000000     1.007825032230
      Gh(O)          -1.823938000000     0.516909000000    -0.645776000000    15.994914619570
      Gh(H)          -2.499709000000    -0.060327000000    -0.255399000000     1.007825032230
      Gh(H)          -2.179640000000     1.399153000000    -0.823341000000     1.007825032230

  Charge       = 1
  Multiplicity = 1
  Basis Set: AUG-CC-PVTZ
    Blend: AUG-CC-PVTZ
  Basis Set: (AUG-CC-PVTZ AUX)
    Blend: AUG-CC-PVTZ-JKFIT + DEF2-UNIVERSAL-JKFIT

    Orbital Energies [Eh]
    ---------------------

    Doubly Occupied:

       1A     -2.792353

  @DF-RHF Final Energy:    -7.23638484600383

   => Energetics <=

    Nuclear Repulsion Energy =              0.0000000000000000
    One-Electron Energy =                  -8.8880628808291462
    Two-Electron Energy =                   1.6516780348253148
    Total Energy =                         -7.2363848460038316
 Dipole X            :         -0.0000023            0.0000000           -0.0000023
 Dipole Y            :         -0.0000028            0.0000000           -0.0000028
 Dipole Z            :          0.0000079            0.0000000            0.0000079
 Magnitude           :                                                    0.0000087
  Basis Set: (AUG-CC-PVTZ AUX)
    Blend: AUG-CC-PVTZ-RI + DEF2-QZVPP-RI
	 Reference Energy          =      -7.2363848460038316 [Eh]
	 Singles Energy            =      -0.0000000000000000 [Eh]
	 Same-Spin Energy          =       0.0000000000000000 [Eh]
	 Opposite-Spin Energy      =      -0.0168114044673783 [Eh]
	 Correlation Energy        =      -0.0168114044673783 [Eh]
	 Total Energy              =      -7.2531962504712100 [Eh]

	 ================> DF-SCS-MP2 Energies <==================
	-----------------------------------------------------------
	 SCS Same-Spin Scale       =       0.3333333333333333 [-]
	 SCS Opposite-Spin Scale   =       1.2000000000000000 [-]
	 SCS Same-Spin Energy      =       0.0000000000000000 [Eh]
	 SCS Opposite-Spin Energy  =      -0.0201736853608539 [Eh]
	 SCS Correlation Energy    =      -0.0201736853608539 [Eh]
	 SCS Total Energy          =      -7.2565585313646856 [Eh]
	-----------------------------------------------------------

*** Psi4 exiting successfully. Buy a developer a beer!
