                               Psi4 1.8.2 release

  ==> Input File <==

--------------------------------------------------------------------------
MEMORY 60 GB

molecule dimer {
1 1
Li         0.000000     0.000000     0.000000
O          0.266584     0.944052    -1.709450
H          0.979641     0.533414    -2.222257
H          0.507280     1.865020    -1.611472
O          1.380118    -0.496219     0.894533
H          1.295780    -0.523941     1.838069
H          1.512954    -1.400379     0.559638
O         -1.093945     1.554286     0.618531
H         -1.031922     1.943137     1.492156
H         -1.412017     2.309903     0.160618
O         -1.327662    -1.629141    -0.158356
H         -2.193596    -1.227361    -0.264880
H         -1.324595    -2.080127     0.693064

units ang
no_reorient
no_com
symmetry c1
}

set {
basis        aug-cc-pVTZ
scf_type     df
}

energy("mp2")
--------------------------------------------------------------------------

    Molecular point group: c1

    Geometry (in Angstrom), charge = 1, multiplicity = 1:

       Center              X                  Y                   Z               Mass
    ------------   -----------------  -----------------  -----------------  -----------------
         LI           0.000000000000     0.000000000000     0.000000000000     7.016003436600
         O            0.266584000000     0.944052000000    -1.709450000000    15.994914619570
         H            0.979641000000     0.533414000000    -2.222257000000     1.007825032230
         H            0.507280000000     1.865020000000    -1.611472000000     1.007825032230
         O            1.380118000000    -0.496219000000     0.894533000000    15.994914619570
         H            1.295780000000    -0.523941000000     1.838069000000     1.007825032230
         H            1.512954000000    -1.400379000000     0.559638000000     1.007825032230
         O           -1.093945000000     1.554286000000     0.618531000000    15.994914619570
         H           -1.031922000000     1.943137000000     1.492156000000     1.007825032230
         H           -1.412017000000     2.309903000000     0.160618000000     1.007825032230
         O           -1.327662000000    -1.629141000000    -0.158356000000    15.994914619570
         H           -2.193596000000    -1.227361000000    -0.264880000000     1.007825032230
         H           -1.324595000000    -2.080127000000     0.693064000000     1.007825032230

  Charge       = 1
  Multiplicity = 1
  Basis Set: AUG-CC-PVTZ
    Blend: AUG-CC-PVTZ
  Basis Set: (AUG-CC-PVTZ AUX)
    Blend: AUG-CC-PVTZ-JKFIT + DEF2-UNIVERSAL-JKFIT

    Orbital Energies [Eh]
    ---------------------

    Doubly Occupied:

       1A    -20.767513     2A    -20.752850     3A    -20.743038
       4A    -20.742598     5A     -2.534994     6A     -1.563662
       7A     -1.553183     8A     -1.530687     9A     -1.528628
      10A     -0.934948    11A     -0.903692    12A     -0.897294
      13A     -0.890458    14A     -0.812558    15A     -0.803188
      16A     -0.772262    17A     -0.763709    18A     -0.731553
      19A     -0.709646    20A     -0.693595    21A     -0.690153

  @DF-RHF Final Energy:  -311.61744478458473

   => Energetics <=

    Nuclear Repulsion Energy =            164.6691687091320944
    One-Electron Energy =                -749.9328104781357069
    Two-Electron Energy =                 273.6461969844188502
    Total Energy =                       -311.6174447845847340
 Dipole X            :         14.7220353          -14.8640471           -0.1420118
 Dipole Y            :         -7.7994080            8.3213901            0.5219821
 Dipole Z            :          5.0536006           -4.1441694            0.9094312
 Magnitude           :                                                    1.0581578
  Basis Set: (AUG-CC-PVTZ AUX)
    Blend: AUG-CC-PVTZ-RI + DEF2-QZVPP-RI
	 Reference Energy          =    -311.6174447845847340 [Eh]
	 Singles Energy            =      -0.0000000000000000 [Eh]
	 Same-Spin Energy          =      -0.2754714769889376 [Eh]
	 Opposite-Spin Energy      =      -0.8781174186337167 [Eh]
	 Correlation Energy        =      -1.1535888956226543 [Eh]
	 Total Energy              =    -312.7710336802073812 [Eh]

	 ================> DF-SCS-MP2 Energies <==================
	-----------------------------------------------------------
	 SCS Same-Spin Scale       =       0.3333333333333333 [-]
	 SCS Opposite-Spin Scale   =       1.2000000000000000 [-]
	 SCS Same-Spin Energy      =      -0.0918238256629792 [Eh]
	 SCS Opposite-Spin Energy  =      -1.0537409023604600 [Eh]
	 SCS Correlation Energy    =      -1.1455647280234393 [Eh]
	 SCS Total Energy          =    -312.7630095126081642 [Eh]
	-----------------------------------------------------------

*** Psi4 exiting successfully. Buy a developer a beer!
