                               Psi4 1.8.2 release

  ==> Input File <==

--------------------------------------------------------------------------
MEMORY 60 GB

molecule dimer {
0 1
Gh(Li)     0.000000     0.000000     0.000000
Gh(O)     -0.018395    -0.041580     1.983631
Gh(H)     -0.386092    -0.854160     2.162791
Gh(H)     -0.588807     0.602468     2.387195
Gh(O)      1.568867    -0.245466    -0.873446
Gh(H)      1.921565     0.450636    -1.498824
Gh(H)      1.715073    -1.117651    -1.298721
O         -1.777084    -0.764231    -0.483763
H         -1.639151    -1.700624    -0.297360
H         -2.502232    -0.406567     0.104343

units ang
no_reorient
no_com
symmetry c1
}

set {
basis        aug-cc-pVTZ
scf_type     df
}

energy("mp2")
--------------------------------------------------------------------------

    Molecular point group: c1

    Geometry (in Angstrom), charge = 0, multiplicity = 1:

       Center              X                  Y                   Z               Mass
    ------------   -----------------  -----------------  -----------------  -----------------
      Gh(LI)          0.000000000000     0.000000000000     0.000000000000     7.016003436600
      Gh(O)          -0.018395000000    -0.041580000000     1.983631000000    15.994914619570
      Gh(H)          -0.386092000000    -0.854160000000     2.162791000000     1.007825032230
      Gh(H)          -0.588807000000     0.602468000000     2.387195000000     1.007825032230
      Gh(O)           1.568867000000    -0.245466000000    -0.873446000000    15.994914619570
      Gh(H)           1.921565000000     0.450636000000    -1.498824000000     1.007825032230
      Gh(H)           1.715073000000    -1.117651000000    -1.298721000000     1.007825032230
         O           -1.777084000000    -0.764231000000    -0.483763000000    15.994914619570
         H           -1.639151000000    -1.700624000000    -0.297360000000     1.007825032230
         H           -2.502232000000    -0.406567000000     0.104343000000     1.007825032230

  Charge       = 0
  Multiplicity = 1
  Basis Set: AUG-CC-PVTZ
    Blend: AUG-CC-PVTZ
  Basis Set: (AUG-CC-PVTZ AUX)
    Blend: AUG-CC-PVTZ-JKFIT + DEF2-UNIVERSAL-JKFIT

    Orbital Energies [Eh]
    ---------------------

    Doubly Occupied:

       1A    -20.568800     2A     -1.337740     3A     -0.713568
       4A     -0.569990     5A     -0.506713

  @DF-RHF Final Energy:   -76.05681274208187

   => Energetics <=

    Nuclear Repulsion Energy =              8.9520199485686032
    One-Electron Energy =                -122.6240392673460491
    Two-Electron Energy =                  37.6152065766955701
    Total Energy =                        -76.0568127420818740
 Dipole X            :         34.3035665          -34.6916961           -0.3881296
 Dipole Y            :         15.1464352          -15.5355122           -0.3890770
 Dipole Z            :          8.1919606           -7.6781859            0.5137747
 Magnitude           :                                                    0.7523230
  Basis Set: (AUG-CC-PVTZ AUX)
    Blend: AUG-CC-PVTZ-RI + DEF2-QZVPP-RI
	 Reference Energy          =     -76.0568127420818740 [Eh]
	 Singles Energy            =      -0.0000000000000000 [Eh]
	 Same-Spin Energy          =      -0.0687759493832577 [Eh]
	 Opposite-Spin Energy      =      -0.2169755782472174 [Eh]
	 Correlation Energy        =      -0.2857515276304751 [Eh]
	 Total Energy              =     -76.3425642697123550 [Eh]

	 ================> DF-SCS-MP2 Energies <==================
	-----------------------------------------------------------
	 SCS Same-Spin Scale       =       0.3333333333333333 [-]
	 SCS Opposite-Spin Scale   =       1.2000000000000000 [-]
	 SCS Same-Spin Energy      =      -0.0229253164610859 [Eh]
	 SCS Opposite-Spin Energy  =      -0.2603706938966609 [Eh]
	 SCS Correlation Energy    =      -0.2832960103577468 [Eh]
	 SCS Total Energy          =     -76.3401087524396189 [Eh]
	-----------------------------------------------------------

*** Psi4 exiting successfully. Buy a developer a beer!
