                               Psi4 1.8.2 release

  ==> Input File <==

--------------------------------------------------------------------------
MEMORY 60 GB

molecule dimer {
0 1
Gh(Li)     0.000000     0.000000     0.000000
O         -0.815512    -1.973069     0.213618
H         -1.442123    -2.343453     0.881888
H         -0.002592    -2.481571     0.216923
Gh(O)      1.699625     0.035978    -1.109364
Gh(H)      2.234679    -0.288064    -0.379152
Gh(H)      2.152471     0.871850    -1.472594
Gh(O)      0.954529     0.704439     1.627529
Gh(H)      0.792200     1.656184     1.570414
Gh(H)      0.354105     0.450627     2.342875
Gh(O)     -1.562320     1.135689    -0.344199
Gh(H)     -1.999637     1.483420     0.437688
Gh(H)     -1.205724     1.935640    -0.797850

units ang
no_reorient
no_com
symmetry c1
}

set {
basis        aug-cc-pVTZ
scf_type     df
}

energy("mp2")
--------------------------------------------------------------------------

    Molecular point group: c1

    Geometry (in Angstrom), charge = 0, multiplicity = 1:

       Center              X                  Y                   Z               Mass
    ------------   -----------------  -----------------  -----------------  -----------------
      Gh(LI)          0.000000000000     0.000000000000     0.000000000000     7.016003436600
         O           -0.815512000000    -1.973069000000     0.213618000000    15.994914619570
         H           -1.442123000000    -2.343453000000     0.881888000000     1.007825032230
         H           -0.002592000000    -2.481571000000     0.216923000000     1.007825032230
      Gh(O)           1.699625000000     0.035978000000    -1.109364000000    15.994914619570
      Gh(H)           2.234679000000    -0.288064000000    -0.379152000000     1.007825032230
      Gh(H)           2.152471000000     0.871850000000    -1.472594000000     1.007825032230
      Gh(O)           0.954529000000     0.704439000000     1.627529000000    15.994914619570
      Gh(H)           0.792200000000     1.656184000000     1.570414000000     1.007825032230
      Gh(H)           0.354105000000     0.450627000000     2.342875000000     1.007825032230
      Gh(O)          -1.562320000000     1.135689000000    -0.344199000000    15.994914619570
      Gh(H)          -1.999637000000     1.483420000000     0.437688000000     1.007825032230
      Gh(H)          -1.205724000000     1.935640000000    -0.797850000000     1.007825032230

  Charge       = 0
  Multiplicity = 1
  Basis Set: AUG-CC-PVTZ
    Blend: AUG-CC-PVTZ
  Basis Set: (AUG-CC-PVTZ AUX)
    Blend: AUG-CC-PVTZ-JKFIT + DEF2-UNIVERSAL-JKFIT

    Orbital Energies [Eh]
    ---------------------

    Doubly Occupied:

       1A    -20.567364     2A     -1.341914     3A     -0.718283
       4A     -0.571736     5A     -0.507418

  @DF-RHF Final Energy:   -76.05827861049262

   => Energetics <=

    Nuclear Repulsion Energy =              9.0317367572937393
    One-Electron Energy =                -122.7665991428139449
    Two-Electron Energy =                  37.6765837750275949
    Total Energy =                        -76.0582786104926072
 Dipole X            :         15.1871821          -15.0588703            0.1283117
 Dipole Y            :         38.3582833          -38.9464542           -0.5881709
 Dipole Z            :         -4.8586872            5.3058880            0.4472008
 Magnitude           :                                                    0.7499316
  Basis Set: (AUG-CC-PVTZ AUX)
    Blend: AUG-CC-PVTZ-RI + DEF2-QZVPP-RI
	 Reference Energy          =     -76.0582786104926214 [Eh]
	 Singles Energy            =      -0.0000000000000000 [Eh]
	 Same-Spin Energy          =      -0.0686280271680756 [Eh]
	 Opposite-Spin Energy      =      -0.2165344766292966 [Eh]
	 Correlation Energy        =      -0.2851625037973722 [Eh]
	 Total Energy              =     -76.3434411142899876 [Eh]

	 ================> DF-SCS-MP2 Energies <==================
	-----------------------------------------------------------
	 SCS Same-Spin Scale       =       0.3333333333333333 [-]
	 SCS Opposite-Spin Scale   =       1.2000000000000000 [-]
	 SCS Same-Spin Energy      =      -0.0228760090560252 [Eh]
	 SCS Opposite-Spin Energy  =      -0.2598413719551559 [Eh]
	 SCS Correlation Energy    =      -0.2827173810111812 [Eh]
	 SCS Total Energy          =     -76.3409959915038030 [Eh]
	-----------------------------------------------------------

*** Psi4 exiting successfully. Buy a developer a beer!
