                               Psi4 1.8.2 release

  ==> Input File <==

--------------------------------------------------------------------------
MEMORY 60 GB

molecule dimer {
0 1
Gh(Li)     0.000000     0.000000     0.000000
Gh(O)      0.430496    -1.782940     0.114535
Gh(H)     -0.122461    -2.196776     0.778018
Gh(H)      0.095863    -2.257410    -0.608199
Gh(O)     -0.871002     0.606188     1.579229
Gh(H)     -1.261790     1.443134     1.764322
Gh(H)     -0.325521     0.477508     2.360804
Gh(O)     -1.263445     0.240469    -1.487618
Gh(H)     -1.400715    -0.414623    -2.199240
Gh(H)     -1.655584     1.079449    -1.825628
O          1.839475     0.772754    -0.481884
H          2.223970     0.990559     0.396906
H          1.766020     1.624400    -0.919013

units ang
no_reorient
no_com
symmetry c1
}

set {
basis        aug-cc-pVTZ
scf_type     df
}

energy("mp2")
--------------------------------------------------------------------------

    Molecular point group: c1

    Geometry (in Angstrom), charge = 0, multiplicity = 1:

       Center              X                  Y                   Z               Mass
    ------------   -----------------  -----------------  -----------------  -----------------
      Gh(LI)          0.000000000000     0.000000000000     0.000000000000     7.016003436600
      Gh(O)           0.430496000000    -1.782940000000     0.114535000000    15.994914619570
      Gh(H)          -0.122461000000    -2.196776000000     0.778018000000     1.007825032230
      Gh(H)           0.095863000000    -2.257410000000    -0.608199000000     1.007825032230
      Gh(O)          -0.871002000000     0.606188000000     1.579229000000    15.994914619570
      Gh(H)          -1.261790000000     1.443134000000     1.764322000000     1.007825032230
      Gh(H)          -0.325521000000     0.477508000000     2.360804000000     1.007825032230
      Gh(O)          -1.263445000000     0.240469000000    -1.487618000000    15.994914619570
      Gh(H)          -1.400715000000    -0.414623000000    -2.199240000000     1.007825032230
      Gh(H)          -1.655584000000     1.079449000000    -1.825628000000     1.007825032230
         O            1.839475000000     0.772754000000    -0.481884000000    15.994914619570
         H            2.223970000000     0.990559000000     0.396906000000     1.007825032230
         H            1.766020000000     1.624400000000    -0.919013000000     1.007825032230

  Charge       = 0
  Multiplicity = 1
  Basis Set: AUG-CC-PVTZ
    Blend: AUG-CC-PVTZ
  Basis Set: (AUG-CC-PVTZ AUX)
    Blend: AUG-CC-PVTZ-JKFIT + DEF2-UNIVERSAL-JKFIT

    Orbital Energies [Eh]
    ---------------------

    Doubly Occupied:

       1A    -20.569768     2A     -1.346585     3A     -0.708649
       4A     -0.583163     5A     -0.509331

  @DF-RHF Final Energy:   -76.05909901133379

   => Energetics <=

    Nuclear Repulsion Energy =              9.0589165831139127
    One-Electron Energy =                -122.8010335646743982
    Two-Electron Energy =                  37.6830179702267003
    Total Energy =                        -76.0590990113337853
 Dipole X            :        -35.1452333           35.3488201            0.2035867
 Dipole Y            :        -15.9187493           16.6239037            0.7051545
 Dipole Z            :          8.5584860           -8.2716695            0.2868165
 Magnitude           :                                                    0.7880064
  Basis Set: (AUG-CC-PVTZ AUX)
    Blend: AUG-CC-PVTZ-RI + DEF2-QZVPP-RI
	 Reference Energy          =     -76.0590990113337853 [Eh]
	 Singles Energy            =      -0.0000000000000000 [Eh]
	 Same-Spin Energy          =      -0.0686947727098201 [Eh]
	 Opposite-Spin Energy      =      -0.2168258272670942 [Eh]
	 Correlation Energy        =      -0.2855205999769144 [Eh]
	 Total Energy              =     -76.3446196113107050 [Eh]

	 ================> DF-SCS-MP2 Energies <==================
	-----------------------------------------------------------
	 SCS Same-Spin Scale       =       0.3333333333333333 [-]
	 SCS Opposite-Spin Scale   =       1.2000000000000000 [-]
	 SCS Same-Spin Energy      =      -0.0228982575699400 [Eh]
	 SCS Opposite-Spin Energy  =      -0.2601909927205130 [Eh]
	 SCS Correlation Energy    =      -0.2830892502904531 [Eh]
	 SCS Total Energy          =     -76.3421882616242442 [Eh]
	-----------------------------------------------------------

*** Psi4 exiting successfully. Buy a developer a beer!
