                               Psi4 1.8.2 release

  ==> Input File <==

--------------------------------------------------------------------------
MEMORY 60 GB

molecule dimer {
0 1
Gh(Li)     0.000000     0.000000     0.000000
O          0.093466     1.102529     1.398467
H         -0.286264     0.781074     2.237075
H          1.062890     1.237794     1.569113
Gh(O)     -0.817145    -1.577921     0.295809
Gh(H)     -0.126605    -2.261842     0.420003
Gh(H)     -1.199869    -1.626482    -0.594808

units ang
no_reorient
no_com
symmetry c1
}

set {
basis        aug-cc-pVTZ
scf_type     df
}

energy("mp2")
--------------------------------------------------------------------------

    Molecular point group: c1

    Geometry (in Angstrom), charge = 0, multiplicity = 1:

       Center              X                  Y                   Z               Mass
    ------------   -----------------  -----------------  -----------------  -----------------
      Gh(LI)          0.000000000000     0.000000000000     0.000000000000     7.016003436600
         O            0.093466000000     1.102529000000     1.398467000000    15.994914619570
         H           -0.286264000000     0.781074000000     2.237075000000     1.007825032230
         H            1.062890000000     1.237794000000     1.569113000000     1.007825032230
      Gh(O)          -0.817145000000    -1.577921000000     0.295809000000    15.994914619570
      Gh(H)          -0.126605000000    -2.261842000000     0.420003000000     1.007825032230
      Gh(H)          -1.199869000000    -1.626482000000    -0.594808000000     1.007825032230

  Charge       = 0
  Multiplicity = 1
  Basis Set: AUG-CC-PVTZ
    Blend: AUG-CC-PVTZ
  Basis Set: (AUG-CC-PVTZ AUX)
    Blend: AUG-CC-PVTZ-JKFIT + DEF2-UNIVERSAL-JKFIT

    Orbital Energies [Eh]
    ---------------------

    Doubly Occupied:

       1A    -20.570961     2A     -1.338942     3A     -0.706028
       4A     -0.576583     5A     -0.507685

  @DF-RHF Final Energy:   -76.05739127552822

   => Energetics <=

    Nuclear Repulsion Energy =              8.9387301812747104
    One-Electron Energy =                -122.5918458078082978
    Two-Electron Energy =                  37.5957243510053800
    Total Energy =                        -76.0573912755282038
 Dipole X            :         -2.4958952            2.8806116            0.3847164
 Dipole Y            :        -20.6057763           20.4829304           -0.1228459
 Dipole Z            :        -27.6699058           28.3344099            0.6645041
 Magnitude           :                                                    0.7776011
  Basis Set: (AUG-CC-PVTZ AUX)
    Blend: AUG-CC-PVTZ-RI + DEF2-QZVPP-RI
	 Reference Energy          =     -76.0573912755282180 [Eh]
	 Singles Energy            =      -0.0000000000000000 [Eh]
	 Same-Spin Energy          =      -0.0688538473810898 [Eh]
	 Opposite-Spin Energy      =      -0.2171946187217236 [Eh]
	 Correlation Energy        =      -0.2860484661028134 [Eh]
	 Total Energy              =     -76.3434397416310304 [Eh]

	 ================> DF-SCS-MP2 Energies <==================
	-----------------------------------------------------------
	 SCS Same-Spin Scale       =       0.3333333333333333 [-]
	 SCS Opposite-Spin Scale   =       1.2000000000000000 [-]
	 SCS Same-Spin Energy      =      -0.0229512824603633 [Eh]
	 SCS Opposite-Spin Energy  =      -0.2606335424660683 [Eh]
	 SCS Correlation Energy    =      -0.2835848249264316 [Eh]
	 SCS Total Energy          =     -76.3409761004546539 [Eh]
	-----------------------------------------------------------

*** Psi4 exiting successfully. Buy a developer a beer!
