                               Psi4 1.8.2 release

  ==> Input File <==

--------------------------------------------------------------------------
MEMORY 60 GB

molecule dimer {
1 1
Li         0.000000     0.000000     0.000000
Gh(O)      1.657941    -1.223362    -0.380746
Gh(H)      1.563734    -2.109058    -0.739610
Gh(H)      2.274856    -1.293852     0.367845
Gh(O)     -0.318414     0.739503     1.570188
Gh(H)     -0.230935     0.394084     2.496215
Gh(H)     -1.144386     1.187689     1.648398
Gh(O)      0.086934     1.338117    -1.502778
Gh(H)      0.226770     0.880203    -2.354309
Gh(H)      0.560941     2.175826    -1.600435
Gh(O)     -0.994637    -1.379905    -1.081241
Gh(H)     -1.093316    -1.138620    -1.989274
Gh(H)     -0.474365    -2.168984    -1.125378

units ang
no_reorient
no_com
symmetry c1
}

set {
basis        aug-cc-pVTZ
scf_type     df
}

energy("mp2")
--------------------------------------------------------------------------

    Molecular point group: c1

    Geometry (in Angstrom), charge = 1, multiplicity = 1:

       Center              X                  Y                   Z               Mass
    ------------   -----------------  -----------------  -----------------  -----------------
         LI           0.000000000000     0.000000000000     0.000000000000     7.016003436600
      Gh(O)           1.657941000000    -1.223362000000    -0.380746000000    15.994914619570
      Gh(H)           1.563734000000    -2.109058000000    -0.739610000000     1.007825032230
      Gh(H)           2.274856000000    -1.293852000000     0.367845000000     1.007825032230
      Gh(O)          -0.318414000000     0.739503000000     1.570188000000    15.994914619570
      Gh(H)          -0.230935000000     0.394084000000     2.496215000000     1.007825032230
      Gh(H)          -1.144386000000     1.187689000000     1.648398000000     1.007825032230
      Gh(O)           0.086934000000     1.338117000000    -1.502778000000    15.994914619570
      Gh(H)           0.226770000000     0.880203000000    -2.354309000000     1.007825032230
      Gh(H)           0.560941000000     2.175826000000    -1.600435000000     1.007825032230
      Gh(O)          -0.994637000000    -1.379905000000    -1.081241000000    15.994914619570
      Gh(H)          -1.093316000000    -1.138620000000    -1.989274000000     1.007825032230
      Gh(H)          -0.474365000000    -2.168984000000    -1.125378000000     1.007825032230

  Charge       = 1
  Multiplicity = 1
  Basis Set: AUG-CC-PVTZ
    Blend: AUG-CC-PVTZ
  Basis Set: (AUG-CC-PVTZ AUX)
    Blend: AUG-CC-PVTZ-JKFIT + DEF2-UNIVERSAL-JKFIT

    Orbital Energies [Eh]
    ---------------------

    Doubly Occupied:

       1A     -2.792353

  @DF-RHF Final Energy:    -7.23638482121581

   => Energetics <=

    Nuclear Repulsion Energy =              0.0000000000000000
    One-Electron Energy =                  -8.8880642799911040
    Two-Electron Energy =                   1.6516794587752950
    Total Energy =                         -7.2363848212158093
 Dipole X            :          0.0000049            0.0000000            0.0000049
 Dipole Y            :         -0.0000032            0.0000000           -0.0000032
 Dipole Z            :         -0.0000031            0.0000000           -0.0000031
 Magnitude           :                                                    0.0000067
  Basis Set: (AUG-CC-PVTZ AUX)
    Blend: AUG-CC-PVTZ-RI + DEF2-QZVPP-RI
	 Reference Energy          =      -7.2363848212158084 [Eh]
	 Singles Energy            =      -0.0000000000000000 [Eh]
	 Same-Spin Energy          =       0.0000000000000000 [Eh]
	 Opposite-Spin Energy      =      -0.0169157405178714 [Eh]
	 Correlation Energy        =      -0.0169157405178714 [Eh]
	 Total Energy              =      -7.2533005617336794 [Eh]

	 ================> DF-SCS-MP2 Energies <==================
	-----------------------------------------------------------
	 SCS Same-Spin Scale       =       0.3333333333333333 [-]
	 SCS Opposite-Spin Scale   =       1.2000000000000000 [-]
	 SCS Same-Spin Energy      =       0.0000000000000000 [Eh]
	 SCS Opposite-Spin Energy  =      -0.0202988886214457 [Eh]
	 SCS Correlation Energy    =      -0.0202988886214457 [Eh]
	 SCS Total Energy          =      -7.2566837098372545 [Eh]
	-----------------------------------------------------------

*** Psi4 exiting successfully. Buy a developer a beer!
