                               Psi4 1.9 release

  ==> Input File <==

--------------------------------------------------------------------------
MEMORY 60 GB

molecule dimer {
1 1
Li     0.000000     0.000000     0.000000
--
0 1
O      1.624602    -0.599215     0.407332
H      1.779901    -1.053384     1.285034
H      1.968336    -1.288296    -0.194457
O      0.015130     0.160288    -2.112000
H     -0.400199    -0.626732    -2.426521
H     -0.526316     0.911430    -2.400797
O     -0.104266     2.062866     0.061524
H      0.705352     2.549678    -0.205842
H     -0.844368     2.633268     0.033918
O     -1.648907    -0.748215     0.007261
H     -1.595409    -1.659784    -0.142717
H     -2.314959    -0.624781     0.666327

units ang
no_reorient
no_com
symmetry c1
}

set {
basis        aug-cc-pVTZ
scf_type     df
}

energy("mp2", bsse_type="cp")
--------------------------------------------------------------------------

                               Psi4 1.9 release
    Molecular point group: c1
  Charge       = 0
  Multiplicity = 1
  Basis Set: AUG-CC-PVTZ
    Blend: AUG-CC-PVTZ
  Basis Set: (AUG-CC-PVTZ AUX)
    Blend: AUG-CC-PVTZ-JKFIT + DEF2-UNIVERSAL-JKFIT
  @DF-RHF Final Energy:  -304.21307223948139
    Total Energy =                       -304.2130722394813915
 Dipole X            :          3.3599887           -4.0349243           -0.6749356
 Dipole Y            :        -15.3697371           14.8290418           -0.5406953
 Dipole Z            :         31.1272132          -31.1277936           -0.0005804
 Magnitude           :                                                    0.8648062
  Basis Set: (AUG-CC-PVTZ AUX)
    Blend: AUG-CC-PVTZ-RI + DEF2-QZVPP-RI
	 Reference Energy          =    -304.2130722394813915 [Eh]
	 Singles Energy            =      -0.0000000000000000 [Eh]
	 Same-Spin Energy          =      -0.2774285542487354 [Eh]
	 Opposite-Spin Energy      =      -0.8691192871150573 [Eh]
	 Correlation Energy        =      -1.1465478413637926 [Eh]
	 Total Energy              =    -305.3596200808451613 [Eh]
	 SCS Total Energy          =    -305.3484915687690204 [Eh]
                               Psi4 1.9 release
    Molecular point group: c1
  Multiplicity = 1
  Basis Set: AUG-CC-PVTZ
    Blend: AUG-CC-PVTZ
  Basis Set: (AUG-CC-PVTZ AUX)
    Blend: AUG-CC-PVTZ-JKFIT + DEF2-UNIVERSAL-JKFIT
  @DF-RHF Final Energy:    -7.23638485187260
    Total Energy =                         -7.2363848518725966
  Basis Set: (AUG-CC-PVTZ AUX)
	 Singles Energy            =      -0.0000000000000000 [Eh]
	 Same-Spin Energy          =      -0.0000000000000000 [Eh]
	 Opposite-Spin Energy      =      -0.0172318465139995 [Eh]
	 Correlation Energy        =      -0.0172318465139995 [Eh]
	 Total Energy              =      -7.2536166983865957 [Eh]
	 SCS Total Energy          =      -7.2570630676893959 [Eh]
                               Psi4 1.9 release
    Molecular point group: c1

    Geometry (in Bohr), charge = 1, multiplicity = 1:

       Center              X                  Y                   Z               Mass
    ------------   -----------------  -----------------  -----------------  -----------------
         LI           0.000000000000     0.000000000000     0.000000000000     7.016003436600
         O            3.070052842871    -1.132352240266     0.769745922135    15.994914619570
         H            3.363525420429    -1.990607264939     2.428362321902     1.007825032230
         H            3.719615962879    -2.434526608523    -0.367470473178     1.007825032230
         O            0.028591556278     0.302900421197    -3.991101576967    15.994914619570
         H           -0.756266505682    -1.184351834060    -4.585460127672     1.007825032230
         H           -0.994593095446     1.722353082526    -4.536848812821     1.007825032230
         O           -0.197034184197     3.898251773519     0.116263510143    15.994914619570
         H            1.332922102044     4.818193128105    -0.388985005116     1.007825032230
         H           -1.595624269101     4.976155334932     0.064095730723     1.007825032230
         O           -3.115982636350    -1.413921432959     0.013721301397    15.994914619570
         H           -3.014886068091    -3.136537187417    -0.269696043447     1.007825032230
         H           -4.374638501664    -1.180664978390     1.259175539998     1.007825032230

  Charge       = 1
  Multiplicity = 1
  Basis Set: AUG-CC-PVTZ
    Blend: AUG-CC-PVTZ
  Basis Set: (AUG-CC-PVTZ AUX)
    Blend: AUG-CC-PVTZ-JKFIT + DEF2-UNIVERSAL-JKFIT

    Orbital Energies [Eh]
    ---------------------

    Doubly Occupied:

       1A    -20.764365     2A    -20.761002     3A    -20.732620
       4A    -20.726039     5A     -2.529247     6A     -1.571411
       7A     -1.541375     8A     -1.522983     9A     -1.516371
      10A     -0.938262    11A     -0.898079    12A     -0.888884
      13A     -0.885370    14A     -0.814782    15A     -0.805944
      16A     -0.763339    17A     -0.749927    18A     -0.727400
      19A     -0.713190    20A     -0.688471    21A     -0.669966

  @DF-RHF Final Energy:  -311.61715651121608

   => Energetics <=

    Nuclear Repulsion Energy =            166.3723016371825452
    One-Electron Energy =                -753.5608577917812454
    Two-Electron Energy =                 275.5713996433826196
    Total Energy =                       -311.6171565112160806
 Dipole X            :          3.3230127           -4.0349243           -0.7119116
 Dipole Y            :        -15.3442266           14.8290418           -0.5151848
 Dipole Z            :         30.9188633          -31.1277936           -0.2089303
 Magnitude           :                                                    0.9032637
  Basis Set: (AUG-CC-PVTZ AUX)
    Blend: AUG-CC-PVTZ-RI + DEF2-QZVPP-RI
	 Reference Energy          =    -311.6171565112160806 [Eh]
	 Singles Energy            =      -0.0000000000000000 [Eh]
	 Same-Spin Energy          =      -0.2757037468270020 [Eh]
	 Opposite-Spin Energy      =      -0.8783818541459687 [Eh]
	 Correlation Energy        =      -1.1540856009729707 [Eh]
	 Total Energy              =    -312.7712421121890429 [Eh]

	 ================> DF-SCS-MP2 Energies <==================
	-----------------------------------------------------------
	 SCS Same-Spin Scale       =       0.3333333333333333 [-]
	 SCS Opposite-Spin Scale   =       1.2000000000000000 [-]
	 SCS Same-Spin Energy      =      -0.0919012489423340 [Eh]
	 SCS Opposite-Spin Energy  =      -1.0540582249751624 [Eh]
	 SCS Correlation Energy    =      -1.1459594739174965 [Eh]
	 SCS Total Energy          =    -312.7631159851335951 [Eh]
	-----------------------------------------------------------

*** Psi4 exiting successfully. Buy a developer a beer!
