                               Psi4 1.8.2 release

  ==> Input File <==

--------------------------------------------------------------------------
MEMORY 60 GB

molecule dimer {
0 1
Gh(Li)     0.000000     0.000000     0.000000
Gh(O)     -0.960185    -1.720806     0.734715
Gh(H)     -1.609753    -1.980636     0.053101
Gh(H)     -1.464227    -1.639800     1.581140
O         -0.437682     0.868054     1.944262
H          0.112980     1.630091     1.719873
H          0.152970     0.176865     2.309788
Gh(O)     -1.028560     1.162893    -1.082054
Gh(H)     -1.748052     1.570993    -0.564156
Gh(H)     -1.147301     1.431115    -1.976130
Gh(O)      1.527560    -0.693332    -0.338641
Gh(H)      1.804729    -1.158174    -1.131997
Gh(H)      2.284838    -0.148433    -0.221551

units ang
no_reorient
no_com
symmetry c1
}

set {
basis        aug-cc-pVTZ
scf_type     df
}

energy("mp2")
--------------------------------------------------------------------------

    Molecular point group: c1

    Geometry (in Angstrom), charge = 0, multiplicity = 1:

       Center              X                  Y                   Z               Mass
    ------------   -----------------  -----------------  -----------------  -----------------
      Gh(LI)          0.000000000000     0.000000000000     0.000000000000     7.016003436600
      Gh(O)          -0.960185000000    -1.720806000000     0.734715000000    15.994914619570
      Gh(H)          -1.609753000000    -1.980636000000     0.053101000000     1.007825032230
      Gh(H)          -1.464227000000    -1.639800000000     1.581140000000     1.007825032230
         O           -0.437682000000     0.868054000000     1.944262000000    15.994914619570
         H            0.112980000000     1.630091000000     1.719873000000     1.007825032230
         H            0.152970000000     0.176865000000     2.309788000000     1.007825032230
      Gh(O)          -1.028560000000     1.162893000000    -1.082054000000    15.994914619570
      Gh(H)          -1.748052000000     1.570993000000    -0.564156000000     1.007825032230
      Gh(H)          -1.147301000000     1.431115000000    -1.976130000000     1.007825032230
      Gh(O)           1.527560000000    -0.693332000000    -0.338641000000    15.994914619570
      Gh(H)           1.804729000000    -1.158174000000    -1.131997000000     1.007825032230
      Gh(H)           2.284838000000    -0.148433000000    -0.221551000000     1.007825032230

  Charge       = 0
  Multiplicity = 1
  Basis Set: AUG-CC-PVTZ
    Blend: AUG-CC-PVTZ
  Basis Set: (AUG-CC-PVTZ AUX)
    Blend: AUG-CC-PVTZ-JKFIT + DEF2-UNIVERSAL-JKFIT

    Orbital Energies [Eh]
    ---------------------

    Doubly Occupied:

       1A    -20.568439     2A     -1.343391     3A     -0.714386
       4A     -0.576127     5A     -0.508144

  @DF-RHF Final Energy:   -76.05901433313846

   => Energetics <=

    Nuclear Repulsion Energy =              9.0372909228413594
    One-Electron Energy =                -122.7716342344423879
    Two-Electron Energy =                  37.6753289784625522
    Total Energy =                        -76.0590143331384638
 Dipole X            :          6.8719844           -6.1142202            0.7577641
 Dipole Y            :        -16.4887181           16.5377265            0.0490084
 Dipole Z            :        -36.9148817           37.0079372            0.0930555
 Magnitude           :                                                    0.7650279
  Basis Set: (AUG-CC-PVTZ AUX)
    Blend: AUG-CC-PVTZ-RI + DEF2-QZVPP-RI
	 Reference Energy          =     -76.0590143331384638 [Eh]
	 Singles Energy            =      -0.0000000000000000 [Eh]
	 Same-Spin Energy          =      -0.0686607296837181 [Eh]
	 Opposite-Spin Energy      =      -0.2167568550780441 [Eh]
	 Correlation Energy        =      -0.2854175847617622 [Eh]
	 Total Energy              =     -76.3444319179002235 [Eh]

	 ================> DF-SCS-MP2 Energies <==================
	-----------------------------------------------------------
	 SCS Same-Spin Scale       =       0.3333333333333333 [-]
	 SCS Opposite-Spin Scale   =       1.2000000000000000 [-]
	 SCS Same-Spin Energy      =      -0.0228869098945727 [Eh]
	 SCS Opposite-Spin Energy  =      -0.2601082260936529 [Eh]
	 SCS Correlation Energy    =      -0.2829951359882256 [Eh]
	 SCS Total Energy          =     -76.3420094691266939 [Eh]
	-----------------------------------------------------------

*** Psi4 exiting successfully. Buy a developer a beer!
