                               Psi4 1.9 release

  ==> Input File <==

--------------------------------------------------------------------------
MEMORY 60 GB

molecule dimer {
1 1
Li     0.000000     0.000000     0.000000
--
0 1
O     -1.054262     1.033472     1.093346
H     -1.730482     0.532374     1.562433
H     -1.571843     1.575637     0.505802
O     -0.744178    -1.532605    -0.783434
H     -0.277426    -1.988784    -1.466297
H     -1.469992    -1.214014    -1.334823
O      1.660220    -0.198584     0.829101
H      2.081802    -0.988587     0.338437
H      2.282426     0.471872     1.056824

units ang
no_reorient
no_com
symmetry c1
}

set {
basis        aug-cc-pVTZ
scf_type     df
}

energy("mp2", bsse_type="cp")
--------------------------------------------------------------------------

                               Psi4 1.9 release
    Molecular point group: c1
  Charge       = 0
  Multiplicity = 1
  Basis Set: AUG-CC-PVTZ
    Blend: AUG-CC-PVTZ
  Basis Set: (AUG-CC-PVTZ AUX)
    Blend: AUG-CC-PVTZ-JKFIT + DEF2-UNIVERSAL-JKFIT
  @DF-RHF Final Energy:  -228.16017835409980
    Total Energy =                       -228.1601783540997985
 Dipole X            :          3.1330583           -3.3850192           -0.2519609
 Dipole Y            :         13.4622914          -13.5932498           -0.1309583
 Dipole Z            :        -19.4968607           18.4710902           -1.0257705
 Magnitude           :                                                    1.0643493
  Basis Set: (AUG-CC-PVTZ AUX)
    Blend: AUG-CC-PVTZ-RI + DEF2-QZVPP-RI
	 Reference Energy          =    -228.1601783540997985 [Eh]
	 Singles Energy            =      -0.0000000000000000 [Eh]
	 Same-Spin Energy          =      -0.2074609243903394 [Eh]
	 Opposite-Spin Energy      =      -0.6514886222700828 [Eh]
	 Correlation Energy        =      -0.8589495466604222 [Eh]
	 Total Energy              =    -229.0191279007602247 [Eh]
	 SCS Total Energy          =    -229.0111183422873466 [Eh]
                               Psi4 1.9 release
    Molecular point group: c1
  Multiplicity = 1
  Basis Set: AUG-CC-PVTZ
    Blend: AUG-CC-PVTZ
  Basis Set: (AUG-CC-PVTZ AUX)
    Blend: AUG-CC-PVTZ-JKFIT + DEF2-UNIVERSAL-JKFIT
  @DF-RHF Final Energy:    -7.23638456362973
    Total Energy =                         -7.2363845636297253
  Basis Set: (AUG-CC-PVTZ AUX)
	 Singles Energy            =      -0.0000000000000000 [Eh]
	 Same-Spin Energy          =      -0.0000000000000000 [Eh]
	 Opposite-Spin Energy      =      -0.0164771000288504 [Eh]
	 Correlation Energy        =      -0.0164771000288504 [Eh]
	 Total Energy              =      -7.2528616636585754 [Eh]
	 SCS Total Energy          =      -7.2561570836643456 [Eh]
                               Psi4 1.9 release
    Molecular point group: c1

    Geometry (in Bohr), charge = 1, multiplicity = 1:

       Center              X                  Y                   Z               Mass
    ------------   -----------------  -----------------  -----------------  -----------------
         LI           0.000000000000     0.000000000000     0.000000000000     7.016003436600
         O           -1.992266444477     1.952979038329     2.066124500365    15.994914619570
         H           -3.270137045035     1.006041056314     2.952570459377     1.007825032230
         H           -2.970352782218     2.977522403138     0.955827253709     1.007825032230
         O           -1.406292608591    -2.896203708507    -1.480475697372    15.994914619570
         H           -0.524259160081    -3.758257082693    -2.770899748580     1.007825032230
         H           -2.777882286614    -2.294153972472    -2.522449895962     1.007825032230
         O            3.137361108008    -0.375269372898     1.566773820343    15.994914619570
         H            3.934035627430    -1.868158681188     0.639553240722     1.007825032230
         H            4.313160041624     0.891708846272     1.997107922811     1.007825032230

  Charge       = 1
  Multiplicity = 1
  Basis Set: AUG-CC-PVTZ
    Blend: AUG-CC-PVTZ
  Basis Set: (AUG-CC-PVTZ AUX)
    Blend: AUG-CC-PVTZ-JKFIT + DEF2-UNIVERSAL-JKFIT

    Orbital Energies [Eh]
    ---------------------

    Doubly Occupied:

       1A    -20.785658     2A    -20.771200     3A    -20.763577
       4A     -2.571974     5A     -1.583221     6A     -1.566250
       7A     -1.540511     8A     -0.924857     9A     -0.920345
      10A     -0.918690    11A     -0.835104    12A     -0.815653
      13A     -0.778339    14A     -0.742990    15A     -0.729903
      16A     -0.712944

  @DF-RHF Final Energy:  -235.52989284679910

   => Energetics <=

    Nuclear Repulsion Energy =            100.2389433949789748
    One-Electron Energy =                -517.6152357935196733
    Two-Electron Energy =                 181.8463995517416265
    Total Energy =                       -235.5298928467991004
 Dipole X            :          3.0951492           -3.3850192           -0.2898700
 Dipole Y            :         13.3136014          -13.5932498           -0.2796483
 Dipole Z            :        -19.3503012           18.4710902           -0.8792110
 Magnitude           :                                                    0.9670780
  Basis Set: (AUG-CC-PVTZ AUX)
    Blend: AUG-CC-PVTZ-RI + DEF2-QZVPP-RI
	 Reference Energy          =    -235.5298928467991004 [Eh]
	 Singles Energy            =      -0.0000000000000000 [Eh]
	 Same-Spin Energy          =      -0.2062206412882058 [Eh]
	 Opposite-Spin Energy      =      -0.6618238494062049 [Eh]
	 Correlation Energy        =      -0.8680444906944107 [Eh]
	 Total Energy              =    -236.3979373374935165 [Eh]

	 ================> DF-SCS-MP2 Energies <==================
	-----------------------------------------------------------
	 SCS Same-Spin Scale       =       0.3333333333333333 [-]
	 SCS Opposite-Spin Scale   =       1.2000000000000000 [-]
	 SCS Same-Spin Energy      =      -0.0687402137627353 [Eh]
	 SCS Opposite-Spin Energy  =      -0.7941886192874458 [Eh]
	 SCS Correlation Energy    =      -0.8629288330501811 [Eh]
	 SCS Total Energy          =    -236.3928216798492770 [Eh]
	-----------------------------------------------------------

*** Psi4 exiting successfully. Buy a developer a beer!
