                               Psi4 1.8.2 release

  ==> Input File <==

--------------------------------------------------------------------------
MEMORY 60 GB

molecule dimer {
0 1
Gh(Li)     0.000000     0.000000     0.000000
Gh(O)     -1.720601    -0.454939     0.668843
Gh(H)     -2.367035    -0.441477     1.379955
Gh(H)     -2.112942    -1.235939     0.197061
Gh(O)      0.258055     1.761577     0.977628
Gh(H)     -0.298766     2.544675     1.027660
Gh(H)      0.877315     1.972477     1.753294
O          0.341148     0.486488    -2.065997
H          1.299138     0.518447    -2.285794
H          0.121500     1.408985    -2.167791
Gh(O)      1.225061    -1.617859     0.341381
Gh(H)      0.889538    -2.345444     0.815641
Gh(H)      1.490168    -2.059704    -0.492452

units ang
no_reorient
no_com
symmetry c1
}

set {
basis        aug-cc-pVTZ
scf_type     df
}

energy("mp2")
--------------------------------------------------------------------------

    Molecular point group: c1

    Geometry (in Angstrom), charge = 0, multiplicity = 1:

       Center              X                  Y                   Z               Mass
    ------------   -----------------  -----------------  -----------------  -----------------
      Gh(LI)          0.000000000000     0.000000000000     0.000000000000     7.016003436600
      Gh(O)          -1.720601000000    -0.454939000000     0.668843000000    15.994914619570
      Gh(H)          -2.367035000000    -0.441477000000     1.379955000000     1.007825032230
      Gh(H)          -2.112942000000    -1.235939000000     0.197061000000     1.007825032230
      Gh(O)           0.258055000000     1.761577000000     0.977628000000    15.994914619570
      Gh(H)          -0.298766000000     2.544675000000     1.027660000000     1.007825032230
      Gh(H)           0.877315000000     1.972477000000     1.753294000000     1.007825032230
         O            0.341148000000     0.486488000000    -2.065997000000    15.994914619570
         H            1.299138000000     0.518447000000    -2.285794000000     1.007825032230
         H            0.121500000000     1.408985000000    -2.167791000000     1.007825032230
      Gh(O)           1.225061000000    -1.617859000000     0.341381000000    15.994914619570
      Gh(H)           0.889538000000    -2.345444000000     0.815641000000     1.007825032230
      Gh(H)           1.490168000000    -2.059704000000    -0.492452000000     1.007825032230

  Charge       = 0
  Multiplicity = 1
  Basis Set: AUG-CC-PVTZ
    Blend: AUG-CC-PVTZ
  Basis Set: (AUG-CC-PVTZ AUX)
    Blend: AUG-CC-PVTZ-JKFIT + DEF2-UNIVERSAL-JKFIT

    Orbital Energies [Eh]
    ---------------------

    Doubly Occupied:

       1A    -20.570978     2A     -1.351350     3A     -0.702265
       4A     -0.591945     5A     -0.510824

  @DF-RHF Final Energy:   -76.05851628012093

   => Energetics <=

    Nuclear Repulsion Energy =              9.1009332323289058
    One-Electron Energy =                -122.8641729291921223
    Two-Electron Energy =                  37.7047234167423042
    Total Energy =                        -76.0585162801209265
 Dipole X            :         -7.3656870            7.8420270            0.4763400
 Dipole Y            :        -10.3716404           10.9969513            0.6253109
 Dipole Z            :         39.4400860          -39.6494040           -0.2093180
 Magnitude           :                                                    0.8134664
  Basis Set: (AUG-CC-PVTZ AUX)
    Blend: AUG-CC-PVTZ-RI + DEF2-QZVPP-RI
	 Reference Energy          =     -76.0585162801209265 [Eh]
	 Singles Energy            =      -0.0000000000000000 [Eh]
	 Same-Spin Energy          =      -0.0687324016310558 [Eh]
	 Opposite-Spin Energy      =      -0.2168030408443323 [Eh]
	 Correlation Energy        =      -0.2855354424753880 [Eh]
	 Total Energy              =     -76.3440517225963191 [Eh]

	 ================> DF-SCS-MP2 Energies <==================
	-----------------------------------------------------------
	 SCS Same-Spin Scale       =       0.3333333333333333 [-]
	 SCS Opposite-Spin Scale   =       1.2000000000000000 [-]
	 SCS Same-Spin Energy      =      -0.0229108005436853 [Eh]
	 SCS Opposite-Spin Energy  =      -0.2601636490131987 [Eh]
	 SCS Correlation Energy    =      -0.2830744495568840 [Eh]
	 SCS Total Energy          =     -76.3415907296778045 [Eh]
	-----------------------------------------------------------

*** Psi4 exiting successfully. Buy a developer a beer!
