                               Psi4 1.8.2 release

  ==> Input File <==

--------------------------------------------------------------------------
MEMORY 60 GB

molecule dimer {
0 1
Gh(Li)     0.000000     0.000000     0.000000
O         -0.960185    -1.720806     0.734715
H         -1.609753    -1.980636     0.053101
H         -1.464227    -1.639800     1.581140
Gh(O)     -0.437682     0.868054     1.944262
Gh(H)      0.112980     1.630091     1.719873
Gh(H)      0.152970     0.176865     2.309788
Gh(O)     -1.028560     1.162893    -1.082054
Gh(H)     -1.748052     1.570993    -0.564156
Gh(H)     -1.147301     1.431115    -1.976130
Gh(O)      1.527560    -0.693332    -0.338641
Gh(H)      1.804729    -1.158174    -1.131997
Gh(H)      2.284838    -0.148433    -0.221551

units ang
no_reorient
no_com
symmetry c1
}

set {
basis        aug-cc-pVTZ
scf_type     df
}

energy("mp2")
--------------------------------------------------------------------------

    Molecular point group: c1

    Geometry (in Angstrom), charge = 0, multiplicity = 1:

       Center              X                  Y                   Z               Mass
    ------------   -----------------  -----------------  -----------------  -----------------
      Gh(LI)          0.000000000000     0.000000000000     0.000000000000     7.016003436600
         O           -0.960185000000    -1.720806000000     0.734715000000    15.994914619570
         H           -1.609753000000    -1.980636000000     0.053101000000     1.007825032230
         H           -1.464227000000    -1.639800000000     1.581140000000     1.007825032230
      Gh(O)          -0.437682000000     0.868054000000     1.944262000000    15.994914619570
      Gh(H)           0.112980000000     1.630091000000     1.719873000000     1.007825032230
      Gh(H)           0.152970000000     0.176865000000     2.309788000000     1.007825032230
      Gh(O)          -1.028560000000     1.162893000000    -1.082054000000    15.994914619570
      Gh(H)          -1.748052000000     1.570993000000    -0.564156000000     1.007825032230
      Gh(H)          -1.147301000000     1.431115000000    -1.976130000000     1.007825032230
      Gh(O)           1.527560000000    -0.693332000000    -0.338641000000    15.994914619570
      Gh(H)           1.804729000000    -1.158174000000    -1.131997000000     1.007825032230
      Gh(H)           2.284838000000    -0.148433000000    -0.221551000000     1.007825032230

  Charge       = 0
  Multiplicity = 1
  Basis Set: AUG-CC-PVTZ
    Blend: AUG-CC-PVTZ
  Basis Set: (AUG-CC-PVTZ AUX)
    Blend: AUG-CC-PVTZ-JKFIT + DEF2-UNIVERSAL-JKFIT

    Orbital Energies [Eh]
    ---------------------

    Doubly Occupied:

       1A    -20.570534     2A     -1.339569     3A     -0.707235
       4A     -0.576551     5A     -0.507746

  @DF-RHF Final Energy:   -76.05779492039315

   => Energetics <=

    Nuclear Repulsion Energy =              8.9535614752800647
    One-Electron Energy =                -122.6194402281712712
    Two-Electron Energy =                  37.6080838324980675
    Total Energy =                        -76.0577949203931354
 Dipole X            :         19.5657635          -20.3248738           -0.7591103
 Dipole Y            :         32.7381687          -32.8564489           -0.1182802
 Dipole Z            :        -14.0888853           14.1955490            0.1066637
 Magnitude           :                                                    0.7756389
  Basis Set: (AUG-CC-PVTZ AUX)
    Blend: AUG-CC-PVTZ-RI + DEF2-QZVPP-RI
	 Reference Energy          =     -76.0577949203931496 [Eh]
	 Singles Energy            =      -0.0000000000000000 [Eh]
	 Same-Spin Energy          =      -0.0688447119400891 [Eh]
	 Opposite-Spin Energy      =      -0.2172925795802222 [Eh]
	 Correlation Energy        =      -0.2861372915203113 [Eh]
	 Total Energy              =     -76.3439322119134545 [Eh]

	 ================> DF-SCS-MP2 Energies <==================
	-----------------------------------------------------------
	 SCS Same-Spin Scale       =       0.3333333333333333 [-]
	 SCS Opposite-Spin Scale   =       1.2000000000000000 [-]
	 SCS Same-Spin Energy      =      -0.0229482373133630 [Eh]
	 SCS Opposite-Spin Energy  =      -0.2607510954962667 [Eh]
	 SCS Correlation Energy    =      -0.2836993328096297 [Eh]
	 SCS Total Energy          =     -76.3414942532027823 [Eh]
	-----------------------------------------------------------

*** Psi4 exiting successfully. Buy a developer a beer!
