                               Psi4 1.8.2 release

  ==> Input File <==

--------------------------------------------------------------------------
MEMORY 60 GB

molecule dimer {
1 1
Li         0.000000     0.000000     0.000000
Gh(O)     -1.680746     0.276584    -0.524122
Gh(H)     -2.436906    -0.277091    -0.431906
Gh(H)     -1.899859     1.075426    -0.063132
Gh(O)     -0.071560    -1.420903     1.240510
Gh(H)     -0.473745    -2.213538     0.802591
Gh(H)     -0.780622    -1.152250     1.882048
Gh(O)      0.700028     1.207376     1.195221
Gh(H)      0.272867     1.039453     2.053918
Gh(H)      0.629594     2.124003     0.978537
Gh(O)      1.186987    -0.149614    -1.450273
Gh(H)      1.341045     0.793609    -1.646914
Gh(H)      0.746015    -0.501685    -2.225984

units ang
no_reorient
no_com
symmetry c1
}

set {
basis        aug-cc-pVTZ
scf_type     df
}

energy("mp2")
--------------------------------------------------------------------------

    Molecular point group: c1

    Geometry (in Angstrom), charge = 1, multiplicity = 1:

       Center              X                  Y                   Z               Mass
    ------------   -----------------  -----------------  -----------------  -----------------
         LI           0.000000000000     0.000000000000     0.000000000000     7.016003436600
      Gh(O)          -1.680746000000     0.276584000000    -0.524122000000    15.994914619570
      Gh(H)          -2.436906000000    -0.277091000000    -0.431906000000     1.007825032230
      Gh(H)          -1.899859000000     1.075426000000    -0.063132000000     1.007825032230
      Gh(O)          -0.071560000000    -1.420903000000     1.240510000000    15.994914619570
      Gh(H)          -0.473745000000    -2.213538000000     0.802591000000     1.007825032230
      Gh(H)          -0.780622000000    -1.152250000000     1.882048000000     1.007825032230
      Gh(O)           0.700028000000     1.207376000000     1.195221000000    15.994914619570
      Gh(H)           0.272867000000     1.039453000000     2.053918000000     1.007825032230
      Gh(H)           0.629594000000     2.124003000000     0.978537000000     1.007825032230
      Gh(O)           1.186987000000    -0.149614000000    -1.450273000000    15.994914619570
      Gh(H)           1.341045000000     0.793609000000    -1.646914000000     1.007825032230
      Gh(H)           0.746015000000    -0.501685000000    -2.225984000000     1.007825032230

  Charge       = 1
  Multiplicity = 1
  Basis Set: AUG-CC-PVTZ
    Blend: AUG-CC-PVTZ
  Basis Set: (AUG-CC-PVTZ AUX)
    Blend: AUG-CC-PVTZ-JKFIT + DEF2-UNIVERSAL-JKFIT

    Orbital Energies [Eh]
    ---------------------

    Doubly Occupied:

       1A     -2.792351

  @DF-RHF Final Energy:    -7.23638504872759

   => Energetics <=

    Nuclear Repulsion Energy =              0.0000000000000000
    One-Electron Energy =                  -8.8880683288047724
    Two-Electron Energy =                   1.6516832800771835
    Total Energy =                         -7.2363850487275894
 Dipole X            :          0.0000008            0.0000000            0.0000008
 Dipole Y            :         -0.0000055            0.0000000           -0.0000055
 Dipole Z            :         -0.0000025            0.0000000           -0.0000025
 Magnitude           :                                                    0.0000061
  Basis Set: (AUG-CC-PVTZ AUX)
    Blend: AUG-CC-PVTZ-RI + DEF2-QZVPP-RI
	 Reference Energy          =      -7.2363850487275885 [Eh]
	 Singles Energy            =      -0.0000000000000000 [Eh]
	 Same-Spin Energy          =       0.0000000000000000 [Eh]
	 Opposite-Spin Energy      =      -0.0180499930679229 [Eh]
	 Correlation Energy        =      -0.0180499930679229 [Eh]
	 Total Energy              =      -7.2544350417955110 [Eh]

	 ================> DF-SCS-MP2 Energies <==================
	-----------------------------------------------------------
	 SCS Same-Spin Scale       =       0.3333333333333333 [-]
	 SCS Opposite-Spin Scale   =       1.2000000000000000 [-]
	 SCS Same-Spin Energy      =       0.0000000000000000 [Eh]
	 SCS Opposite-Spin Energy  =      -0.0216599916815075 [Eh]
	 SCS Correlation Energy    =      -0.0216599916815075 [Eh]
	 SCS Total Energy          =      -7.2580450404090957 [Eh]
	-----------------------------------------------------------

*** Psi4 exiting successfully. Buy a developer a beer!
