                               Psi4 1.8.2 release

  ==> Input File <==

--------------------------------------------------------------------------
MEMORY 60 GB

molecule dimer {
0 1
Gh(Li)     0.000000     0.000000     0.000000
Gh(O)     -1.715018     0.035203     0.485956
Gh(H)     -1.936750    -0.119626     1.364263
Gh(H)     -2.298787     0.693310     0.156393
O          1.091749    -0.253037     1.609196
H          1.070284    -1.120083     2.020331
H          0.767319     0.430326     2.249368
Gh(O)      0.246191     2.036729    -0.098373
Gh(H)      0.467254     2.250333     0.806838
Gh(H)      0.917922     2.460712    -0.640110
Gh(O)      0.268445    -0.553088    -1.903107
Gh(H)     -0.423728    -0.525899    -2.557714
Gh(H)      0.710424    -1.402795    -2.022738

units ang
no_reorient
no_com
symmetry c1
}

set {
basis        aug-cc-pVTZ
scf_type     df
}

energy("mp2")
--------------------------------------------------------------------------

    Molecular point group: c1

    Geometry (in Angstrom), charge = 0, multiplicity = 1:

       Center              X                  Y                   Z               Mass
    ------------   -----------------  -----------------  -----------------  -----------------
      Gh(LI)          0.000000000000     0.000000000000     0.000000000000     7.016003436600
      Gh(O)          -1.715018000000     0.035203000000     0.485956000000    15.994914619570
      Gh(H)          -1.936750000000    -0.119626000000     1.364263000000     1.007825032230
      Gh(H)          -2.298787000000     0.693310000000     0.156393000000     1.007825032230
         O            1.091749000000    -0.253037000000     1.609196000000    15.994914619570
         H            1.070284000000    -1.120083000000     2.020331000000     1.007825032230
         H            0.767319000000     0.430326000000     2.249368000000     1.007825032230
      Gh(O)           0.246191000000     2.036729000000    -0.098373000000    15.994914619570
      Gh(H)           0.467254000000     2.250333000000     0.806838000000     1.007825032230
      Gh(H)           0.917922000000     2.460712000000    -0.640110000000     1.007825032230
      Gh(O)           0.268445000000    -0.553088000000    -1.903107000000    15.994914619570
      Gh(H)          -0.423728000000    -0.525899000000    -2.557714000000     1.007825032230
      Gh(H)           0.710424000000    -1.402795000000    -2.022738000000     1.007825032230

  Charge       = 0
  Multiplicity = 1
  Basis Set: AUG-CC-PVTZ
    Blend: AUG-CC-PVTZ
  Basis Set: (AUG-CC-PVTZ AUX)
    Blend: AUG-CC-PVTZ-JKFIT + DEF2-UNIVERSAL-JKFIT

    Orbital Energies [Eh]
    ---------------------

    Doubly Occupied:

       1A    -20.567593     2A     -1.340902     3A     -0.717477
       4A     -0.571086     5A     -0.507214

  @DF-RHF Final Energy:   -76.05795802026427

   => Energetics <=

    Nuclear Repulsion Energy =              9.0140430499104536
    One-Electron Energy =                -122.7354535395020889
    Two-Electron Energy =                  37.6634524693273534
    Total Energy =                        -76.0579580202642802
 Dipole X            :        -20.2075493           19.9774193           -0.2301300
 Dipole Y            :          5.0017198           -5.1288169           -0.1270970
 Dipole Z            :        -31.6941450           32.3960795            0.7019345
 Magnitude           :                                                    0.7495503
  Basis Set: (AUG-CC-PVTZ AUX)
    Blend: AUG-CC-PVTZ-RI + DEF2-QZVPP-RI
	 Reference Energy          =     -76.0579580202642660 [Eh]
	 Singles Energy            =      -0.0000000000000000 [Eh]
	 Same-Spin Energy          =      -0.0686797701249479 [Eh]
	 Opposite-Spin Energy      =      -0.2168032386628885 [Eh]
	 Correlation Energy        =      -0.2854830087878364 [Eh]
	 Total Energy              =     -76.3434410290521015 [Eh]

	 ================> DF-SCS-MP2 Energies <==================
	-----------------------------------------------------------
	 SCS Same-Spin Scale       =       0.3333333333333333 [-]
	 SCS Opposite-Spin Scale   =       1.2000000000000000 [-]
	 SCS Same-Spin Energy      =      -0.0228932567083160 [Eh]
	 SCS Opposite-Spin Energy  =      -0.2601638863954662 [Eh]
	 SCS Correlation Energy    =      -0.2830571431037822 [Eh]
	 SCS Total Energy          =     -76.3410151633680414 [Eh]
	-----------------------------------------------------------

*** Psi4 exiting successfully. Buy a developer a beer!
