                               Psi4 1.8.2 release

  ==> Input File <==

--------------------------------------------------------------------------
MEMORY 60 GB

molecule dimer {
0 1
Gh(Li)     0.000000     0.000000     0.000000
O          0.778758    -0.677263     1.669262
H          0.156902    -1.291452     2.063438
H          1.726307    -1.001041     1.653786
Gh(O)     -0.201146     1.717887    -0.567701
Gh(H)     -0.877478     2.173081    -0.028194
Gh(H)     -0.676930     1.554022    -1.382573
Gh(O)      0.498720    -1.024337    -1.589394
Gh(H)      0.287247    -0.644818    -2.452001
Gh(H)      1.305141    -1.493530    -1.587149
Gh(O)     -1.985305    -0.778725    -0.196160
Gh(H)     -2.154204    -1.191439    -1.039674
Gh(H)     -2.698583    -0.134123    -0.133709

units ang
no_reorient
no_com
symmetry c1
}

set {
basis        aug-cc-pVTZ
scf_type     df
}

energy("mp2")
--------------------------------------------------------------------------

    Molecular point group: c1

    Geometry (in Angstrom), charge = 0, multiplicity = 1:

       Center              X                  Y                   Z               Mass
    ------------   -----------------  -----------------  -----------------  -----------------
      Gh(LI)          0.000000000000     0.000000000000     0.000000000000     7.016003436600
         O            0.778758000000    -0.677263000000     1.669262000000    15.994914619570
         H            0.156902000000    -1.291452000000     2.063438000000     1.007825032230
         H            1.726307000000    -1.001041000000     1.653786000000     1.007825032230
      Gh(O)          -0.201146000000     1.717887000000    -0.567701000000    15.994914619570
      Gh(H)          -0.877478000000     2.173081000000    -0.028194000000     1.007825032230
      Gh(H)          -0.676930000000     1.554022000000    -1.382573000000     1.007825032230
      Gh(O)           0.498720000000    -1.024337000000    -1.589394000000    15.994914619570
      Gh(H)           0.287247000000    -0.644818000000    -2.452001000000     1.007825032230
      Gh(H)           1.305141000000    -1.493530000000    -1.587149000000     1.007825032230
      Gh(O)          -1.985305000000    -0.778725000000    -0.196160000000    15.994914619570
      Gh(H)          -2.154204000000    -1.191439000000    -1.039674000000     1.007825032230
      Gh(H)          -2.698583000000    -0.134123000000    -0.133709000000     1.007825032230

  Charge       = 0
  Multiplicity = 1
  Basis Set: AUG-CC-PVTZ
    Blend: AUG-CC-PVTZ
  Basis Set: (AUG-CC-PVTZ AUX)
    Blend: AUG-CC-PVTZ-JKFIT + DEF2-UNIVERSAL-JKFIT

    Orbital Energies [Eh]
    ---------------------

    Doubly Occupied:

       1A    -20.565986     2A     -1.335835     3A     -0.722454
       4A     -0.561534     5A     -0.505328

  @DF-RHF Final Energy:   -76.05528365933030

   => Energetics <=

    Nuclear Repulsion Energy =              8.9636984006158364
    One-Electron Energy =                -122.6556849099334272
    Two-Electron Energy =                  37.6367028499872873
    Total Energy =                        -76.0552836593302999
 Dipole X            :        -15.1162287           15.3318640            0.2156353
 Dipole Y            :         13.9356828          -14.5709166           -0.6352338
 Dipole Z            :        -32.0026260           32.2601194            0.2574934
 Magnitude           :                                                    0.7185565
  Basis Set: (AUG-CC-PVTZ AUX)
    Blend: AUG-CC-PVTZ-RI + DEF2-QZVPP-RI
	 Reference Energy          =     -76.0552836593302999 [Eh]
	 Singles Energy            =      -0.0000000000000000 [Eh]
	 Same-Spin Energy          =      -0.0687451159848434 [Eh]
	 Opposite-Spin Energy      =      -0.2168714315051284 [Eh]
	 Correlation Energy        =      -0.2856165474899717 [Eh]
	 Total Energy              =     -76.3409002068202653 [Eh]

	 ================> DF-SCS-MP2 Energies <==================
	-----------------------------------------------------------
	 SCS Same-Spin Scale       =       0.3333333333333333 [-]
	 SCS Opposite-Spin Scale   =       1.2000000000000000 [-]
	 SCS Same-Spin Energy      =      -0.0229150386616145 [Eh]
	 SCS Opposite-Spin Energy  =      -0.2602457178061540 [Eh]
	 SCS Correlation Energy    =      -0.2831607564677685 [Eh]
	 SCS Total Energy          =     -76.3384444157980653 [Eh]
	-----------------------------------------------------------

*** Psi4 exiting successfully. Buy a developer a beer!
