                               Psi4 1.8.2 release

  ==> Input File <==

--------------------------------------------------------------------------
MEMORY 60 GB

molecule dimer {
0 1
Gh(Li)     0.000000     0.000000     0.000000
Gh(O)      0.479299    -0.023155     2.040576
Gh(H)      1.401203    -0.047344     1.992724
Gh(H)      0.183700    -0.723857     2.589691
Gh(O)      1.211465     0.917124    -1.085982
Gh(H)      1.893267     0.250849    -1.335533
Gh(H)      1.514507     1.731669    -0.789172
Gh(O)      0.020647    -1.905313    -0.620925
Gh(H)      0.710937    -2.493526    -1.007313
Gh(H)     -0.763325    -2.495709    -0.483083
O         -1.823938     0.516909    -0.645776
H         -2.499709    -0.060327    -0.255399
H         -2.179640     1.399153    -0.823341

units ang
no_reorient
no_com
symmetry c1
}

set {
basis        aug-cc-pVTZ
scf_type     df
}

energy("mp2")
--------------------------------------------------------------------------

    Molecular point group: c1

    Geometry (in Angstrom), charge = 0, multiplicity = 1:

       Center              X                  Y                   Z               Mass
    ------------   -----------------  -----------------  -----------------  -----------------
      Gh(LI)          0.000000000000     0.000000000000     0.000000000000     7.016003436600
      Gh(O)           0.479299000000    -0.023155000000     2.040576000000    15.994914619570
      Gh(H)           1.401203000000    -0.047344000000     1.992724000000     1.007825032230
      Gh(H)           0.183700000000    -0.723857000000     2.589691000000     1.007825032230
      Gh(O)           1.211465000000     0.917124000000    -1.085982000000    15.994914619570
      Gh(H)           1.893267000000     0.250849000000    -1.335533000000     1.007825032230
      Gh(H)           1.514507000000     1.731669000000    -0.789172000000     1.007825032230
      Gh(O)           0.020647000000    -1.905313000000    -0.620925000000    15.994914619570
      Gh(H)           0.710937000000    -2.493526000000    -1.007313000000     1.007825032230
      Gh(H)          -0.763325000000    -2.495709000000    -0.483083000000     1.007825032230
         O           -1.823938000000     0.516909000000    -0.645776000000    15.994914619570
         H           -2.499709000000    -0.060327000000    -0.255399000000     1.007825032230
         H           -2.179640000000     1.399153000000    -0.823341000000     1.007825032230

  Charge       = 0
  Multiplicity = 1
  Basis Set: AUG-CC-PVTZ
    Blend: AUG-CC-PVTZ
  Basis Set: (AUG-CC-PVTZ AUX)
    Blend: AUG-CC-PVTZ-JKFIT + DEF2-UNIVERSAL-JKFIT

    Orbital Energies [Eh]
    ---------------------

    Doubly Occupied:

       1A    -20.565978     2A     -1.342874     3A     -0.723131
       4A     -0.569856     5A     -0.507291

  @DF-RHF Final Energy:   -76.05885081023679

   => Energetics <=

    Nuclear Repulsion Energy =              9.0670506764425127
    One-Electron Energy =                -122.8335409678942085
    Two-Electron Energy =                  37.7076394812149118
    Total Energy =                        -76.0588508102367911
 Dipole X            :         35.7218910          -36.4166344           -0.6947434
 Dipole Y            :        -10.1387374           10.3445460            0.2058086
 Dipole Z            :         11.9442797          -11.8012414            0.1430383
 Magnitude           :                                                    0.7385699
  Basis Set: (AUG-CC-PVTZ AUX)
    Blend: AUG-CC-PVTZ-RI + DEF2-QZVPP-RI
	 Reference Energy          =     -76.0588508102367911 [Eh]
	 Singles Energy            =      -0.0000000000000000 [Eh]
	 Same-Spin Energy          =      -0.0685511136390250 [Eh]
	 Opposite-Spin Energy      =      -0.2162389452387612 [Eh]
	 Correlation Energy        =      -0.2847900588777862 [Eh]
	 Total Energy              =     -76.3436408691145800 [Eh]

	 ================> DF-SCS-MP2 Energies <==================
	-----------------------------------------------------------
	 SCS Same-Spin Scale       =       0.3333333333333333 [-]
	 SCS Opposite-Spin Scale   =       1.2000000000000000 [-]
	 SCS Same-Spin Energy      =      -0.0228503712130083 [Eh]
	 SCS Opposite-Spin Energy  =      -0.2594867342865134 [Eh]
	 SCS Correlation Energy    =      -0.2823371054995218 [Eh]
	 SCS Total Energy          =     -76.3411879157363131 [Eh]
	-----------------------------------------------------------

*** Psi4 exiting successfully. Buy a developer a beer!
