                               Psi4 1.8.2 release

  ==> Input File <==

--------------------------------------------------------------------------
MEMORY 60 GB

molecule dimer {
1 1
Li         0.000000     0.000000     0.000000
O         -0.409388    -1.172788    -1.653677
H         -0.592719    -0.863963    -2.571183
H         -1.165044    -1.724467    -1.443699
O          0.581959    -1.470160     1.232372
H          0.948783    -1.556174     2.097776
H          0.995278    -2.238232     0.765158
O         -1.695527     0.711563    -0.176134
H         -2.191824     1.057173    -0.930725
H         -2.102533     1.149660     0.537971
O          1.307265     1.309986     0.356041
H          1.967290     1.087218     1.057477
H          1.846449     1.401655    -0.489010

units ang
no_reorient
no_com
symmetry c1
}

set {
basis        aug-cc-pVTZ
scf_type     df
}

energy("mp2")
--------------------------------------------------------------------------

    Molecular point group: c1

    Geometry (in Angstrom), charge = 1, multiplicity = 1:

       Center              X                  Y                   Z               Mass
    ------------   -----------------  -----------------  -----------------  -----------------
         LI           0.000000000000     0.000000000000     0.000000000000     7.016003436600
         O           -0.409388000000    -1.172788000000    -1.653677000000    15.994914619570
         H           -0.592719000000    -0.863963000000    -2.571183000000     1.007825032230
         H           -1.165044000000    -1.724467000000    -1.443699000000     1.007825032230
         O            0.581959000000    -1.470160000000     1.232372000000    15.994914619570
         H            0.948783000000    -1.556174000000     2.097776000000     1.007825032230
         H            0.995278000000    -2.238232000000     0.765158000000     1.007825032230
         O           -1.695527000000     0.711563000000    -0.176134000000    15.994914619570
         H           -2.191824000000     1.057173000000    -0.930725000000     1.007825032230
         H           -2.102533000000     1.149660000000     0.537971000000     1.007825032230
         O            1.307265000000     1.309986000000     0.356041000000    15.994914619570
         H            1.967290000000     1.087218000000     1.057477000000     1.007825032230
         H            1.846449000000     1.401655000000    -0.489010000000     1.007825032230

  Charge       = 1
  Multiplicity = 1
  Basis Set: AUG-CC-PVTZ
    Blend: AUG-CC-PVTZ
  Basis Set: (AUG-CC-PVTZ AUX)
    Blend: AUG-CC-PVTZ-JKFIT + DEF2-UNIVERSAL-JKFIT

    Orbital Energies [Eh]
    ---------------------

    Doubly Occupied:

       1A    -20.752277     2A    -20.746841     3A    -20.745744
       4A    -20.741732     5A     -2.530218     6A     -1.547599
       7A     -1.533772     8A     -1.523708     9A     -1.520463
      10A     -0.901975    11A     -0.890540    12A     -0.882661
      13A     -0.879390    14A     -0.807832    15A     -0.789996
      16A     -0.775642    17A     -0.769654    18A     -0.709638
      19A     -0.702217    20A     -0.685615    21A     -0.685206

  @DF-RHF Final Energy:  -311.61964746565133

   => Energetics <=

    Nuclear Repulsion Energy =            163.6898263239797586
    One-Electron Energy =                -748.3735080971750904
    Two-Electron Energy =                 273.0640343075439773
    Total Energy =                       -311.6196474656513260
 Dipole X            :          3.8523857           -3.8169595            0.0354262
 Dipole Y            :         12.2446454          -12.5824050           -0.3377597
 Dipole Z            :          5.1683684           -5.4942256           -0.3258572
 Magnitude           :                                                    0.4706586
  Basis Set: (AUG-CC-PVTZ AUX)
    Blend: AUG-CC-PVTZ-RI + DEF2-QZVPP-RI
	 Reference Energy          =    -311.6196474656513260 [Eh]
	 Singles Energy            =      -0.0000000000000000 [Eh]
	 Same-Spin Energy          =      -0.2763851055030683 [Eh]
	 Opposite-Spin Energy      =      -0.8806135209410143 [Eh]
	 Correlation Energy        =      -1.1569986264440826 [Eh]
	 Total Energy              =    -312.7766460920954046 [Eh]

	 ================> DF-SCS-MP2 Energies <==================
	-----------------------------------------------------------
	 SCS Same-Spin Scale       =       0.3333333333333333 [-]
	 SCS Opposite-Spin Scale   =       1.2000000000000000 [-]
	 SCS Same-Spin Energy      =      -0.0921283685010228 [Eh]
	 SCS Opposite-Spin Energy  =      -1.0567362251292172 [Eh]
	 SCS Correlation Energy    =      -1.1488645936302400 [Eh]
	 SCS Total Energy          =    -312.7685120592815906 [Eh]
	-----------------------------------------------------------

*** Psi4 exiting successfully. Buy a developer a beer!
