                               Psi4 1.9 release

  ==> Input File <==

--------------------------------------------------------------------------
MEMORY 60 GB

molecule dimer {
1 1
Li     0.000000     0.000000     0.000000
--
0 1
O     -1.513363     0.722143    -0.727441
H     -2.027594     0.178981    -1.343150
H     -1.819754     1.661892    -0.823652
O     -0.252767    -2.026350    -0.783049
H      0.479598    -2.628908    -0.595592
H     -1.049144    -2.293358    -0.295986
O      0.516511     0.763586     1.671608
H      0.437421     1.575636     1.228955
H     -0.235072     0.629634     2.234292
O      1.457213     0.460443    -1.122910
H      1.677956    -0.213540    -1.788812
H      2.254305     0.527812    -0.514055

units ang
no_reorient
no_com
symmetry c1
}

set {
basis        aug-cc-pVTZ
scf_type     df
}

energy("mp2", bsse_type="cp")
--------------------------------------------------------------------------

                               Psi4 1.9 release
    Molecular point group: c1
  Charge       = 0
  Multiplicity = 1
  Basis Set: AUG-CC-PVTZ
    Blend: AUG-CC-PVTZ
  Basis Set: (AUG-CC-PVTZ AUX)
    Blend: AUG-CC-PVTZ-JKFIT + DEF2-UNIVERSAL-JKFIT
  @DF-RHF Final Energy:  -304.21807302284770
    Total Energy =                       -304.2180730228477046
 Dipole X            :         -3.1160009            2.6049270           -0.5110739
 Dipole Y            :          1.9721075           -2.2738602           -0.3017527
 Dipole Z            :         18.1280465          -18.1268879            0.0011586
 Magnitude           :                                                    0.5935087
  Basis Set: (AUG-CC-PVTZ AUX)
    Blend: AUG-CC-PVTZ-RI + DEF2-QZVPP-RI
	 Reference Energy          =    -304.2180730228477046 [Eh]
	 Singles Energy            =      -0.0000000000000000 [Eh]
	 Same-Spin Energy          =      -0.2774946997448823 [Eh]
	 Opposite-Spin Energy      =      -0.8695521081488239 [Eh]
	 Correlation Energy        =      -1.1470468078937062 [Eh]
	 Total Energy              =    -305.3651198307414347 [Eh]
	 SCS Total Energy          =    -305.3540337858746057 [Eh]
                               Psi4 1.9 release
    Molecular point group: c1
  Multiplicity = 1
  Basis Set: AUG-CC-PVTZ
    Blend: AUG-CC-PVTZ
  Basis Set: (AUG-CC-PVTZ AUX)
    Blend: AUG-CC-PVTZ-JKFIT + DEF2-UNIVERSAL-JKFIT
  @DF-RHF Final Energy:    -7.23638492643701
    Total Energy =                         -7.2363849264370055
  Basis Set: (AUG-CC-PVTZ AUX)
	 Singles Energy            =      -0.0000000000000000 [Eh]
	 Same-Spin Energy          =       0.0000000000000000 [Eh]
	 Opposite-Spin Energy      =      -0.0172652771563377 [Eh]
	 Correlation Energy        =      -0.0172652771563377 [Eh]
	 Total Energy              =      -7.2536502035933434 [Eh]
	 SCS Total Energy          =      -7.2571032590246105 [Eh]
                               Psi4 1.9 release
    Molecular point group: c1

    Geometry (in Bohr), charge = 1, multiplicity = 1:

       Center              X                  Y                   Z               Mass
    ------------   -----------------  -----------------  -----------------  -----------------
         LI           0.000000000000     0.000000000000     0.000000000000     7.016003436600
         O           -2.859841598401     1.364652493416    -1.374664262429    15.994914619570
         H           -3.831597353622     0.338225071661    -2.538185645409     1.007825032230
         H           -3.438836675706     3.140520730089    -1.556476702686     1.007825032230
         O           -0.477660403554    -3.829246534321    -1.479748152814    15.994914619570
         H            0.906308870317    -4.967916129025    -1.125505762514     1.007825032230
         H           -1.982594826167    -4.333818527628    -0.559332476970     1.007825032230
         O            0.976064330786     1.442968413234     3.158881309124    15.994914619570
         H            0.826605891524     2.977520513412     2.322388370512     1.007825032230
         H           -0.444221699764     1.189835819277     4.222199964301     1.007825032230
         O            2.753733476457     0.870111166384    -2.121992363538    15.994914619570
         H            3.170877290569    -0.403532116830    -3.380364769932     1.007825032230
         H            4.260019053250     0.997420125730    -0.971423163422     1.007825032230

  Charge       = 1
  Multiplicity = 1
  Basis Set: AUG-CC-PVTZ
    Blend: AUG-CC-PVTZ
  Basis Set: (AUG-CC-PVTZ AUX)
    Blend: AUG-CC-PVTZ-JKFIT + DEF2-UNIVERSAL-JKFIT

    Orbital Energies [Eh]
    ---------------------

    Doubly Occupied:

       1A    -20.762752     2A    -20.757177     3A    -20.751074
       4A    -20.749856     5A     -2.544207     6A     -1.563463
       7A     -1.542005     8A     -1.530653     9A     -1.524410
      10A     -0.938848    11A     -0.914026    12A     -0.904021
      13A     -0.887759    14A     -0.805664    15A     -0.783396
      16A     -0.773418    17A     -0.764056    18A     -0.723809
      19A     -0.708102    20A     -0.705610    21A     -0.692673

  @DF-RHF Final Energy:  -311.60902934759224

   => Energetics <=

    Nuclear Repulsion Energy =            165.0075932381948007
    One-Electron Energy =                -750.5792797242893357
    Two-Electron Energy =                 273.9626571385023226
    Total Energy =                       -311.6090293475922408
 Dipole X            :         -3.1085761            2.6049270           -0.5036491
 Dipole Y            :          2.0302593           -2.2738602           -0.2436009
 Dipole Z            :         17.9693858          -18.1268879           -0.1575021
 Magnitude           :                                                    0.5812149
  Basis Set: (AUG-CC-PVTZ AUX)
    Blend: AUG-CC-PVTZ-RI + DEF2-QZVPP-RI
	 Reference Energy          =    -311.6090293475922408 [Eh]
	 Singles Energy            =      -0.0000000000000000 [Eh]
	 Same-Spin Energy          =      -0.2763408865201991 [Eh]
	 Opposite-Spin Energy      =      -0.8802206327902248 [Eh]
	 Correlation Energy        =      -1.1565615193104239 [Eh]
	 Total Energy              =    -312.7655908669026417 [Eh]

	 ================> DF-SCS-MP2 Energies <==================
	-----------------------------------------------------------
	 SCS Same-Spin Scale       =       0.3333333333333333 [-]
	 SCS Opposite-Spin Scale   =       1.2000000000000000 [-]
	 SCS Same-Spin Energy      =      -0.0921136288400664 [Eh]
	 SCS Opposite-Spin Energy  =      -1.0562647593482697 [Eh]
	 SCS Correlation Energy    =      -1.1483783881883360 [Eh]
	 SCS Total Energy          =    -312.7574077357805891 [Eh]
	-----------------------------------------------------------

*** Psi4 exiting successfully. Buy a developer a beer!
