                               Psi4 1.8.2 release

  ==> Input File <==

--------------------------------------------------------------------------
MEMORY 60 GB

molecule dimer {
0 1
Gh(Li)     0.000000     0.000000     0.000000
Gh(O)     -1.829508    -0.641529    -0.116596
Gh(H)     -2.245218    -1.401823     0.337083
Gh(H)     -2.405229     0.147066     0.040068
O          1.045908    -1.319112     0.956515
H          0.891268    -2.074872     0.424262
H          1.373886    -1.802633     1.730328
Gh(O)     -0.336450     1.237982     1.473212
Gh(H)     -0.080217     1.043728     2.387034
Gh(H)     -1.249922     1.540474     1.565383
Gh(O)      0.944052     0.330530    -1.628880
Gh(H)      1.016951    -0.286313    -2.447950
Gh(H)      1.828938     0.753977    -1.669468

units ang
no_reorient
no_com
symmetry c1
}

set {
basis        aug-cc-pVTZ
scf_type     df
}

energy("mp2")
--------------------------------------------------------------------------

    Molecular point group: c1

    Geometry (in Angstrom), charge = 0, multiplicity = 1:

       Center              X                  Y                   Z               Mass
    ------------   -----------------  -----------------  -----------------  -----------------
      Gh(LI)          0.000000000000     0.000000000000     0.000000000000     7.016003436600
      Gh(O)          -1.829508000000    -0.641529000000    -0.116596000000    15.994914619570
      Gh(H)          -2.245218000000    -1.401823000000     0.337083000000     1.007825032230
      Gh(H)          -2.405229000000     0.147066000000     0.040068000000     1.007825032230
         O            1.045908000000    -1.319112000000     0.956515000000    15.994914619570
         H            0.891268000000    -2.074872000000     0.424262000000     1.007825032230
         H            1.373886000000    -1.802633000000     1.730328000000     1.007825032230
      Gh(O)          -0.336450000000     1.237982000000     1.473212000000    15.994914619570
      Gh(H)          -0.080217000000     1.043728000000     2.387034000000     1.007825032230
      Gh(H)          -1.249922000000     1.540474000000     1.565383000000     1.007825032230
      Gh(O)           0.944052000000     0.330530000000    -1.628880000000    15.994914619570
      Gh(H)           1.016951000000    -0.286313000000    -2.447950000000     1.007825032230
      Gh(H)           1.828938000000     0.753977000000    -1.669468000000     1.007825032230

  Charge       = 0
  Multiplicity = 1
  Basis Set: AUG-CC-PVTZ
    Blend: AUG-CC-PVTZ
  Basis Set: (AUG-CC-PVTZ AUX)
    Blend: AUG-CC-PVTZ-JKFIT + DEF2-UNIVERSAL-JKFIT

    Orbital Energies [Eh]
    ---------------------

    Doubly Occupied:

       1A    -20.569638     2A     -1.362123     3A     -0.702599
       4A     -0.602103     5A     -0.513001

  @DF-RHF Final Energy:   -76.05786466387400

   => Energetics <=

    Nuclear Repulsion Energy =              9.2560789437955258
    One-Electron Energy =                -123.1289563891743484
    Two-Electron Energy =                  37.8150127815048265
    Total Energy =                        -76.0578646638739997
 Dipole X            :        -19.9816582           20.0923581            0.1106999
 Dipole Y            :         26.4609109          -27.2695058           -0.8085949
 Dipole Z            :        -18.3809091           18.5319961            0.1510870
 Magnitude           :                                                    0.8300045
  Basis Set: (AUG-CC-PVTZ AUX)
    Blend: AUG-CC-PVTZ-RI + DEF2-QZVPP-RI
	 Reference Energy          =     -76.0578646638739997 [Eh]
	 Singles Energy            =      -0.0000000000000000 [Eh]
	 Same-Spin Energy          =      -0.0685938847802646 [Eh]
	 Opposite-Spin Energy      =      -0.2163054225688960 [Eh]
	 Correlation Energy        =      -0.2848993073491605 [Eh]
	 Total Energy              =     -76.3427639712231638 [Eh]

	 ================> DF-SCS-MP2 Energies <==================
	-----------------------------------------------------------
	 SCS Same-Spin Scale       =       0.3333333333333333 [-]
	 SCS Opposite-Spin Scale   =       1.2000000000000000 [-]
	 SCS Same-Spin Energy      =      -0.0228646282600882 [Eh]
	 SCS Opposite-Spin Energy  =      -0.2595665070826751 [Eh]
	 SCS Correlation Energy    =      -0.2824311353427633 [Eh]
	 SCS Total Energy          =     -76.3402957992167615 [Eh]
	-----------------------------------------------------------

*** Psi4 exiting successfully. Buy a developer a beer!
