                               Psi4 1.8.2 release

  ==> Input File <==

--------------------------------------------------------------------------
MEMORY 60 GB

molecule dimer {
1 1
Li         0.000000     0.000000     0.000000
Gh(O)     -1.493181     0.812463    -0.760642
Gh(H)     -2.274485     0.118561    -0.860742
Gh(H)     -1.946136     1.446441    -0.200871
Gh(O)     -0.238550    -1.490324     0.929417
Gh(H)     -0.382439    -2.409755     0.616696
Gh(H)     -0.583433    -1.630923     1.807732
Gh(O)      0.483877     1.296141     1.431392
Gh(H)      0.764361     0.733210     2.208636
Gh(H)     -0.078353     2.024658     1.715524
Gh(O)      1.736640    -0.390823    -1.112667
Gh(H)      1.820394    -1.119034    -1.789990
Gh(H)      2.001306     0.393263    -1.580594

units ang
no_reorient
no_com
symmetry c1
}

set {
basis        aug-cc-pVTZ
scf_type     df
}

energy("mp2")
--------------------------------------------------------------------------

    Molecular point group: c1

    Geometry (in Angstrom), charge = 1, multiplicity = 1:

       Center              X                  Y                   Z               Mass
    ------------   -----------------  -----------------  -----------------  -----------------
         LI           0.000000000000     0.000000000000     0.000000000000     7.016003436600
      Gh(O)          -1.493181000000     0.812463000000    -0.760642000000    15.994914619570
      Gh(H)          -2.274485000000     0.118561000000    -0.860742000000     1.007825032230
      Gh(H)          -1.946136000000     1.446441000000    -0.200871000000     1.007825032230
      Gh(O)          -0.238550000000    -1.490324000000     0.929417000000    15.994914619570
      Gh(H)          -0.382439000000    -2.409755000000     0.616696000000     1.007825032230
      Gh(H)          -0.583433000000    -1.630923000000     1.807732000000     1.007825032230
      Gh(O)           0.483877000000     1.296141000000     1.431392000000    15.994914619570
      Gh(H)           0.764361000000     0.733210000000     2.208636000000     1.007825032230
      Gh(H)          -0.078353000000     2.024658000000     1.715524000000     1.007825032230
      Gh(O)           1.736640000000    -0.390823000000    -1.112667000000    15.994914619570
      Gh(H)           1.820394000000    -1.119034000000    -1.789990000000     1.007825032230
      Gh(H)           2.001306000000     0.393263000000    -1.580594000000     1.007825032230

  Charge       = 1
  Multiplicity = 1
  Basis Set: AUG-CC-PVTZ
    Blend: AUG-CC-PVTZ
  Basis Set: (AUG-CC-PVTZ AUX)
    Blend: AUG-CC-PVTZ-JKFIT + DEF2-UNIVERSAL-JKFIT

    Orbital Energies [Eh]
    ---------------------

    Doubly Occupied:

       1A     -2.792353

  @DF-RHF Final Energy:    -7.23638488456217

   => Energetics <=

    Nuclear Repulsion Energy =              0.0000000000000000
    One-Electron Energy =                  -8.8880645688368940
    Two-Electron Energy =                   1.6516796842747263
    Total Energy =                         -7.2363848845621677
 Dipole X            :          0.0000073            0.0000000            0.0000073
 Dipole Y            :          0.0000046            0.0000000            0.0000046
 Dipole Z            :         -0.0000055            0.0000000           -0.0000055
 Magnitude           :                                                    0.0000103
  Basis Set: (AUG-CC-PVTZ AUX)
    Blend: AUG-CC-PVTZ-RI + DEF2-QZVPP-RI
	 Reference Energy          =      -7.2363848845621677 [Eh]
	 Singles Energy            =      -0.0000000000000000 [Eh]
	 Same-Spin Energy          =       0.0000000000000000 [Eh]
	 Opposite-Spin Energy      =      -0.0173014051905440 [Eh]
	 Correlation Energy        =      -0.0173014051905440 [Eh]
	 Total Energy              =      -7.2536862897527117 [Eh]

	 ================> DF-SCS-MP2 Energies <==================
	-----------------------------------------------------------
	 SCS Same-Spin Scale       =       0.3333333333333333 [-]
	 SCS Opposite-Spin Scale   =       1.2000000000000000 [-]
	 SCS Same-Spin Energy      =       0.0000000000000000 [Eh]
	 SCS Opposite-Spin Energy  =      -0.0207616862286528 [Eh]
	 SCS Correlation Energy    =      -0.0207616862286528 [Eh]
	 SCS Total Energy          =      -7.2571465707908205 [Eh]
	-----------------------------------------------------------

*** Psi4 exiting successfully. Buy a developer a beer!
