                               Psi4 1.8.2 release

  ==> Input File <==

--------------------------------------------------------------------------
MEMORY 60 GB

molecule dimer {
0 1
Gh(Li)     0.000000     0.000000     0.000000
Gh(O)     -0.101817    -1.813061    -0.036423
Gh(H)     -0.471130    -2.250333    -0.763005
Gh(H)      0.017925    -2.436449     0.694730
Gh(O)     -1.581748     0.573901     1.043698
Gh(H)     -1.213933     0.624233     1.880971
Gh(H)     -1.854365     1.500408     0.850485
O          0.827787     0.387737    -1.742301
H          1.255888    -0.363424    -2.191003
H          1.514001     1.055898    -1.641117

units ang
no_reorient
no_com
symmetry c1
}

set {
basis        aug-cc-pVTZ
scf_type     df
}

energy("mp2")
--------------------------------------------------------------------------

    Molecular point group: c1

    Geometry (in Angstrom), charge = 0, multiplicity = 1:

       Center              X                  Y                   Z               Mass
    ------------   -----------------  -----------------  -----------------  -----------------
      Gh(LI)          0.000000000000     0.000000000000     0.000000000000     7.016003436600
      Gh(O)          -0.101817000000    -1.813061000000    -0.036423000000    15.994914619570
      Gh(H)          -0.471130000000    -2.250333000000    -0.763005000000     1.007825032230
      Gh(H)           0.017925000000    -2.436449000000     0.694730000000     1.007825032230
      Gh(O)          -1.581748000000     0.573901000000     1.043698000000    15.994914619570
      Gh(H)          -1.213933000000     0.624233000000     1.880971000000     1.007825032230
      Gh(H)          -1.854365000000     1.500408000000     0.850485000000     1.007825032230
         O            0.827787000000     0.387737000000    -1.742301000000    15.994914619570
         H            1.255888000000    -0.363424000000    -2.191003000000     1.007825032230
         H            1.514001000000     1.055898000000    -1.641117000000     1.007825032230

  Charge       = 0
  Multiplicity = 1
  Basis Set: AUG-CC-PVTZ
    Blend: AUG-CC-PVTZ
  Basis Set: (AUG-CC-PVTZ AUX)
    Blend: AUG-CC-PVTZ-JKFIT + DEF2-UNIVERSAL-JKFIT

    Orbital Energies [Eh]
    ---------------------

    Doubly Occupied:

       1A    -20.568452     2A     -1.346894     3A     -0.713744
       4A     -0.580389     5A     -0.509050

  @DF-RHF Final Energy:   -76.05969615204049

   => Energetics <=

    Nuclear Repulsion Energy =              9.0844014339571508
    One-Electron Energy =                -122.8511335070800072
    Two-Electron Energy =                  37.7070359210823582
    Total Energy =                        -76.0596961520404875
 Dipole X            :        -17.0100770           17.7486574            0.7385803
 Dipole Y            :         -7.2235576            7.1703201           -0.0532375
 Dipole Z            :         33.3515762          -33.5814310           -0.2298548
 Magnitude           :                                                    0.7753505
  Basis Set: (AUG-CC-PVTZ AUX)
    Blend: AUG-CC-PVTZ-RI + DEF2-QZVPP-RI
	 Reference Energy          =     -76.0596961520404875 [Eh]
	 Singles Energy            =      -0.0000000000000000 [Eh]
	 Same-Spin Energy          =      -0.0685935540724065 [Eh]
	 Opposite-Spin Energy      =      -0.2164066471273469 [Eh]
	 Correlation Energy        =      -0.2850002011997534 [Eh]
	 Total Energy              =     -76.3446963532402378 [Eh]

	 ================> DF-SCS-MP2 Energies <==================
	-----------------------------------------------------------
	 SCS Same-Spin Scale       =       0.3333333333333333 [-]
	 SCS Opposite-Spin Scale   =       1.2000000000000000 [-]
	 SCS Same-Spin Energy      =      -0.0228645180241355 [Eh]
	 SCS Opposite-Spin Energy  =      -0.2596879765528163 [Eh]
	 SCS Correlation Energy    =      -0.2825524945769518 [Eh]
	 SCS Total Energy          =     -76.3422486466174348 [Eh]
	-----------------------------------------------------------

*** Psi4 exiting successfully. Buy a developer a beer!
