                               Psi4 1.8.2 release

  ==> Input File <==

--------------------------------------------------------------------------
MEMORY 60 GB

molecule dimer {
0 1
Gh(Li)     0.000000     0.000000     0.000000
O         -0.572571     1.726043     0.455178
H         -1.087826     2.378042     0.937786
H          0.159044     2.237056     0.025785
Gh(O)      0.941273    -0.777166     1.652463
Gh(H)      0.784326    -1.744419     1.387688
Gh(H)      0.345499    -0.483212     2.382628
Gh(O)      1.123724     0.106542    -1.672682
Gh(H)      1.108221     0.674321    -2.471162
Gh(H)      1.738415    -0.641429    -2.005010
Gh(O)     -1.285911    -1.203424    -0.729095
Gh(H)     -1.453579    -1.473990    -1.654808
Gh(H)     -2.103778    -1.340655    -0.244827

units ang
no_reorient
no_com
symmetry c1
}

set {
basis        aug-cc-pVTZ
scf_type     df
}

energy("mp2")
--------------------------------------------------------------------------

    Molecular point group: c1

    Geometry (in Angstrom), charge = 0, multiplicity = 1:

       Center              X                  Y                   Z               Mass
    ------------   -----------------  -----------------  -----------------  -----------------
      Gh(LI)          0.000000000000     0.000000000000     0.000000000000     7.016003436600
         O           -0.572571000000     1.726043000000     0.455178000000    15.994914619570
         H           -1.087826000000     2.378042000000     0.937786000000     1.007825032230
         H            0.159044000000     2.237056000000     0.025785000000     1.007825032230
      Gh(O)           0.941273000000    -0.777166000000     1.652463000000    15.994914619570
      Gh(H)           0.784326000000    -1.744419000000     1.387688000000     1.007825032230
      Gh(H)           0.345499000000    -0.483212000000     2.382628000000     1.007825032230
      Gh(O)           1.123724000000     0.106542000000    -1.672682000000    15.994914619570
      Gh(H)           1.108221000000     0.674321000000    -2.471162000000     1.007825032230
      Gh(H)           1.738415000000    -0.641429000000    -2.005010000000     1.007825032230
      Gh(O)          -1.285911000000    -1.203424000000    -0.729095000000    15.994914619570
      Gh(H)          -1.453579000000    -1.473990000000    -1.654808000000     1.007825032230
      Gh(H)          -2.103778000000    -1.340655000000    -0.244827000000     1.007825032230

  Charge       = 0
  Multiplicity = 1
  Basis Set: AUG-CC-PVTZ
    Blend: AUG-CC-PVTZ
  Basis Set: (AUG-CC-PVTZ AUX)
    Blend: AUG-CC-PVTZ-JKFIT + DEF2-UNIVERSAL-JKFIT

    Orbital Energies [Eh]
    ---------------------

    Doubly Occupied:

       1A    -20.569782     2A     -1.343796     3A     -0.709246
       4A     -0.579717     5A     -0.508588

  @DF-RHF Final Energy:   -76.05852930036455

   => Energetics <=

    Nuclear Repulsion Energy =              9.0211154782350462
    One-Electron Energy =                -122.7370277416221995
    Two-Electron Energy =                  37.6573829630225987
    Total Energy =                        -76.0585293003645546
 Dipole X            :         10.5496546          -10.4111626            0.1384920
 Dipole Y            :        -34.0485133           34.8152597            0.7667464
 Dipole Z            :         -8.6641393            8.7021794            0.0380400
 Magnitude           :                                                    0.7800814
  Basis Set: (AUG-CC-PVTZ AUX)
    Blend: AUG-CC-PVTZ-RI + DEF2-QZVPP-RI
	 Reference Energy          =     -76.0585293003645546 [Eh]
	 Singles Energy            =      -0.0000000000000000 [Eh]
	 Same-Spin Energy          =      -0.0687339417254746 [Eh]
	 Opposite-Spin Energy      =      -0.2169282792210011 [Eh]
	 Correlation Energy        =      -0.2856622209464756 [Eh]
	 Total Energy              =     -76.3441915213110320 [Eh]

	 ================> DF-SCS-MP2 Energies <==================
	-----------------------------------------------------------
	 SCS Same-Spin Scale       =       0.3333333333333333 [-]
	 SCS Opposite-Spin Scale   =       1.2000000000000000 [-]
	 SCS Same-Spin Energy      =      -0.0229113139084915 [Eh]
	 SCS Opposite-Spin Energy  =      -0.2603139350652013 [Eh]
	 SCS Correlation Energy    =      -0.2832252489736928 [Eh]
	 SCS Total Energy          =     -76.3417545493382477 [Eh]
	-----------------------------------------------------------

*** Psi4 exiting successfully. Buy a developer a beer!
