                               Psi4 1.8.2 release

  ==> Input File <==

--------------------------------------------------------------------------
MEMORY 60 GB

molecule dimer {
0 1
Gh(Li)     0.000000     0.000000     0.000000
Gh(O)     -1.599702    -0.834408    -0.032075
Gh(H)     -1.671490    -1.753336     0.164015
Gh(H)     -2.104307    -0.340925     0.605746
O          0.005994     1.410873     1.210917
H         -0.817348     1.609443     0.914181
H         -0.067656     1.285409     2.156336
Gh(O)      0.490183     0.722640    -1.670961
Gh(H)      0.003584     0.447548    -2.436389
Gh(H)      1.403239     0.553948    -1.838663

units ang
no_reorient
no_com
symmetry c1
}

set {
basis        aug-cc-pVTZ
scf_type     df
}

energy("mp2")
--------------------------------------------------------------------------

    Molecular point group: c1

    Geometry (in Angstrom), charge = 0, multiplicity = 1:

       Center              X                  Y                   Z               Mass
    ------------   -----------------  -----------------  -----------------  -----------------
      Gh(LI)          0.000000000000     0.000000000000     0.000000000000     7.016003436600
      Gh(O)          -1.599702000000    -0.834408000000    -0.032075000000    15.994914619570
      Gh(H)          -1.671490000000    -1.753336000000     0.164015000000     1.007825032230
      Gh(H)          -2.104307000000    -0.340925000000     0.605746000000     1.007825032230
         O            0.005994000000     1.410873000000     1.210917000000    15.994914619570
         H           -0.817348000000     1.609443000000     0.914181000000     1.007825032230
         H           -0.067656000000     1.285409000000     2.156336000000     1.007825032230
      Gh(O)           0.490183000000     0.722640000000    -1.670961000000    15.994914619570
      Gh(H)           0.003584000000     0.447548000000    -2.436389000000     1.007825032230
      Gh(H)           1.403239000000     0.553948000000    -1.838663000000     1.007825032230

  Charge       = 0
  Multiplicity = 1
  Basis Set: AUG-CC-PVTZ
    Blend: AUG-CC-PVTZ
  Basis Set: (AUG-CC-PVTZ AUX)
    Blend: AUG-CC-PVTZ-JKFIT + DEF2-UNIVERSAL-JKFIT

    Orbital Energies [Eh]
    ---------------------

    Doubly Occupied:

       1A    -20.560433     2A     -1.369110     3A     -0.739112
       4A     -0.586297     5A     -0.512469

  @DF-RHF Final Energy:   -76.05871250639989

   => Energetics <=

    Nuclear Repulsion Energy =              9.4989782505376823
    One-Electron Energy =                -123.5805357707997842
    Two-Electron Energy =                  38.0228450138622023
    Total Energy =                        -76.0587125063998997
 Dipole X            :          0.9645840           -1.5817990           -0.6172151
 Dipole Y            :        -26.7475698           26.7997860            0.0522162
 Dipole Z            :        -23.6742718           24.1088481            0.4345763
 Magnitude           :                                                    0.7566621
  Basis Set: (AUG-CC-PVTZ AUX)
    Blend: AUG-CC-PVTZ-RI + DEF2-QZVPP-RI
	 Reference Energy          =     -76.0587125063998855 [Eh]
	 Singles Energy            =      -0.0000000000000000 [Eh]
	 Same-Spin Energy          =      -0.0678594409780203 [Eh]
	 Opposite-Spin Energy      =      -0.2143571738095693 [Eh]
	 Correlation Energy        =      -0.2822166147875896 [Eh]
	 Total Energy              =     -76.3409291211874717 [Eh]

	 ================> DF-SCS-MP2 Energies <==================
	-----------------------------------------------------------
	 SCS Same-Spin Scale       =       0.3333333333333333 [-]
	 SCS Opposite-Spin Scale   =       1.2000000000000000 [-]
	 SCS Same-Spin Energy      =      -0.0226198136593401 [Eh]
	 SCS Opposite-Spin Energy  =      -0.2572286085714832 [Eh]
	 SCS Correlation Energy    =      -0.2798484222308232 [Eh]
	 SCS Total Energy          =     -76.3385609286307130 [Eh]
	-----------------------------------------------------------

*** Psi4 exiting successfully. Buy a developer a beer!
