                               Psi4 1.8.2 release

  ==> Input File <==

--------------------------------------------------------------------------
MEMORY 60 GB

molecule dimer {
0 1
Gh(Li)     0.000000     0.000000     0.000000
O         -0.156941     0.958467     1.896046
H         -1.044531     1.337985     1.806280
H          0.472478     1.694438     2.070088
Gh(O)      1.878977    -0.036473    -0.312733
Gh(H)      2.472733     0.679982    -0.021938
Gh(H)      2.035110    -0.049355    -1.243801
Gh(O)     -0.712229     1.599462    -0.924556
Gh(H)     -0.973922     2.332904    -0.344616
Gh(H)     -1.404245     1.668289    -1.576126
Gh(O)     -0.193645    -1.095916    -1.492069
Gh(H)     -1.073154    -1.433089    -1.520338
Gh(H)      0.383632    -1.886412    -1.626908

units ang
no_reorient
no_com
symmetry c1
}

set {
basis        aug-cc-pVTZ
scf_type     df
}

energy("mp2")
--------------------------------------------------------------------------

    Molecular point group: c1

    Geometry (in Angstrom), charge = 0, multiplicity = 1:

       Center              X                  Y                   Z               Mass
    ------------   -----------------  -----------------  -----------------  -----------------
      Gh(LI)          0.000000000000     0.000000000000     0.000000000000     7.016003436600
         O           -0.156941000000     0.958467000000     1.896046000000    15.994914619570
         H           -1.044531000000     1.337985000000     1.806280000000     1.007825032230
         H            0.472478000000     1.694438000000     2.070088000000     1.007825032230
      Gh(O)           1.878977000000    -0.036473000000    -0.312733000000    15.994914619570
      Gh(H)           2.472733000000     0.679982000000    -0.021938000000     1.007825032230
      Gh(H)           2.035110000000    -0.049355000000    -1.243801000000     1.007825032230
      Gh(O)          -0.712229000000     1.599462000000    -0.924556000000    15.994914619570
      Gh(H)          -0.973922000000     2.332904000000    -0.344616000000     1.007825032230
      Gh(H)          -1.404245000000     1.668289000000    -1.576126000000     1.007825032230
      Gh(O)          -0.193645000000    -1.095916000000    -1.492069000000    15.994914619570
      Gh(H)          -1.073154000000    -1.433089000000    -1.520338000000     1.007825032230
      Gh(H)           0.383632000000    -1.886412000000    -1.626908000000     1.007825032230

  Charge       = 0
  Multiplicity = 1
  Basis Set: AUG-CC-PVTZ
    Blend: AUG-CC-PVTZ
  Basis Set: (AUG-CC-PVTZ AUX)
    Blend: AUG-CC-PVTZ-JKFIT + DEF2-UNIVERSAL-JKFIT

    Orbital Energies [Eh]
    ---------------------

    Doubly Occupied:

       1A    -20.568712     2A     -1.341283     3A     -0.713547
       4A     -0.574321     5A     -0.507673

  @DF-RHF Final Energy:   -76.05845619102448

   => Energetics <=

    Nuclear Repulsion Energy =              9.0040412470845439
    One-Electron Energy =                -122.7139190056874440
    Two-Electron Energy =                  37.6514215675784172
    Total Energy =                        -76.0584561910244759
 Dipole X            :          3.2800941           -3.4536276           -0.1735334
 Dipole Y            :        -19.4804097           20.2203700            0.7399604
 Dipole Z            :        -35.9335983           35.9893352            0.0557368
 Magnitude           :                                                    0.7620773
  Basis Set: (AUG-CC-PVTZ AUX)
    Blend: AUG-CC-PVTZ-RI + DEF2-QZVPP-RI
	 Reference Energy          =     -76.0584561910244759 [Eh]
	 Singles Energy            =      -0.0000000000000000 [Eh]
	 Same-Spin Energy          =      -0.0687199898146932 [Eh]
	 Opposite-Spin Energy      =      -0.2169278779998773 [Eh]
	 Correlation Energy        =      -0.2856478678145705 [Eh]
	 Total Energy              =     -76.3441040588390507 [Eh]

	 ================> DF-SCS-MP2 Energies <==================
	-----------------------------------------------------------
	 SCS Same-Spin Scale       =       0.3333333333333333 [-]
	 SCS Opposite-Spin Scale   =       1.2000000000000000 [-]
	 SCS Same-Spin Energy      =      -0.0229066632715644 [Eh]
	 SCS Opposite-Spin Energy  =      -0.2603134535998528 [Eh]
	 SCS Correlation Energy    =      -0.2832201168714172 [Eh]
	 SCS Total Energy          =     -76.3416763078958951 [Eh]
	-----------------------------------------------------------

*** Psi4 exiting successfully. Buy a developer a beer!
