                               Psi4 1.9 release

  ==> Input File <==

--------------------------------------------------------------------------
MEMORY 60 GB

molecule dimer {
1 1
Li     0.000000     0.000000     0.000000
--
0 1
O      1.865459    -0.354169     0.201545
H      2.093877    -0.548368     1.130116
H      2.178545    -1.139580    -0.260272
O      0.175866     1.813815     0.284345
H     -0.515507     2.243153     0.826268
H      0.889311     1.834078     0.952204
O     -0.923465    -0.274645    -1.649009
H     -0.830755     0.486977    -2.218102
H     -1.826401    -0.476768    -1.767965
O     -1.217772    -1.202794     1.092934
H     -1.879809    -1.607959     0.562364
H     -1.655044    -0.939992     1.956239

units ang
no_reorient
no_com
symmetry c1
}

set {
basis        aug-cc-pVTZ
scf_type     df
}

energy("mp2", bsse_type="cp")
--------------------------------------------------------------------------

                               Psi4 1.9 release
    Molecular point group: c1
  Charge       = 0
  Multiplicity = 1
  Basis Set: AUG-CC-PVTZ
    Blend: AUG-CC-PVTZ
  Basis Set: (AUG-CC-PVTZ AUX)
    Blend: AUG-CC-PVTZ-JKFIT + DEF2-UNIVERSAL-JKFIT
  @DF-RHF Final Energy:  -304.21243108950580
    Total Energy =                       -304.2124310895057988
 Dipole X            :          3.5905545           -4.4315571           -0.8410025
 Dipole Y            :          0.4332078           -0.5495380           -0.1163303
 Dipole Z            :         -0.4031143            1.1704434            0.7673291
 Magnitude           :                                                    1.1443828
  Basis Set: (AUG-CC-PVTZ AUX)
    Blend: AUG-CC-PVTZ-RI + DEF2-QZVPP-RI
	 Reference Energy          =    -304.2124310895057988 [Eh]
	 Singles Energy            =      -0.0000000000000000 [Eh]
	 Same-Spin Energy          =      -0.2780305526635419 [Eh]
	 Opposite-Spin Energy      =      -0.8710190059839139 [Eh]
	 Correlation Energy        =      -1.1490495586474558 [Eh]
	 Total Energy              =    -305.3614806481532469 [Eh]
	 SCS Total Energy          =    -305.3503307475743327 [Eh]
                               Psi4 1.9 release
    Molecular point group: c1
  Multiplicity = 1
  Basis Set: AUG-CC-PVTZ
    Blend: AUG-CC-PVTZ
  Basis Set: (AUG-CC-PVTZ AUX)
    Blend: AUG-CC-PVTZ-JKFIT + DEF2-UNIVERSAL-JKFIT
  @DF-RHF Final Energy:    -7.23638492991634
    Total Energy =                         -7.2363849299163423
  Basis Set: (AUG-CC-PVTZ AUX)
	 Singles Energy            =      -0.0000000000000000 [Eh]
	 Same-Spin Energy          =       0.0000000000000000 [Eh]
	 Opposite-Spin Energy      =      -0.0173385271661938 [Eh]
	 Correlation Energy        =      -0.0173385271661938 [Eh]
	 Total Energy              =      -7.2537234570825362 [Eh]
	 SCS Total Energy          =      -7.2571911625157748 [Eh]
                               Psi4 1.9 release
    Molecular point group: c1

    Geometry (in Bohr), charge = 1, multiplicity = 1:

       Center              X                  Y                   Z               Mass
    ------------   -----------------  -----------------  -----------------  -----------------
         LI           0.000000000000     0.000000000000     0.000000000000     7.016003436600
         O            3.525206608270    -0.669282412127     0.380864851955    15.994914619570
         H            3.956854070395    -1.036265335965     2.135609729998     1.007825032230
         H            4.116853401986    -2.153494098049    -0.491842798125     1.007825032230
         O            0.332338574780     3.427613592247     0.537334175143    15.994914619570
         H           -0.974167045756     4.238944827499     1.561420226230     1.007825032230
         H            1.680554230357     3.465905112727     1.799404775565     1.007825032230
         O           -1.745095936446    -0.519003831726    -3.116175388415    15.994914619570
         H           -1.569899427355     0.920253159397    -4.191605298330     1.007825032230
         H           -3.451397685262    -0.900960945382    -3.340969649395     1.007825032230
         O           -2.301255563251    -2.272951245344     2.065345933201    15.994914619570
         H           -3.552324178171    -3.038602130965     1.062713942817     1.007825032230
         H           -3.127579885582    -1.776327440121     3.696755945939     1.007825032230

  Charge       = 1
  Multiplicity = 1
  Basis Set: AUG-CC-PVTZ
    Blend: AUG-CC-PVTZ
  Basis Set: (AUG-CC-PVTZ AUX)
    Blend: AUG-CC-PVTZ-JKFIT + DEF2-UNIVERSAL-JKFIT

    Orbital Energies [Eh]
    ---------------------

    Doubly Occupied:

       1A    -20.758032     2A    -20.753518     3A    -20.753041
       4A    -20.748956     5A     -2.528900     6A     -1.552966
       7A     -1.544328     8A     -1.537714     9A     -1.534755
      10A     -0.909893    11A     -0.900245    12A     -0.897137
      13A     -0.881077    14A     -0.806368    15A     -0.799472
      16A     -0.783685    17A     -0.778709    18A     -0.716954
      19A     -0.710161    20A     -0.703022    21A     -0.694860

  @DF-RHF Final Energy:  -311.61792732077765

   => Energetics <=

    Nuclear Repulsion Energy =            165.5505532129994606
    One-Electron Energy =                -751.7493700546364153
    Two-Electron Energy =                 274.5808895208592730
    Total Energy =                       -311.6179273207776532
 Dipole X            :          3.5249478           -4.4315571           -0.9066093
 Dipole Y            :          0.4719869           -0.5495380           -0.0775511
 Dipole Z            :         -0.3367606            1.1704434            0.8336828
 Magnitude           :                                                    1.2340914
  Basis Set: (AUG-CC-PVTZ AUX)
    Blend: AUG-CC-PVTZ-RI + DEF2-QZVPP-RI
	 Reference Energy          =    -311.6179273207776532 [Eh]
	 Singles Energy            =      -0.0000000000000000 [Eh]
	 Same-Spin Energy          =      -0.2764308625344228 [Eh]
	 Opposite-Spin Energy      =      -0.8806345461700522 [Eh]
	 Correlation Energy        =      -1.1570654087044749 [Eh]
	 Total Energy              =    -312.7749927294821077 [Eh]

	 ================> DF-SCS-MP2 Energies <==================
	-----------------------------------------------------------
	 SCS Same-Spin Scale       =       0.3333333333333333 [-]
	 SCS Opposite-Spin Scale   =       1.2000000000000000 [-]
	 SCS Same-Spin Energy      =      -0.0921436208448076 [Eh]
	 SCS Opposite-Spin Energy  =      -1.0567614554040625 [Eh]
	 SCS Correlation Energy    =      -1.1489050762488702 [Eh]
	 SCS Total Energy          =    -312.7668323970265192 [Eh]
	-----------------------------------------------------------

*** Psi4 exiting successfully. Buy a developer a beer!
