                               Psi4 1.8.2 release

  ==> Input File <==

--------------------------------------------------------------------------
MEMORY 60 GB

molecule dimer {
0 1
Gh(Li)     0.000000     0.000000     0.000000
O         -0.640365     1.689708    -0.437904
H         -0.947848     2.436251     0.118257
H         -0.375875     2.071206    -1.343003
Gh(O)     -0.938579    -0.924804    -1.558802
Gh(H)     -1.517519    -0.334733    -2.007314
Gh(H)     -0.339862    -1.423081    -2.166337
Gh(O)      1.855579     0.005682    -0.344725
Gh(H)      2.067217    -0.495737    -1.130002
Gh(H)      2.498269    -0.321495     0.326646
Gh(O)     -0.731485    -1.139576     1.603199
Gh(H)     -0.628082    -0.542600     2.334045
Gh(H)     -1.652610    -1.061287     1.341316

units ang
no_reorient
no_com
symmetry c1
}

set {
basis        aug-cc-pVTZ
scf_type     df
}

energy("mp2")
--------------------------------------------------------------------------

    Molecular point group: c1

    Geometry (in Angstrom), charge = 0, multiplicity = 1:

       Center              X                  Y                   Z               Mass
    ------------   -----------------  -----------------  -----------------  -----------------
      Gh(LI)          0.000000000000     0.000000000000     0.000000000000     7.016003436600
         O           -0.640365000000     1.689708000000    -0.437904000000    15.994914619570
         H           -0.947848000000     2.436251000000     0.118257000000     1.007825032230
         H           -0.375875000000     2.071206000000    -1.343003000000     1.007825032230
      Gh(O)          -0.938579000000    -0.924804000000    -1.558802000000    15.994914619570
      Gh(H)          -1.517519000000    -0.334733000000    -2.007314000000     1.007825032230
      Gh(H)          -0.339862000000    -1.423081000000    -2.166337000000     1.007825032230
      Gh(O)           1.855579000000     0.005682000000    -0.344725000000    15.994914619570
      Gh(H)           2.067217000000    -0.495737000000    -1.130002000000     1.007825032230
      Gh(H)           2.498269000000    -0.321495000000     0.326646000000     1.007825032230
      Gh(O)          -0.731485000000    -1.139576000000     1.603199000000    15.994914619570
      Gh(H)          -0.628082000000    -0.542600000000     2.334045000000     1.007825032230
      Gh(H)          -1.652610000000    -1.061287000000     1.341316000000     1.007825032230

  Charge       = 0
  Multiplicity = 1
  Basis Set: AUG-CC-PVTZ
    Blend: AUG-CC-PVTZ
  Basis Set: (AUG-CC-PVTZ AUX)
    Blend: AUG-CC-PVTZ-JKFIT + DEF2-UNIVERSAL-JKFIT

    Orbital Energies [Eh]
    ---------------------

    Doubly Occupied:

       1A    -20.572554     2A     -1.331369     3A     -0.700860
       4A     -0.571044     5A     -0.506115

  @DF-RHF Final Energy:   -76.05416140448027

   => Energetics <=

    Nuclear Repulsion Energy =              8.8083244521585868
    One-Electron Energy =                -122.3610842187730441
    Two-Electron Energy =                  37.4985983621341887
    Total Energy =                        -76.0541614044802685
 Dipole X            :         12.1522095          -12.1823897           -0.0301802
 Dipole Y            :        -33.3238054           34.0625421            0.7387366
 Dipole Z            :          8.7117271           -8.9345835           -0.2228565
 Magnitude           :                                                    0.7722096
  Basis Set: (AUG-CC-PVTZ AUX)
    Blend: AUG-CC-PVTZ-RI + DEF2-QZVPP-RI
	 Reference Energy          =     -76.0541614044802685 [Eh]
	 Singles Energy            =      -0.0000000000000000 [Eh]
	 Same-Spin Energy          =      -0.0691011426968072 [Eh]
	 Opposite-Spin Energy      =      -0.2181306043503805 [Eh]
	 Correlation Energy        =      -0.2872317470471877 [Eh]
	 Total Energy              =     -76.3413931515274555 [Eh]

	 ================> DF-SCS-MP2 Energies <==================
	-----------------------------------------------------------
	 SCS Same-Spin Scale       =       0.3333333333333333 [-]
	 SCS Opposite-Spin Scale   =       1.2000000000000000 [-]
	 SCS Same-Spin Energy      =      -0.0230337142322691 [Eh]
	 SCS Opposite-Spin Energy  =      -0.2617567252204566 [Eh]
	 SCS Correlation Energy    =      -0.2847904394527256 [Eh]
	 SCS Total Energy          =     -76.3389518439329890 [Eh]
	-----------------------------------------------------------

*** Psi4 exiting successfully. Buy a developer a beer!
