                               Psi4 1.9 release

  ==> Input File <==

--------------------------------------------------------------------------
MEMORY 60 GB

molecule dimer {
1 1
Li     0.000000     0.000000     0.000000
--
0 1
O      0.417117    -1.590090    -0.715265
H      0.113479    -1.780133    -1.561165
H     -0.072674    -2.333038    -0.261775
O     -0.978605     0.856936    -1.604785
H     -0.831895     0.649771    -2.541595
H     -1.405275     1.676017    -1.545406
O      1.758787     1.151787     0.325826
H      1.656124     1.242794     1.331459
H      2.733052     0.921730     0.180866
O     -0.660341    -0.397747     1.752656
H     -1.486978    -0.023294     2.186827
H     -0.498526    -1.285573     1.955375

units ang
no_reorient
no_com
symmetry c1
}

set {
basis        aug-cc-pVTZ
scf_type     df
}

energy("mp2", bsse_type="cp")
--------------------------------------------------------------------------

                               Psi4 1.9 release
    Molecular point group: c1
  Charge       = 0
  Multiplicity = 1
  Basis Set: AUG-CC-PVTZ
    Blend: AUG-CC-PVTZ
  Basis Set: (AUG-CC-PVTZ AUX)
    Blend: AUG-CC-PVTZ-JKFIT + DEF2-UNIVERSAL-JKFIT
  @DF-RHF Final Energy:  -304.20023262843165
    Total Energy =                       -304.2002326284316496
 Dipole X            :         -9.1245301            8.5093819           -0.6151481
 Dipole Y            :          0.8853234           -1.4449564           -0.5596330
 Dipole Z            :          4.2569447           -4.1346414            0.1223033
 Magnitude           :                                                    0.8405679
  Basis Set: (AUG-CC-PVTZ AUX)
    Blend: AUG-CC-PVTZ-RI + DEF2-QZVPP-RI
	 Reference Energy          =    -304.2002326284316496 [Eh]
	 Singles Energy            =      -0.0000000000000000 [Eh]
	 Same-Spin Energy          =      -0.2777357678992181 [Eh]
	 Opposite-Spin Energy      =      -0.8710222762536819 [Eh]
	 Correlation Energy        =      -1.1487580441528999 [Eh]
	 Total Energy              =    -305.3489906725845344 [Eh]
	 SCS Total Energy          =    -305.3380379492357974 [Eh]
                               Psi4 1.9 release
    Molecular point group: c1
  Multiplicity = 1
  Basis Set: AUG-CC-PVTZ
    Blend: AUG-CC-PVTZ
  Basis Set: (AUG-CC-PVTZ AUX)
    Blend: AUG-CC-PVTZ-JKFIT + DEF2-UNIVERSAL-JKFIT
  @DF-RHF Final Energy:    -7.23638481085893
    Total Energy =                         -7.2363848108589295
  Basis Set: (AUG-CC-PVTZ AUX)
	 Singles Energy            =      -0.0000000000000000 [Eh]
	 Same-Spin Energy          =       0.0000000000000000 [Eh]
	 Opposite-Spin Energy      =      -0.0169471492417086 [Eh]
	 Correlation Energy        =      -0.0169471492417086 [Eh]
	 Total Energy              =      -7.2533319601006383 [Eh]
	 SCS Total Energy          =      -7.2567213899489795 [Eh]
                               Psi4 1.9 release
    Molecular point group: c1

    Geometry (in Bohr), charge = 1, multiplicity = 1:

       Center              X                  Y                   Z               Mass
    ------------   -----------------  -----------------  -----------------  -----------------
         LI           0.000000000000     0.000000000000     0.000000000000     7.016003436600
         O            0.788236892273    -3.004834614829    -1.351654957126    15.994914619570
         H            0.214444230991    -3.363963836890    -2.950174286650     1.007825032230
         H           -0.137333956442    -4.408802860286    -0.494683056492     1.007825032230
         O           -1.849295435004     1.619374347045    -3.032604140243    15.994914619570
         H           -1.572053715138     1.227889234265    -4.802918471833     1.007825032230
         H           -2.655584880953     3.167213111611    -2.920394092639     1.007825032230
         O            3.323625743016     2.176561984863     0.615721904553    15.994914619570
         H            3.129620789798     2.348540290362     2.516092857276     1.007825032230
         H            5.164719766635     1.741817261618     0.341787205407     1.007825032230
         O           -1.247863639411    -0.751632897222     3.312039832140    15.994914619570
         H           -2.809981174581    -0.044019280366     4.132504113757     1.007825032230
         H           -0.942077606420    -2.429380884283     3.695123222567     1.007825032230

  Charge       = 1
  Multiplicity = 1
  Basis Set: AUG-CC-PVTZ
    Blend: AUG-CC-PVTZ
  Basis Set: (AUG-CC-PVTZ AUX)
    Blend: AUG-CC-PVTZ-JKFIT + DEF2-UNIVERSAL-JKFIT

    Orbital Energies [Eh]
    ---------------------

    Doubly Occupied:

       1A    -20.761115     2A    -20.760418     3A    -20.738159
       4A    -20.732978     5A     -2.534418     6A     -1.561862
       7A     -1.547601     8A     -1.533857     9A     -1.487591
      10A     -0.931939    11A     -0.909601    12A     -0.895721
      13A     -0.849765    14A     -0.816425    15A     -0.785784
      16A     -0.776876    17A     -0.743235    18A     -0.723174
      19A     -0.708110    20A     -0.689106    21A     -0.669893

  @DF-RHF Final Energy:  -311.60639978747724

   => Energetics <=

    Nuclear Repulsion Energy =            161.8491216118168836
    One-Electron Energy =                -744.5957824233046267
    Two-Electron Energy =                 271.1402610240105560
    Total Energy =                       -311.6063997874772440
 Dipole X            :         -9.0914982            8.5093819           -0.5821163
 Dipole Y            :          0.7617618           -1.4449564           -0.6831946
 Dipole Z            :          4.2474828           -4.1346414            0.1128414
 Magnitude           :                                                    0.9046256
  Basis Set: (AUG-CC-PVTZ AUX)
    Blend: AUG-CC-PVTZ-RI + DEF2-QZVPP-RI
	 Reference Energy          =    -311.6063997874772440 [Eh]
	 Singles Energy            =      -0.0000000000000000 [Eh]
	 Same-Spin Energy          =      -0.2760833232335818 [Eh]
	 Opposite-Spin Energy      =      -0.8802360211232239 [Eh]
	 Correlation Energy        =      -1.1563193443568056 [Eh]
	 Total Energy              =    -312.7627191318340465 [Eh]

	 ================> DF-SCS-MP2 Energies <==================
	-----------------------------------------------------------
	 SCS Same-Spin Scale       =       0.3333333333333333 [-]
	 SCS Opposite-Spin Scale   =       1.2000000000000000 [-]
	 SCS Same-Spin Energy      =      -0.0920277744111939 [Eh]
	 SCS Opposite-Spin Energy  =      -1.0562832253478687 [Eh]
	 SCS Correlation Energy    =      -1.1483109997590626 [Eh]
	 SCS Total Energy          =    -312.7547107872363199 [Eh]
	-----------------------------------------------------------

*** Psi4 exiting successfully. Buy a developer a beer!
