                               Psi4 1.9 release

  ==> Input File <==

--------------------------------------------------------------------------
MEMORY 60 GB

molecule dimer {
1 1
Li     0.000000     0.000000     0.000000
--
0 1
O      0.647883     0.164741    -1.949481
H      0.795272    -0.525507    -2.602115
H      0.457108     1.105193    -2.354509
O     -0.976045     1.405748     0.625342
H     -0.496767     2.104540     1.009624
H     -1.582079     1.799875     0.027250
O     -1.260034    -1.585226     0.021824
H     -0.751180    -2.408299    -0.156525
H     -2.038513    -1.751498    -0.490334
O      1.554816    -0.718133     0.753645
H      1.658146    -1.557676     1.200674
H      2.157510    -0.074449     1.263032

units ang
no_reorient
no_com
symmetry c1
}

set {
basis        aug-cc-pVTZ
scf_type     df
}

energy("mp2", bsse_type="cp")
--------------------------------------------------------------------------

                               Psi4 1.9 release
    Molecular point group: c1
  Charge       = 0
  Multiplicity = 1
  Basis Set: AUG-CC-PVTZ
    Blend: AUG-CC-PVTZ
  Basis Set: (AUG-CC-PVTZ AUX)
    Blend: AUG-CC-PVTZ-JKFIT + DEF2-UNIVERSAL-JKFIT
  @DF-RHF Final Energy:  -304.19959470460566
    Total Energy =                       -304.1995947046056585
 Dipole X            :          0.2863541           -0.1276378            0.1587164
 Dipole Y            :         13.6770352          -13.5508122            0.1262230
 Dipole Z            :         11.6401049          -12.2685990           -0.6284941
 Magnitude           :                                                    0.6603998
  Basis Set: (AUG-CC-PVTZ AUX)
    Blend: AUG-CC-PVTZ-RI + DEF2-QZVPP-RI
	 Reference Energy          =    -304.1995947046056585 [Eh]
	 Singles Energy            =      -0.0000000000000000 [Eh]
	 Same-Spin Energy          =      -0.2778693920311326 [Eh]
	 Opposite-Spin Energy      =      -0.8713808786189926 [Eh]
	 Correlation Energy        =      -1.1492502706501253 [Eh]
	 Total Energy              =    -305.3488449752557585 [Eh]
	 SCS Total Energy          =    -305.3378748896254820 [Eh]
                               Psi4 1.9 release
    Molecular point group: c1
  Multiplicity = 1
  Basis Set: AUG-CC-PVTZ
    Blend: AUG-CC-PVTZ
  Basis Set: (AUG-CC-PVTZ AUX)
    Blend: AUG-CC-PVTZ-JKFIT + DEF2-UNIVERSAL-JKFIT
  @DF-RHF Final Energy:    -7.23638484849404
    Total Energy =                         -7.2363848484940370
  Basis Set: (AUG-CC-PVTZ AUX)
	 Singles Energy            =      -0.0000000000000000 [Eh]
	 Same-Spin Energy          =      -0.0000000000000000 [Eh]
	 Opposite-Spin Energy      =      -0.0171429971871159 [Eh]
	 Correlation Energy        =      -0.0171429971871159 [Eh]
	 Total Energy              =      -7.2535278456811527 [Eh]
	 SCS Total Energy          =      -7.2569564451185764 [Eh]
                               Psi4 1.9 release
    Molecular point group: c1

    Geometry (in Bohr), charge = 1, multiplicity = 1:

       Center              X                  Y                   Z               Mass
    ------------   -----------------  -----------------  -----------------  -----------------
         LI           0.000000000000     0.000000000000     0.000000000000     7.016003436600
         O            1.224321431340     0.311315371634    -3.683985176784    15.994914619570
         H            1.502846275245    -0.993064307011    -4.917284696946     1.007825032230
         H            0.863808929756     2.088512085773    -4.449377169926     1.007825032230
         O           -1.844457736122     2.656478721410     1.181725114746    15.994914619570
         H           -0.938753578165     3.977004220071     1.907912849689     1.007825032230
         H           -2.989696018838     3.401270810058     0.051495036919     1.007825032230
         O           -2.381119168765    -2.995642986955     0.041241382962    15.994914619570
         H           -1.419524470921    -4.551025538214    -0.295789381787     1.007825032230
         H           -3.852231273185    -3.309851529287    -0.926596970000     1.007825032230
         O            2.938176415480    -1.357074691653     1.424182645821    15.994914619570
         H            3.133441816023    -2.943581032199     2.268945025958     1.007825032230
         H            4.077103012937    -0.140688220314     2.386784567689     1.007825032230

  Charge       = 1
  Multiplicity = 1
  Basis Set: AUG-CC-PVTZ
    Blend: AUG-CC-PVTZ
  Basis Set: (AUG-CC-PVTZ AUX)
    Blend: AUG-CC-PVTZ-JKFIT + DEF2-UNIVERSAL-JKFIT

    Orbital Energies [Eh]
    ---------------------

    Doubly Occupied:

       1A    -20.752076     2A    -20.751181     3A    -20.739718
       4A    -20.739180     5A     -2.523734     6A     -1.561750
       7A     -1.527882     8A     -1.525076     9A     -1.502255
      10A     -0.927898    11A     -0.889830    12A     -0.884516
      13A     -0.876285    14A     -0.804328    15A     -0.789172
      16A     -0.772333    17A     -0.746074    18A     -0.714050
      19A     -0.697168    20A     -0.691817    21A     -0.675169

  @DF-RHF Final Energy:  -311.61315014625097

   => Energetics <=

    Nuclear Repulsion Energy =            163.1409246975929079
    One-Electron Energy =                -747.3251665456514274
    Two-Electron Energy =                 272.5710917018075179
    Total Energy =                       -311.6131501462509732
 Dipole X            :          0.3112884           -0.1276378            0.1836506
 Dipole Y            :         13.6023043          -13.5508122            0.0514921
 Dipole Z            :         11.5455305          -12.2685990           -0.7230685
 Magnitude           :                                                    0.7478014
  Basis Set: (AUG-CC-PVTZ AUX)
    Blend: AUG-CC-PVTZ-RI + DEF2-QZVPP-RI
	 Reference Energy          =    -311.6131501462509732 [Eh]
	 Singles Energy            =      -0.0000000000000000 [Eh]
	 Same-Spin Energy          =      -0.2760244775128211 [Eh]
	 Opposite-Spin Energy      =      -0.8801877256031476 [Eh]
	 Correlation Energy        =      -1.1562122031159687 [Eh]
	 Total Energy              =    -312.7693623493669293 [Eh]

	 ================> DF-SCS-MP2 Energies <==================
	-----------------------------------------------------------
	 SCS Same-Spin Scale       =       0.3333333333333333 [-]
	 SCS Opposite-Spin Scale   =       1.2000000000000000 [-]
	 SCS Same-Spin Energy      =      -0.0920081591709404 [Eh]
	 SCS Opposite-Spin Energy  =      -1.0562252707237771 [Eh]
	 SCS Correlation Energy    =      -1.1482334298947174 [Eh]
	 SCS Total Energy          =    -312.7613835761457040 [Eh]
	-----------------------------------------------------------

*** Psi4 exiting successfully. Buy a developer a beer!
