                               Psi4 1.9 release

  ==> Input File <==

--------------------------------------------------------------------------
MEMORY 60 GB

molecule dimer {
1 1
Li     0.000000     0.000000     0.000000
--
0 1
O      1.698581     0.435696     0.558593
H      2.237527    -0.300337     0.974783
H      2.088861     0.477432    -0.359968
O     -0.602134     1.603987    -1.055512
H     -0.019972     1.873754    -1.758661
H     -1.470926     1.622158    -1.464541
O      0.090460    -1.221032    -1.273457
H      0.943707    -1.644678    -1.158743
H     -0.580198    -1.847887    -1.056551
O     -1.504258    -0.347888     1.383059
H     -1.261637    -0.488613     2.322452
H     -1.997552    -1.132669     1.067802

units ang
no_reorient
no_com
symmetry c1
}

set {
basis        aug-cc-pVTZ
scf_type     df
}

energy("mp2", bsse_type="cp")
--------------------------------------------------------------------------

                               Psi4 1.9 release
    Molecular point group: c1
  Charge       = 0
  Multiplicity = 1
  Basis Set: AUG-CC-PVTZ
    Blend: AUG-CC-PVTZ
  Basis Set: (AUG-CC-PVTZ AUX)
    Blend: AUG-CC-PVTZ-JKFIT + DEF2-UNIVERSAL-JKFIT
  @DF-RHF Final Energy:  -304.20760893186826
    Total Energy =                       -304.2076089318682648
 Dipole X            :          5.2132920           -4.9113944            0.3018976
 Dipole Y            :         -5.8678915            4.3941121           -1.4737793
 Dipole Z            :          8.2196839           -8.5641689           -0.3444850
 Magnitude           :                                                    1.5433203
  Basis Set: (AUG-CC-PVTZ AUX)
    Blend: AUG-CC-PVTZ-RI + DEF2-QZVPP-RI
	 Reference Energy          =    -304.2076089318682648 [Eh]
	 Singles Energy            =      -0.0000000000000000 [Eh]
	 Same-Spin Energy          =      -0.2780947376326307 [Eh]
	 Opposite-Spin Energy      =      -0.8717137831067899 [Eh]
	 Correlation Energy        =      -1.1498085207394206 [Eh]
	 Total Energy              =    -305.3574174526077059 [Eh]
	 SCS Total Energy          =    -305.3463637174739347 [Eh]
                               Psi4 1.9 release
    Molecular point group: c1
  Multiplicity = 1
  Basis Set: AUG-CC-PVTZ
    Blend: AUG-CC-PVTZ
  Basis Set: (AUG-CC-PVTZ AUX)
    Blend: AUG-CC-PVTZ-JKFIT + DEF2-UNIVERSAL-JKFIT
  @DF-RHF Final Energy:    -7.23638497501752
    Total Energy =                         -7.2363849750175238
  Basis Set: (AUG-CC-PVTZ AUX)
	 Singles Energy            =      -0.0000000000000000 [Eh]
	 Same-Spin Energy          =       0.0000000000000000 [Eh]
	 Opposite-Spin Energy      =      -0.0174767822446282 [Eh]
	 Correlation Energy        =      -0.0174767822446282 [Eh]
	 Total Energy              =      -7.2538617572621522 [Eh]
	 SCS Total Energy          =      -7.2573571137110777 [Eh]
                               Psi4 1.9 release
    Molecular point group: c1

    Geometry (in Bohr), charge = 1, multiplicity = 1:

       Center              X                  Y                   Z               Mass
    ------------   -----------------  -----------------  -----------------  -----------------
         LI           0.000000000000     0.000000000000     0.000000000000     7.016003436600
         O            3.209852891906     0.823346113957     1.055587785598    15.994914619570
         H            4.228313228317    -0.567554675342     1.842072901752     1.007825032230
         H            3.947375204150     0.902215723530    -0.680240933929     1.007825032230
         O           -1.137868350826     3.031096138795    -1.994628602134    15.994914619570
         H           -0.037741610178     3.540881886481    -3.323387637524     1.007825032230
         H           -2.779647290815     3.065434352220    -2.767581389504     1.007825032230
         O            0.170944625309    -2.307416070420    -2.406484962547    15.994914619570
         H            1.783347772677    -3.107990984566    -2.189706919791     1.007825032230
         H           -1.096415318538    -3.492000340794    -1.996592027579     1.007825032230
         O           -2.842635642029    -0.657413042333     2.613602725350    15.994914619570
         H           -2.384148399744    -0.923344751338     4.388798219522     1.007825032230
         H           -3.774826201361    -2.140434200796     2.017853336216     1.007825032230

  Charge       = 1
  Multiplicity = 1
  Basis Set: AUG-CC-PVTZ
    Blend: AUG-CC-PVTZ
  Basis Set: (AUG-CC-PVTZ AUX)
    Blend: AUG-CC-PVTZ-JKFIT + DEF2-UNIVERSAL-JKFIT

    Orbital Energies [Eh]
    ---------------------

    Doubly Occupied:

       1A    -20.773116     2A    -20.772460     3A    -20.752709
       4A    -20.733966     5A     -2.534342     6A     -1.575136
       7A     -1.540768     8A     -1.527237     9A     -1.526195
      10A     -0.945524    11A     -0.897523    12A     -0.894447
      13A     -0.883266    14A     -0.810630    15A     -0.796390
      16A     -0.774810    17A     -0.762955    18A     -0.745388
      19A     -0.715985    20A     -0.697762    21A     -0.684497

  @DF-RHF Final Energy:  -311.60239984664696

   => Energetics <=

    Nuclear Repulsion Energy =            165.7481608038217189
    One-Electron Energy =                -752.0109032084282035
    Two-Electron Energy =                 274.6603425579594955
    Total Energy =                       -311.6023998466469607
 Dipole X            :          5.2604642           -4.9113944            0.3490698
 Dipole Y            :         -5.9482398            4.3941121           -1.5541277
 Dipole Z            :          8.1062125           -8.5641689           -0.4579564
 Magnitude           :                                                    1.6573734
  Basis Set: (AUG-CC-PVTZ AUX)
    Blend: AUG-CC-PVTZ-RI + DEF2-QZVPP-RI
	 Reference Energy          =    -311.6023998466469607 [Eh]
	 Singles Energy            =      -0.0000000000000000 [Eh]
	 Same-Spin Energy          =      -0.2767565156847770 [Eh]
	 Opposite-Spin Energy      =      -0.8818990288958051 [Eh]
	 Correlation Energy        =      -1.1586555445805820 [Eh]
	 Total Energy              =    -312.7610553912275577 [Eh]

	 ================> DF-SCS-MP2 Energies <==================
	-----------------------------------------------------------
	 SCS Same-Spin Scale       =       0.3333333333333333 [-]
	 SCS Opposite-Spin Scale   =       1.2000000000000000 [-]
	 SCS Same-Spin Energy      =      -0.0922521718949257 [Eh]
	 SCS Opposite-Spin Energy  =      -1.0582788346749661 [Eh]
	 SCS Correlation Energy    =      -1.1505310065698917 [Eh]
	 SCS Total Energy          =    -312.7529308532168670 [Eh]
	-----------------------------------------------------------

*** Psi4 exiting successfully. Buy a developer a beer!
