                               Psi4 1.9 release

  ==> Input File <==

--------------------------------------------------------------------------
MEMORY 60 GB

molecule dimer {
1 1
Li     0.000000     0.000000     0.000000
--
0 1
O      1.248744    -1.546356    -0.063915
H      1.572886    -2.181593    -0.699843
H      1.029516    -2.049213     0.724090
O      0.765829     1.000564     1.387872
H      0.151349     0.926457     2.100303
H      1.657507     0.667016     1.546448
O     -1.671574    -0.529749     0.598972
H     -1.713174    -1.282973     1.185456
H     -2.204628    -0.664548    -0.213532
O     -0.147700     1.539800    -1.361374
H      0.650302     2.003122    -1.769900
H     -0.810619     1.511850    -2.060867

units ang
no_reorient
no_com
symmetry c1
}

set {
basis        aug-cc-pVTZ
scf_type     df
}

energy("mp2", bsse_type="cp")
--------------------------------------------------------------------------

                               Psi4 1.9 release
    Molecular point group: c1
  Charge       = 0
  Multiplicity = 1
  Basis Set: AUG-CC-PVTZ
    Blend: AUG-CC-PVTZ
  Basis Set: (AUG-CC-PVTZ AUX)
    Blend: AUG-CC-PVTZ-JKFIT + DEF2-UNIVERSAL-JKFIT
  @DF-RHF Final Energy:  -304.21041531455410
    Total Energy =                       -304.2104153145540977
 Dipole X            :         -3.6377968            3.5820345           -0.0557623
 Dipole Y            :         -6.3069532            4.9967949           -1.3101583
 Dipole Z            :        -10.2650174           10.0242318           -0.2407856
 Magnitude           :                                                    1.3332674
  Basis Set: (AUG-CC-PVTZ AUX)
    Blend: AUG-CC-PVTZ-RI + DEF2-QZVPP-RI
	 Reference Energy          =    -304.2104153145540977 [Eh]
	 Singles Energy            =      -0.0000000000000000 [Eh]
	 Same-Spin Energy          =      -0.2775608577870147 [Eh]
	 Opposite-Spin Energy      =      -0.8695690895244589 [Eh]
	 Correlation Energy        =      -1.1471299473114736 [Eh]
	 Total Energy              =    -305.3575452618655959 [Eh]
	 SCS Total Energy          =    -305.3464185079124604 [Eh]
                               Psi4 1.9 release
    Molecular point group: c1
  Multiplicity = 1
  Basis Set: AUG-CC-PVTZ
    Blend: AUG-CC-PVTZ
  Basis Set: (AUG-CC-PVTZ AUX)
    Blend: AUG-CC-PVTZ-JKFIT + DEF2-UNIVERSAL-JKFIT
  @DF-RHF Final Energy:    -7.23638494099577
    Total Energy =                         -7.2363849409957659
  Basis Set: (AUG-CC-PVTZ AUX)
	 Singles Energy            =      -0.0000000000000000 [Eh]
	 Same-Spin Energy          =       0.0000000000000000 [Eh]
	 Opposite-Spin Energy      =      -0.0172451591953398 [Eh]
	 Correlation Energy        =      -0.0172451591953398 [Eh]
	 Total Energy              =      -7.2536301001911054 [Eh]
	 SCS Total Energy          =      -7.2570791320301735 [Eh]
                               Psi4 1.9 release
    Molecular point group: c1

    Geometry (in Bohr), charge = 1, multiplicity = 1:

       Center              X                  Y                   Z               Mass
    ------------   -----------------  -----------------  -----------------  -----------------
         LI           0.000000000000     0.000000000000     0.000000000000     7.016003436600
         O            2.359784160809    -2.922189332458    -0.120781845309    15.994914619570
         H            2.972323766567    -4.122613287216    -1.322511600819     1.007825032230
         H            1.945503281777    -3.872451342728     1.368331790183     1.007825032230
         O            1.447207068933     1.890791930993     2.622697977191    15.994914619570
         H            0.286008159362     1.750749997013     3.968997450477     1.007825032230
         H            3.132234281029     1.260477561298     2.922363187262     1.007825032230
         O           -3.158817058436    -1.001080525235     1.131893036818    15.994914619570
         H           -3.237429665255    -2.424467596357     2.240187173781     1.007825032230
         H           -4.166143128516    -1.255813717221    -0.403516999021     1.007825032230
         O           -0.279112548730     2.909800287980    -2.572624014319    15.994914619570
         H            1.228892678837     3.785351975879    -3.344626269448     1.007825032230
         H           -1.531847902092     2.856982442773    -3.894474210994     1.007825032230

  Charge       = 1
  Multiplicity = 1
  Basis Set: AUG-CC-PVTZ
    Blend: AUG-CC-PVTZ
  Basis Set: (AUG-CC-PVTZ AUX)
    Blend: AUG-CC-PVTZ-JKFIT + DEF2-UNIVERSAL-JKFIT

    Orbital Energies [Eh]
    ---------------------

    Doubly Occupied:

       1A    -20.762858     2A    -20.758083     3A    -20.739071
       4A    -20.733623     5A     -2.531194     6A     -1.550144
       7A     -1.547899     8A     -1.528030     9A     -1.510418
      10A     -0.928629    11A     -0.919911    12A     -0.913268
      13A     -0.872828    14A     -0.795777    15A     -0.788977
      16A     -0.770984    17A     -0.742491    18A     -0.724800
      19A     -0.704775    20A     -0.691772    21A     -0.681645

  @DF-RHF Final Energy:  -311.61618628684073

   => Energetics <=

    Nuclear Repulsion Energy =            164.3256223358322075
    One-Electron Energy =                -749.4892645272725531
    Two-Electron Energy =                 273.5474559045995875
    Total Energy =                       -311.6161862868407297
 Dipole X            :         -3.6129364            3.5820345           -0.0309019
 Dipole Y            :         -6.3275905            4.9967949           -1.3307956
 Dipole Z            :        -10.1516373           10.0242318           -0.1274055
 Magnitude           :                                                    1.3372374
  Basis Set: (AUG-CC-PVTZ AUX)
    Blend: AUG-CC-PVTZ-RI + DEF2-QZVPP-RI
	 Reference Energy          =    -311.6161862868407297 [Eh]
	 Singles Energy            =      -0.0000000000000000 [Eh]
	 Same-Spin Energy          =      -0.2759614190529051 [Eh]
	 Opposite-Spin Energy      =      -0.8792650771061199 [Eh]
	 Correlation Energy        =      -1.1552264961590251 [Eh]
	 Total Energy              =    -312.7714127829997324 [Eh]

	 ================> DF-SCS-MP2 Energies <==================
	-----------------------------------------------------------
	 SCS Same-Spin Scale       =       0.3333333333333333 [-]
	 SCS Opposite-Spin Scale   =       1.2000000000000000 [-]
	 SCS Same-Spin Energy      =      -0.0919871396843017 [Eh]
	 SCS Opposite-Spin Energy  =      -1.0551180925273438 [Eh]
	 SCS Correlation Energy    =      -1.1471052322116455 [Eh]
	 SCS Total Energy          =    -312.7632915190523590 [Eh]
	-----------------------------------------------------------

*** Psi4 exiting successfully. Buy a developer a beer!
