                               Psi4 1.8.2 release

  ==> Input File <==

--------------------------------------------------------------------------
MEMORY 60 GB

molecule dimer {
1 1
Li         0.000000     0.000000     0.000000
O         -1.338879    -1.195158     0.469759
H         -2.206298    -0.841443     0.411118
H         -1.348766    -2.032418     0.013778
O         -0.934211     1.705753    -0.411991
H         -1.886530     1.902021    -0.625808
H         -0.587757     2.579575    -0.080228
O          1.030291     0.006627    -1.612348
H          1.063590    -0.834805    -1.968945
H          0.649284     0.567706    -2.305850
O          1.441199    -0.544489     1.384860
H          0.936835    -0.980818     2.110251
H          1.651553     0.325783     1.741433

units ang
no_reorient
no_com
symmetry c1
}

set {
basis        aug-cc-pVTZ
scf_type     df
}

energy("mp2")
--------------------------------------------------------------------------

    Molecular point group: c1

    Geometry (in Angstrom), charge = 1, multiplicity = 1:

       Center              X                  Y                   Z               Mass
    ------------   -----------------  -----------------  -----------------  -----------------
         LI           0.000000000000     0.000000000000     0.000000000000     7.016003436600
         O           -1.338879000000    -1.195158000000     0.469759000000    15.994914619570
         H           -2.206298000000    -0.841443000000     0.411118000000     1.007825032230
         H           -1.348766000000    -2.032418000000     0.013778000000     1.007825032230
         O           -0.934211000000     1.705753000000    -0.411991000000    15.994914619570
         H           -1.886530000000     1.902021000000    -0.625808000000     1.007825032230
         H           -0.587757000000     2.579575000000    -0.080228000000     1.007825032230
         O            1.030291000000     0.006627000000    -1.612348000000    15.994914619570
         H            1.063590000000    -0.834805000000    -1.968945000000     1.007825032230
         H            0.649284000000     0.567706000000    -2.305850000000     1.007825032230
         O            1.441199000000    -0.544489000000     1.384860000000    15.994914619570
         H            0.936835000000    -0.980818000000     2.110251000000     1.007825032230
         H            1.651553000000     0.325783000000     1.741433000000     1.007825032230

  Charge       = 1
  Multiplicity = 1
  Basis Set: AUG-CC-PVTZ
    Blend: AUG-CC-PVTZ
  Basis Set: (AUG-CC-PVTZ AUX)
    Blend: AUG-CC-PVTZ-JKFIT + DEF2-UNIVERSAL-JKFIT

    Orbital Energies [Eh]
    ---------------------

    Doubly Occupied:

       1A    -20.765999     2A    -20.760458     3A    -20.738547
       4A    -20.736997     5A     -2.535688     6A     -1.561802
       7A     -1.543243     8A     -1.532992     9A     -1.516563
      10A     -0.929396    11A     -0.906835    12A     -0.890528
      13A     -0.875596    14A     -0.805821    15A     -0.797688
      16A     -0.780542    17A     -0.752666    18A     -0.721219
      19A     -0.711027    20A     -0.694022    21A     -0.685551

  @DF-RHF Final Energy:  -311.61844755233801

   => Energetics <=

    Nuclear Repulsion Energy =            163.6965387334014110
    One-Electron Energy =                -748.1436098165473823
    Two-Electron Energy =                 272.8286235308079313
    Total Energy =                       -311.6184475523380115
 Dipole X            :         -1.2265864           -0.2662416           -1.4928280
 Dipole Y            :         -0.3840354            0.8833808            0.4993454
 Dipole Z            :          3.5787713           -3.8966361           -0.3178648
 Magnitude           :                                                    1.6059014
  Basis Set: (AUG-CC-PVTZ AUX)
    Blend: AUG-CC-PVTZ-RI + DEF2-QZVPP-RI
	 Reference Energy          =    -311.6184475523380115 [Eh]
	 Singles Energy            =      -0.0000000000000000 [Eh]
	 Same-Spin Energy          =      -0.2760002727735528 [Eh]
	 Opposite-Spin Energy      =      -0.8795984484828556 [Eh]
	 Correlation Energy        =      -1.1555987212564083 [Eh]
	 Total Energy              =    -312.7740462735944220 [Eh]

	 ================> DF-SCS-MP2 Energies <==================
	-----------------------------------------------------------
	 SCS Same-Spin Scale       =       0.3333333333333333 [-]
	 SCS Opposite-Spin Scale   =       1.2000000000000000 [-]
	 SCS Same-Spin Energy      =      -0.0920000909245176 [Eh]
	 SCS Opposite-Spin Energy  =      -1.0555181381794267 [Eh]
	 SCS Correlation Energy    =      -1.1475182291039443 [Eh]
	 SCS Total Energy          =    -312.7659657814419347 [Eh]
	-----------------------------------------------------------

*** Psi4 exiting successfully. Buy a developer a beer!
