                               Psi4 1.8.2 release

  ==> Input File <==

--------------------------------------------------------------------------
MEMORY 60 GB

molecule dimer {
1 1
Li         0.000000     0.000000     0.000000
O          0.961071     1.351951     1.068468
H          0.543505     2.245666     1.123463
H          1.894820     1.439035     0.841481
O          1.418184    -0.868693    -1.271038
H          2.348027    -0.958677    -0.873231
H          1.382908    -1.525987    -1.963044
O         -1.084978    -1.202284     1.231747
H         -1.926492    -1.041220     1.657002
H         -0.514799    -1.668475     1.817292
O         -1.045399     0.614483    -1.372430
H         -0.839504     1.531726    -1.726197
H         -1.458688     0.162252    -2.113895

units ang
no_reorient
no_com
symmetry c1
}

set {
basis        aug-cc-pVTZ
scf_type     df
}

energy("mp2")
--------------------------------------------------------------------------

    Molecular point group: c1

    Geometry (in Angstrom), charge = 1, multiplicity = 1:

       Center              X                  Y                   Z               Mass
    ------------   -----------------  -----------------  -----------------  -----------------
         LI           0.000000000000     0.000000000000     0.000000000000     7.016003436600
         O            0.961071000000     1.351951000000     1.068468000000    15.994914619570
         H            0.543505000000     2.245666000000     1.123463000000     1.007825032230
         H            1.894820000000     1.439035000000     0.841481000000     1.007825032230
         O            1.418184000000    -0.868693000000    -1.271038000000    15.994914619570
         H            2.348027000000    -0.958677000000    -0.873231000000     1.007825032230
         H            1.382908000000    -1.525987000000    -1.963044000000     1.007825032230
         O           -1.084978000000    -1.202284000000     1.231747000000    15.994914619570
         H           -1.926492000000    -1.041220000000     1.657002000000     1.007825032230
         H           -0.514799000000    -1.668475000000     1.817292000000     1.007825032230
         O           -1.045399000000     0.614483000000    -1.372430000000    15.994914619570
         H           -0.839504000000     1.531726000000    -1.726197000000     1.007825032230
         H           -1.458688000000     0.162252000000    -2.113895000000     1.007825032230

  Charge       = 1
  Multiplicity = 1
  Basis Set: AUG-CC-PVTZ
    Blend: AUG-CC-PVTZ
  Basis Set: (AUG-CC-PVTZ AUX)
    Blend: AUG-CC-PVTZ-JKFIT + DEF2-UNIVERSAL-JKFIT

    Orbital Energies [Eh]
    ---------------------

    Doubly Occupied:

       1A    -20.752058     2A    -20.747778     3A    -20.744162
       4A    -20.730274     5A     -2.530176     6A     -1.530257
       7A     -1.526918     8A     -1.524795     9A     -1.516626
      10A     -0.904303    11A     -0.901060    12A     -0.886865
      13A     -0.878844    14A     -0.793635    15A     -0.775519
      16A     -0.769861    17A     -0.760037    18A     -0.701080
      19A     -0.694041    20A     -0.685503    21A     -0.682004

  @DF-RHF Final Energy:  -311.62302808359226

   => Energetics <=

    Nuclear Repulsion Energy =            160.4520164038378027
    One-Electron Energy =                -742.0784912137308993
    Two-Electron Energy =                 270.0034467263008651
    Total Energy =                       -311.6230280835922599
 Dipole X            :         -5.8419117            6.4643770            0.6224653
 Dipole Y            :          1.5183823           -1.2321468            0.2862355
 Dipole Z            :          7.0818668           -7.5270683           -0.4452015
 Magnitude           :                                                    0.8170668
  Basis Set: (AUG-CC-PVTZ AUX)
    Blend: AUG-CC-PVTZ-RI + DEF2-QZVPP-RI
	 Reference Energy          =    -311.6230280835922599 [Eh]
	 Singles Energy            =      -0.0000000000000000 [Eh]
	 Same-Spin Energy          =      -0.2757298195634377 [Eh]
	 Opposite-Spin Energy      =      -0.8795320992619013 [Eh]
	 Correlation Energy        =      -1.1552619188253390 [Eh]
	 Total Energy              =    -312.7782900024175774 [Eh]

	 ================> DF-SCS-MP2 Energies <==================
	-----------------------------------------------------------
	 SCS Same-Spin Scale       =       0.3333333333333333 [-]
	 SCS Opposite-Spin Scale   =       1.2000000000000000 [-]
	 SCS Same-Spin Energy      =      -0.0919099398544792 [Eh]
	 SCS Opposite-Spin Energy  =      -1.0554385191142817 [Eh]
	 SCS Correlation Energy    =      -1.1473484589687608 [Eh]
	 SCS Total Energy          =    -312.7703765425609959 [Eh]
	-----------------------------------------------------------

*** Psi4 exiting successfully. Buy a developer a beer!
