                               Psi4 1.8.2 release

  ==> Input File <==

--------------------------------------------------------------------------
MEMORY 60 GB

molecule dimer {
1 1
Li         0.000000     0.000000     0.000000
Gh(O)     -1.162740     1.014321     1.159155
Gh(H)     -0.442200     0.986359     1.801023
Gh(H)     -1.860620     0.437939     1.470678
Gh(O)      1.767946     0.216161     0.641309
Gh(H)      2.204606    -0.360946     0.000281
Gh(H)      2.328164     0.028607     1.374471
Gh(O)     -0.688386    -1.786161     0.152623
Gh(H)     -1.542320    -1.770103    -0.317065
Gh(H)     -0.023824    -2.188879    -0.406850
Gh(O)      0.091354     1.071377    -1.593210
Gh(H)     -0.332237     0.917174    -2.464800
Gh(H)      0.896186     1.508063    -1.838482

units ang
no_reorient
no_com
symmetry c1
}

set {
basis        aug-cc-pVTZ
scf_type     df
}

energy("mp2")
--------------------------------------------------------------------------

    Molecular point group: c1

    Geometry (in Angstrom), charge = 1, multiplicity = 1:

       Center              X                  Y                   Z               Mass
    ------------   -----------------  -----------------  -----------------  -----------------
         LI           0.000000000000     0.000000000000     0.000000000000     7.016003436600
      Gh(O)          -1.162740000000     1.014321000000     1.159155000000    15.994914619570
      Gh(H)          -0.442200000000     0.986359000000     1.801023000000     1.007825032230
      Gh(H)          -1.860620000000     0.437939000000     1.470678000000     1.007825032230
      Gh(O)           1.767946000000     0.216161000000     0.641309000000    15.994914619570
      Gh(H)           2.204606000000    -0.360946000000     0.000281000000     1.007825032230
      Gh(H)           2.328164000000     0.028607000000     1.374471000000     1.007825032230
      Gh(O)          -0.688386000000    -1.786161000000     0.152623000000    15.994914619570
      Gh(H)          -1.542320000000    -1.770103000000    -0.317065000000     1.007825032230
      Gh(H)          -0.023824000000    -2.188879000000    -0.406850000000     1.007825032230
      Gh(O)           0.091354000000     1.071377000000    -1.593210000000    15.994914619570
      Gh(H)          -0.332237000000     0.917174000000    -2.464800000000     1.007825032230
      Gh(H)           0.896186000000     1.508063000000    -1.838482000000     1.007825032230

  Charge       = 1
  Multiplicity = 1
  Basis Set: AUG-CC-PVTZ
    Blend: AUG-CC-PVTZ
  Basis Set: (AUG-CC-PVTZ AUX)
    Blend: AUG-CC-PVTZ-JKFIT + DEF2-UNIVERSAL-JKFIT

    Orbital Energies [Eh]
    ---------------------

    Doubly Occupied:

       1A     -2.792352

  @DF-RHF Final Energy:    -7.23638503692991

   => Energetics <=

    Nuclear Repulsion Energy =              0.0000000000000000
    One-Electron Energy =                  -8.8880669761793332
    Two-Electron Energy =                   1.6516819392494211
    Total Energy =                         -7.2363850369299119
 Dipole X            :          0.0000010            0.0000000            0.0000010
 Dipole Y            :          0.0000008            0.0000000            0.0000008
 Dipole Z            :         -0.0000008            0.0000000           -0.0000008
 Magnitude           :                                                    0.0000015
  Basis Set: (AUG-CC-PVTZ AUX)
    Blend: AUG-CC-PVTZ-RI + DEF2-QZVPP-RI
	 Reference Energy          =      -7.2363850369299128 [Eh]
	 Singles Energy            =      -0.0000000000000000 [Eh]
	 Same-Spin Energy          =       0.0000000000000000 [Eh]
	 Opposite-Spin Energy      =      -0.0174461423256572 [Eh]
	 Correlation Energy        =      -0.0174461423256572 [Eh]
	 Total Energy              =      -7.2538311792555703 [Eh]

	 ================> DF-SCS-MP2 Energies <==================
	-----------------------------------------------------------
	 SCS Same-Spin Scale       =       0.3333333333333333 [-]
	 SCS Opposite-Spin Scale   =       1.2000000000000000 [-]
	 SCS Same-Spin Energy      =       0.0000000000000000 [Eh]
	 SCS Opposite-Spin Energy  =      -0.0209353707907886 [Eh]
	 SCS Correlation Energy    =      -0.0209353707907886 [Eh]
	 SCS Total Energy          =      -7.2573204077207016 [Eh]
	-----------------------------------------------------------

*** Psi4 exiting successfully. Buy a developer a beer!
