                               Psi4 1.8.2 release

  ==> Input File <==

--------------------------------------------------------------------------
MEMORY 60 GB

molecule dimer {
0 1
Gh(Li)     0.000000     0.000000     0.000000
Gh(O)      1.062713     1.375749    -0.711183
Gh(H)      1.377317     2.084377    -0.192248
Gh(H)      1.714223     1.224250    -1.484560
O          0.041409    -1.808033    -0.905068
H         -0.852499    -2.198037    -1.105551
H          0.420454    -2.347752    -0.193979
Gh(O)     -1.559472     0.921783     0.230278
Gh(H)     -1.884578     1.208158    -0.631528
Gh(H)     -2.246300     0.361082     0.596645
Gh(O)      0.774279    -0.126335     1.869200
Gh(H)      0.785258     0.524247     2.549420
Gh(H)      0.581091    -0.983439     2.283012

units ang
no_reorient
no_com
symmetry c1
}

set {
basis        aug-cc-pVTZ
scf_type     df
}

energy("mp2")
--------------------------------------------------------------------------

    Molecular point group: c1

    Geometry (in Angstrom), charge = 0, multiplicity = 1:

       Center              X                  Y                   Z               Mass
    ------------   -----------------  -----------------  -----------------  -----------------
      Gh(LI)          0.000000000000     0.000000000000     0.000000000000     7.016003436600
      Gh(O)           1.062713000000     1.375749000000    -0.711183000000    15.994914619570
      Gh(H)           1.377317000000     2.084377000000    -0.192248000000     1.007825032230
      Gh(H)           1.714223000000     1.224250000000    -1.484560000000     1.007825032230
         O            0.041409000000    -1.808033000000    -0.905068000000    15.994914619570
         H           -0.852499000000    -2.198037000000    -1.105551000000     1.007825032230
         H            0.420454000000    -2.347752000000    -0.193979000000     1.007825032230
      Gh(O)          -1.559472000000     0.921783000000     0.230278000000    15.994914619570
      Gh(H)          -1.884578000000     1.208158000000    -0.631528000000     1.007825032230
      Gh(H)          -2.246300000000     0.361082000000     0.596645000000     1.007825032230
      Gh(O)           0.774279000000    -0.126335000000     1.869200000000    15.994914619570
      Gh(H)           0.785258000000     0.524247000000     2.549420000000     1.007825032230
      Gh(H)           0.581091000000    -0.983439000000     2.283012000000     1.007825032230

  Charge       = 0
  Multiplicity = 1
  Basis Set: AUG-CC-PVTZ
    Blend: AUG-CC-PVTZ
  Basis Set: (AUG-CC-PVTZ AUX)
    Blend: AUG-CC-PVTZ-JKFIT + DEF2-UNIVERSAL-JKFIT

    Orbital Energies [Eh]
    ---------------------

    Doubly Occupied:

       1A    -20.570530     2A     -1.339605     3A     -0.707233
       4A     -0.576444     5A     -0.507741

  @DF-RHF Final Energy:   -76.05753639380744

   => Energetics <=

    Nuclear Repulsion Energy =              8.9532570046562032
    One-Electron Energy =                -122.6184761696301990
    Two-Electron Energy =                  37.6076827711665516
    Total Energy =                        -76.0575363938074389
 Dipole X            :         -0.1448326           -0.1904334           -0.3352660
 Dipole Y            :         35.3114865          -35.9237938           -0.6123073
 Dipole Z            :         16.4765857          -16.1384010            0.3381847
 Magnitude           :                                                    0.7756883
  Basis Set: (AUG-CC-PVTZ AUX)
    Blend: AUG-CC-PVTZ-RI + DEF2-QZVPP-RI
	 Reference Energy          =     -76.0575363938074389 [Eh]
	 Singles Energy            =      -0.0000000000000000 [Eh]
	 Same-Spin Energy          =      -0.0688432121379177 [Eh]
	 Opposite-Spin Energy      =      -0.2173275524757112 [Eh]
	 Correlation Energy        =      -0.2861707646136288 [Eh]
	 Total Energy              =     -76.3437071584210685 [Eh]

	 ================> DF-SCS-MP2 Energies <==================
	-----------------------------------------------------------
	 SCS Same-Spin Scale       =       0.3333333333333333 [-]
	 SCS Opposite-Spin Scale   =       1.2000000000000000 [-]
	 SCS Same-Spin Energy      =      -0.0229477373793059 [Eh]
	 SCS Opposite-Spin Energy  =      -0.2607930629708534 [Eh]
	 SCS Correlation Energy    =      -0.2837408003501593 [Eh]
	 SCS Total Energy          =     -76.3412771941575983 [Eh]
	-----------------------------------------------------------

*** Psi4 exiting successfully. Buy a developer a beer!
