                               Psi4 1.8.2 release

  ==> Input File <==

--------------------------------------------------------------------------
MEMORY 60 GB

molecule dimer {
0 1
Gh(Li)     0.000000     0.000000     0.000000
Gh(O)      1.891419    -0.158379     0.528671
Gh(H)      2.349768    -0.987879     0.327543
Gh(H)      1.829373    -0.013513     1.475622
Gh(O)     -0.554841     1.482555     1.052622
Gh(H)     -0.087815     1.879686     1.842708
Gh(H)     -0.786767     2.214477     0.472406
O         -0.527123    -0.402664    -1.792316
H         -0.769570     0.305457    -2.402126
H         -0.735432    -1.286504    -2.275183

units ang
no_reorient
no_com
symmetry c1
}

set {
basis        aug-cc-pVTZ
scf_type     df
}

energy("mp2")
--------------------------------------------------------------------------

    Molecular point group: c1

    Geometry (in Angstrom), charge = 0, multiplicity = 1:

       Center              X                  Y                   Z               Mass
    ------------   -----------------  -----------------  -----------------  -----------------
      Gh(LI)          0.000000000000     0.000000000000     0.000000000000     7.016003436600
      Gh(O)           1.891419000000    -0.158379000000     0.528671000000    15.994914619570
      Gh(H)           2.349768000000    -0.987879000000     0.327543000000     1.007825032230
      Gh(H)           1.829373000000    -0.013513000000     1.475622000000     1.007825032230
      Gh(O)          -0.554841000000     1.482555000000     1.052622000000    15.994914619570
      Gh(H)          -0.087815000000     1.879686000000     1.842708000000     1.007825032230
      Gh(H)          -0.786767000000     2.214477000000     0.472406000000     1.007825032230
         O           -0.527123000000    -0.402664000000    -1.792316000000    15.994914619570
         H           -0.769570000000     0.305457000000    -2.402126000000     1.007825032230
         H           -0.735432000000    -1.286504000000    -2.275183000000     1.007825032230

  Charge       = 0
  Multiplicity = 1
  Basis Set: AUG-CC-PVTZ
    Blend: AUG-CC-PVTZ
  Basis Set: (AUG-CC-PVTZ AUX)
    Blend: AUG-CC-PVTZ-JKFIT + DEF2-UNIVERSAL-JKFIT

    Orbital Energies [Eh]
    ---------------------

    Doubly Occupied:

       1A    -20.572689     2A     -1.333533     3A     -0.700288
       4A     -0.573212     5A     -0.506665

  @DF-RHF Final Energy:   -76.05364327832069

   => Energetics <=

    Nuclear Repulsion Energy =              8.8324932594969852
    One-Electron Energy =                -122.3994955371294537
    Two-Electron Energy =                  37.5133589993117766
    Total Energy =                        -76.0536432783206919
 Dipole X            :         10.5185519          -10.8129864           -0.2944345
 Dipole Y            :          7.8367906           -7.9413076           -0.1045170
 Dipole Z            :         35.2207365          -35.9347240           -0.7139875
 Magnitude           :                                                    0.7793546
  Basis Set: (AUG-CC-PVTZ AUX)
    Blend: AUG-CC-PVTZ-RI + DEF2-QZVPP-RI
	 Reference Energy          =     -76.0536432783206919 [Eh]
	 Singles Energy            =      -0.0000000000000000 [Eh]
	 Same-Spin Energy          =      -0.0690532844510817 [Eh]
	 Opposite-Spin Energy      =      -0.2179121252169672 [Eh]
	 Correlation Energy        =      -0.2869654096680488 [Eh]
	 Total Energy              =     -76.3406086879887340 [Eh]

	 ================> DF-SCS-MP2 Energies <==================
	-----------------------------------------------------------
	 SCS Same-Spin Scale       =       0.3333333333333333 [-]
	 SCS Opposite-Spin Scale   =       1.2000000000000000 [-]
	 SCS Same-Spin Energy      =      -0.0230177614836939 [Eh]
	 SCS Opposite-Spin Energy  =      -0.2614945502603606 [Eh]
	 SCS Correlation Energy    =      -0.2845123117440544 [Eh]
	 SCS Total Energy          =     -76.3381555900647442 [Eh]
	-----------------------------------------------------------

*** Psi4 exiting successfully. Buy a developer a beer!
