                               Psi4 1.8.2 release

  ==> Input File <==

--------------------------------------------------------------------------
MEMORY 60 GB

molecule dimer {
0 1
Gh(Li)     0.000000     0.000000     0.000000
Gh(O)      1.110215    -1.098530    -1.443038
Gh(H)      1.598295    -1.954221    -1.278074
Gh(H)      1.207274    -0.949489    -2.430059
Gh(O)     -1.257824    -1.305400     0.453129
Gh(H)     -2.221511    -1.279369     0.433411
Gh(H)     -1.048101    -1.335662     1.390767
O         -0.051878     1.572965     1.008421
H          0.239274     2.445122     1.163302
H         -0.498900     1.346008     1.847540

units ang
no_reorient
no_com
symmetry c1
}

set {
basis        aug-cc-pVTZ
scf_type     df
}

energy("mp2")
--------------------------------------------------------------------------

    Molecular point group: c1

    Geometry (in Angstrom), charge = 0, multiplicity = 1:

       Center              X                  Y                   Z               Mass
    ------------   -----------------  -----------------  -----------------  -----------------
      Gh(LI)          0.000000000000     0.000000000000     0.000000000000     7.016003436600
      Gh(O)           1.110215000000    -1.098530000000    -1.443038000000    15.994914619570
      Gh(H)           1.598295000000    -1.954221000000    -1.278074000000     1.007825032230
      Gh(H)           1.207274000000    -0.949489000000    -2.430059000000     1.007825032230
      Gh(O)          -1.257824000000    -1.305400000000     0.453129000000    15.994914619570
      Gh(H)          -2.221511000000    -1.279369000000     0.433411000000     1.007825032230
      Gh(H)          -1.048101000000    -1.335662000000     1.390767000000     1.007825032230
         O           -0.051878000000     1.572965000000     1.008421000000    15.994914619570
         H            0.239274000000     2.445122000000     1.163302000000     1.007825032230
         H           -0.498900000000     1.346008000000     1.847540000000     1.007825032230

  Charge       = 0
  Multiplicity = 1
  Basis Set: AUG-CC-PVTZ
    Blend: AUG-CC-PVTZ
  Basis Set: (AUG-CC-PVTZ AUX)
    Blend: AUG-CC-PVTZ-JKFIT + DEF2-UNIVERSAL-JKFIT

    Orbital Energies [Eh]
    ---------------------

    Doubly Occupied:

       1A    -20.567342     2A     -1.356619     3A     -0.715306
       4A     -0.588976     5A     -0.511105

  @DF-RHF Final Energy:   -76.05957471035508

   => Energetics <=

    Nuclear Repulsion Energy =              9.2262650462029647
    One-Electron Energy =                -123.0929810950189704
    Two-Electron Energy =                  37.8071413384609230
    Total Energy =                        -76.0595747103550792
 Dipole X            :          1.1756539           -1.2749037           -0.0992499
 Dipole Y            :        -30.5104363           30.9439818            0.4335456
 Dipole Z            :        -20.2802765           20.9347829            0.6545063
 Magnitude           :                                                    0.7913222
  Basis Set: (AUG-CC-PVTZ AUX)
    Blend: AUG-CC-PVTZ-RI + DEF2-QZVPP-RI
	 Reference Energy          =     -76.0595747103550792 [Eh]
	 Singles Energy            =      -0.0000000000000000 [Eh]
	 Same-Spin Energy          =      -0.0684019770661953 [Eh]
	 Opposite-Spin Energy      =      -0.2157825639697854 [Eh]
	 Correlation Energy        =      -0.2841845410359807 [Eh]
	 Total Energy              =     -76.3437592513910630 [Eh]

	 ================> DF-SCS-MP2 Energies <==================
	-----------------------------------------------------------
	 SCS Same-Spin Scale       =       0.3333333333333333 [-]
	 SCS Opposite-Spin Scale   =       1.2000000000000000 [-]
	 SCS Same-Spin Energy      =      -0.0228006590220651 [Eh]
	 SCS Opposite-Spin Energy  =      -0.2589390767637425 [Eh]
	 SCS Correlation Energy    =      -0.2817397357858076 [Eh]
	 SCS Total Energy          =     -76.3413144461408848 [Eh]
	-----------------------------------------------------------

*** Psi4 exiting successfully. Buy a developer a beer!
