                               Psi4 1.8.2 release

  ==> Input File <==

--------------------------------------------------------------------------
MEMORY 60 GB

molecule dimer {
0 1
Gh(Li)     0.000000     0.000000     0.000000
O          1.852804     0.610325     0.422366
H          2.273260     1.457225     0.600686
H          2.485926     0.051439    -0.025591
Gh(O)     -1.159180     1.378186     0.408450
Gh(H)     -1.049995     1.647269     1.320449
Gh(H)     -1.096509     2.226849    -0.094508
Gh(O)     -0.329423    -1.475069     1.145804
Gh(H)     -0.434844    -2.362818     0.770701
Gh(H)     -1.017858    -1.314900     1.802054
Gh(O)      0.503397    -1.152424    -1.784085
Gh(H)      0.322310    -0.760718    -2.631013
Gh(H)      1.362436    -1.632825    -1.984484

units ang
no_reorient
no_com
symmetry c1
}

set {
basis        aug-cc-pVTZ
scf_type     df
}

energy("mp2")
--------------------------------------------------------------------------

    Molecular point group: c1

    Geometry (in Angstrom), charge = 0, multiplicity = 1:

       Center              X                  Y                   Z               Mass
    ------------   -----------------  -----------------  -----------------  -----------------
      Gh(LI)          0.000000000000     0.000000000000     0.000000000000     7.016003436600
         O            1.852804000000     0.610325000000     0.422366000000    15.994914619570
         H            2.273260000000     1.457225000000     0.600686000000     1.007825032230
         H            2.485926000000     0.051439000000    -0.025591000000     1.007825032230
      Gh(O)          -1.159180000000     1.378186000000     0.408450000000    15.994914619570
      Gh(H)          -1.049995000000     1.647269000000     1.320449000000     1.007825032230
      Gh(H)          -1.096509000000     2.226849000000    -0.094508000000     1.007825032230
      Gh(O)          -0.329423000000    -1.475069000000     1.145804000000    15.994914619570
      Gh(H)          -0.434844000000    -2.362818000000     0.770701000000     1.007825032230
      Gh(H)          -1.017858000000    -1.314900000000     1.802054000000     1.007825032230
      Gh(O)           0.503397000000    -1.152424000000    -1.784085000000    15.994914619570
      Gh(H)           0.322310000000    -0.760718000000    -2.631013000000     1.007825032230
      Gh(H)           1.362436000000    -1.632825000000    -1.984484000000     1.007825032230

  Charge       = 0
  Multiplicity = 1
  Basis Set: AUG-CC-PVTZ
    Blend: AUG-CC-PVTZ
  Basis Set: (AUG-CC-PVTZ AUX)
    Blend: AUG-CC-PVTZ-JKFIT + DEF2-UNIVERSAL-JKFIT

    Orbital Energies [Eh]
    ---------------------

    Doubly Occupied:

       1A    -20.565645     2A     -1.349938     3A     -0.723642
       4A     -0.577351     5A     -0.509056

  @DF-RHF Final Energy:   -76.06046267906170

   => Energetics <=

    Nuclear Repulsion Energy =              9.1687983122079793
    One-Electron Energy =                -123.0072534797956791
    Two-Electron Energy =                  37.7779924885259959
    Total Energy =                        -76.0604626790617004
 Dipole X            :        -36.2961101           37.0038951            0.7077850
 Dipole Y            :        -11.8851458           12.0777386            0.1925927
 Dipole Z            :         -7.6534227            7.4720206           -0.1814021
 Magnitude           :                                                    0.7556178
  Basis Set: (AUG-CC-PVTZ AUX)
    Blend: AUG-CC-PVTZ-RI + DEF2-QZVPP-RI
	 Reference Energy          =     -76.0604626790617004 [Eh]
	 Singles Energy            =      -0.0000000000000000 [Eh]
	 Same-Spin Energy          =      -0.0683964535364901 [Eh]
	 Opposite-Spin Energy      =      -0.2157963663102647 [Eh]
	 Correlation Energy        =      -0.2841928198467548 [Eh]
	 Total Energy              =     -76.3446554989084518 [Eh]

	 ================> DF-SCS-MP2 Energies <==================
	-----------------------------------------------------------
	 SCS Same-Spin Scale       =       0.3333333333333333 [-]
	 SCS Opposite-Spin Scale   =       1.2000000000000000 [-]
	 SCS Same-Spin Energy      =      -0.0227988178454967 [Eh]
	 SCS Opposite-Spin Energy  =      -0.2589556395723176 [Eh]
	 SCS Correlation Energy    =      -0.2817544574178143 [Eh]
	 SCS Total Energy          =     -76.3422171364795190 [Eh]
	-----------------------------------------------------------

*** Psi4 exiting successfully. Buy a developer a beer!
