                               Psi4 1.8.2 release

  ==> Input File <==

--------------------------------------------------------------------------
MEMORY 60 GB

molecule dimer {
1 1
Li         0.000000     0.000000     0.000000
O          0.778758    -0.677263     1.669262
H          0.156902    -1.291452     2.063438
H          1.726307    -1.001041     1.653786
O         -0.201146     1.717887    -0.567701
H         -0.877478     2.173081    -0.028194
H         -0.676930     1.554022    -1.382573
O          0.498720    -1.024337    -1.589394
H          0.287247    -0.644818    -2.452001
H          1.305141    -1.493530    -1.587149
O         -1.985305    -0.778725    -0.196160
H         -2.154204    -1.191439    -1.039674
H         -2.698583    -0.134123    -0.133709

units ang
no_reorient
no_com
symmetry c1
}

set {
basis        aug-cc-pVTZ
scf_type     df
}

energy("mp2")
--------------------------------------------------------------------------

    Molecular point group: c1

    Geometry (in Angstrom), charge = 1, multiplicity = 1:

       Center              X                  Y                   Z               Mass
    ------------   -----------------  -----------------  -----------------  -----------------
         LI           0.000000000000     0.000000000000     0.000000000000     7.016003436600
         O            0.778758000000    -0.677263000000     1.669262000000    15.994914619570
         H            0.156902000000    -1.291452000000     2.063438000000     1.007825032230
         H            1.726307000000    -1.001041000000     1.653786000000     1.007825032230
         O           -0.201146000000     1.717887000000    -0.567701000000    15.994914619570
         H           -0.877478000000     2.173081000000    -0.028194000000     1.007825032230
         H           -0.676930000000     1.554022000000    -1.382573000000     1.007825032230
         O            0.498720000000    -1.024337000000    -1.589394000000    15.994914619570
         H            0.287247000000    -0.644818000000    -2.452001000000     1.007825032230
         H            1.305141000000    -1.493530000000    -1.587149000000     1.007825032230
         O           -1.985305000000    -0.778725000000    -0.196160000000    15.994914619570
         H           -2.154204000000    -1.191439000000    -1.039674000000     1.007825032230
         H           -2.698583000000    -0.134123000000    -0.133709000000     1.007825032230

  Charge       = 1
  Multiplicity = 1
  Basis Set: AUG-CC-PVTZ
    Blend: AUG-CC-PVTZ
  Basis Set: (AUG-CC-PVTZ AUX)
    Blend: AUG-CC-PVTZ-JKFIT + DEF2-UNIVERSAL-JKFIT

    Orbital Energies [Eh]
    ---------------------

    Doubly Occupied:

       1A    -20.764090     2A    -20.755138     3A    -20.748621
       4A    -20.746065     5A     -2.537696     6A     -1.555426
       7A     -1.550842     8A     -1.537944     9A     -1.521345
      10A     -0.936269    11A     -0.905871    12A     -0.904029
      13A     -0.894978    14A     -0.799930    15A     -0.794846
      16A     -0.775224    17A     -0.760628    18A     -0.728514
      19A     -0.711339    20A     -0.694369    21A     -0.691867

  @DF-RHF Final Energy:  -311.61398371584960

   => Energetics <=

    Nuclear Repulsion Energy =            164.3477502521050440
    One-Electron Energy =                -749.2934013649421559
    Two-Electron Energy =                 273.3316673969875410
    Total Energy =                       -311.6139837158495993
 Dipole X            :         18.5036206          -19.2815975           -0.7779770
 Dipole Y            :         14.8687129          -15.3612133           -0.4925003
 Dipole Z            :         14.7084298          -15.8321633           -1.1237335
 Magnitude           :                                                    1.4527841
  Basis Set: (AUG-CC-PVTZ AUX)
    Blend: AUG-CC-PVTZ-RI + DEF2-QZVPP-RI
	 Reference Energy          =    -311.6139837158495993 [Eh]
	 Singles Energy            =      -0.0000000000000000 [Eh]
	 Same-Spin Energy          =      -0.2758652049937648 [Eh]
	 Opposite-Spin Energy      =      -0.8792367099759064 [Eh]
	 Correlation Energy        =      -1.1551019149696713 [Eh]
	 Total Energy              =    -312.7690856308192906 [Eh]

	 ================> DF-SCS-MP2 Energies <==================
	-----------------------------------------------------------
	 SCS Same-Spin Scale       =       0.3333333333333333 [-]
	 SCS Opposite-Spin Scale   =       1.2000000000000000 [-]
	 SCS Same-Spin Energy      =      -0.0919550683312549 [Eh]
	 SCS Opposite-Spin Energy  =      -1.0550840519710876 [Eh]
	 SCS Correlation Energy    =      -1.1470391203023425 [Eh]
	 SCS Total Energy          =    -312.7610228361519376 [Eh]
	-----------------------------------------------------------

*** Psi4 exiting successfully. Buy a developer a beer!
