                               Psi4 1.8.2 release

  ==> Input File <==

--------------------------------------------------------------------------
MEMORY 60 GB

molecule dimer {
1 1
Li         0.000000     0.000000     0.000000
O          0.310094    -1.762459     0.424676
H          1.019755    -2.370888     0.219586
H         -0.545566    -2.125910     0.340252
O          1.379131     0.920850    -0.326352
H          2.291762     0.787935     0.009136
H          1.516037     1.585216    -1.021019
O         -1.539823     0.503766    -1.067499
H         -2.441997     0.161504    -1.061971
H         -1.551102     1.250548    -1.642154

units ang
no_reorient
no_com
symmetry c1
}

set {
basis        aug-cc-pVTZ
scf_type     df
}

energy("mp2")
--------------------------------------------------------------------------

    Molecular point group: c1

    Geometry (in Angstrom), charge = 1, multiplicity = 1:

       Center              X                  Y                   Z               Mass
    ------------   -----------------  -----------------  -----------------  -----------------
         LI           0.000000000000     0.000000000000     0.000000000000     7.016003436600
         O            0.310094000000    -1.762459000000     0.424676000000    15.994914619570
         H            1.019755000000    -2.370888000000     0.219586000000     1.007825032230
         H           -0.545566000000    -2.125910000000     0.340252000000     1.007825032230
         O            1.379131000000     0.920850000000    -0.326352000000    15.994914619570
         H            2.291762000000     0.787935000000     0.009136000000     1.007825032230
         H            1.516037000000     1.585216000000    -1.021019000000     1.007825032230
         O           -1.539823000000     0.503766000000    -1.067499000000    15.994914619570
         H           -2.441997000000     0.161504000000    -1.061971000000     1.007825032230
         H           -1.551102000000     1.250548000000    -1.642154000000     1.007825032230

  Charge       = 1
  Multiplicity = 1
  Basis Set: AUG-CC-PVTZ
    Blend: AUG-CC-PVTZ
  Basis Set: (AUG-CC-PVTZ AUX)
    Blend: AUG-CC-PVTZ-JKFIT + DEF2-UNIVERSAL-JKFIT

    Orbital Energies [Eh]
    ---------------------

    Doubly Occupied:

       1A    -20.775597     2A    -20.765534     3A    -20.760037
       4A     -2.556725     5A     -1.562272     6A     -1.559839
       7A     -1.558712     8A     -0.946986     9A     -0.925638
      10A     -0.913893    11A     -0.833981    12A     -0.809929
      13A     -0.794470    14A     -0.730999    15A     -0.717168
      16A     -0.713987

  @DF-RHF Final Energy:  -235.54380939071683

   => Energetics <=

    Nuclear Repulsion Energy =            100.8738757421080550
    One-Electron Energy =                -518.9838285882143509
    Two-Electron Energy =                 182.5661434553894651
    Total Energy =                       -235.5438093907168309
 Dipole X            :         -2.7324164            2.8045520            0.0721356
 Dipole Y            :          6.3583719           -6.4521656           -0.0937937
 Dipole Z            :         19.5747771          -20.6160994           -1.0413224
 Magnitude           :                                                    1.0480234
  Basis Set: (AUG-CC-PVTZ AUX)
    Blend: AUG-CC-PVTZ-RI + DEF2-QZVPP-RI
	 Reference Energy          =    -235.5438093907168309 [Eh]
	 Singles Energy            =      -0.0000000000000000 [Eh]
	 Same-Spin Energy          =      -0.2052627366019524 [Eh]
	 Opposite-Spin Energy      =      -0.6590871036175846 [Eh]
	 Correlation Energy        =      -0.8643498402195370 [Eh]
	 Total Energy              =    -236.4081592309363771 [Eh]

	 ================> DF-SCS-MP2 Energies <==================
	-----------------------------------------------------------
	 SCS Same-Spin Scale       =       0.3333333333333333 [-]
	 SCS Opposite-Spin Scale   =       1.2000000000000000 [-]
	 SCS Same-Spin Energy      =      -0.0684209122006508 [Eh]
	 SCS Opposite-Spin Energy  =      -0.7909045243411015 [Eh]
	 SCS Correlation Energy    =      -0.8593254365417522 [Eh]
	 SCS Total Energy          =    -236.4031348272585831 [Eh]
	-----------------------------------------------------------

*** Psi4 exiting successfully. Buy a developer a beer!
