                               Psi4 1.8.2 release

  ==> Input File <==

--------------------------------------------------------------------------
MEMORY 60 GB

molecule dimer {
0 1
Gh(Li)     0.000000     0.000000     0.000000
Gh(O)     -1.493181     0.812463    -0.760642
Gh(H)     -2.274485     0.118561    -0.860742
Gh(H)     -1.946136     1.446441    -0.200871
Gh(O)     -0.238550    -1.490324     0.929417
Gh(H)     -0.382439    -2.409755     0.616696
Gh(H)     -0.583433    -1.630923     1.807732
Gh(O)      0.483877     1.296141     1.431392
Gh(H)      0.764361     0.733210     2.208636
Gh(H)     -0.078353     2.024658     1.715524
O          1.736640    -0.390823    -1.112667
H          1.820394    -1.119034    -1.789990
H          2.001306     0.393263    -1.580594

units ang
no_reorient
no_com
symmetry c1
}

set {
basis        aug-cc-pVTZ
scf_type     df
}

energy("mp2")
--------------------------------------------------------------------------

    Molecular point group: c1

    Geometry (in Angstrom), charge = 0, multiplicity = 1:

       Center              X                  Y                   Z               Mass
    ------------   -----------------  -----------------  -----------------  -----------------
      Gh(LI)          0.000000000000     0.000000000000     0.000000000000     7.016003436600
      Gh(O)          -1.493181000000     0.812463000000    -0.760642000000    15.994914619570
      Gh(H)          -2.274485000000     0.118561000000    -0.860742000000     1.007825032230
      Gh(H)          -1.946136000000     1.446441000000    -0.200871000000     1.007825032230
      Gh(O)          -0.238550000000    -1.490324000000     0.929417000000    15.994914619570
      Gh(H)          -0.382439000000    -2.409755000000     0.616696000000     1.007825032230
      Gh(H)          -0.583433000000    -1.630923000000     1.807732000000     1.007825032230
      Gh(O)           0.483877000000     1.296141000000     1.431392000000    15.994914619570
      Gh(H)           0.764361000000     0.733210000000     2.208636000000     1.007825032230
      Gh(H)          -0.078353000000     2.024658000000     1.715524000000     1.007825032230
         O            1.736640000000    -0.390823000000    -1.112667000000    15.994914619570
         H            1.820394000000    -1.119034000000    -1.789990000000     1.007825032230
         H            2.001306000000     0.393263000000    -1.580594000000     1.007825032230

  Charge       = 0
  Multiplicity = 1
  Basis Set: AUG-CC-PVTZ
    Blend: AUG-CC-PVTZ
  Basis Set: (AUG-CC-PVTZ AUX)
    Blend: AUG-CC-PVTZ-JKFIT + DEF2-UNIVERSAL-JKFIT

    Orbital Energies [Eh]
    ---------------------

    Doubly Occupied:

       1A    -20.570002     2A     -1.345566     3A     -0.707937
       4A     -0.582061     5A     -0.509084

  @DF-RHF Final Energy:   -76.05805383831698

   => Energetics <=

    Nuclear Repulsion Energy =              9.0389934152349767
    One-Electron Energy =                -122.7647911708054380
    Two-Electron Energy =                  37.6677439172534747
    Total Energy =                        -76.0580538383169795
 Dipole X            :        -33.2459932           33.4761582            0.2301649
 Dipole Y            :          7.3247267           -7.2798959            0.0448308
 Dipole Z            :         22.4389847          -23.1905678           -0.7515831
 Magnitude           :                                                    0.7873137
  Basis Set: (AUG-CC-PVTZ AUX)
    Blend: AUG-CC-PVTZ-RI + DEF2-QZVPP-RI
	 Reference Energy          =     -76.0580538383169795 [Eh]
	 Singles Energy            =      -0.0000000000000000 [Eh]
	 Same-Spin Energy          =      -0.0687202448989642 [Eh]
	 Opposite-Spin Energy      =      -0.2168896905594722 [Eh]
	 Correlation Energy        =      -0.2856099354584364 [Eh]
	 Total Energy              =     -76.3436637737754182 [Eh]

	 ================> DF-SCS-MP2 Energies <==================
	-----------------------------------------------------------
	 SCS Same-Spin Scale       =       0.3333333333333333 [-]
	 SCS Opposite-Spin Scale   =       1.2000000000000000 [-]
	 SCS Same-Spin Energy      =      -0.0229067482996547 [Eh]
	 SCS Opposite-Spin Energy  =      -0.2602676286713666 [Eh]
	 SCS Correlation Energy    =      -0.2831743769710213 [Eh]
	 SCS Total Energy          =     -76.3412282152879982 [Eh]
	-----------------------------------------------------------

*** Psi4 exiting successfully. Buy a developer a beer!
