                               Psi4 1.8.2 release

  ==> Input File <==

--------------------------------------------------------------------------
MEMORY 60 GB

molecule dimer {
1 1
Li         0.000000     0.000000     0.000000
Gh(O)     -0.572571     1.726043     0.455178
Gh(H)     -1.087826     2.378042     0.937786
Gh(H)      0.159044     2.237056     0.025785
Gh(O)      0.941273    -0.777166     1.652463
Gh(H)      0.784326    -1.744419     1.387688
Gh(H)      0.345499    -0.483212     2.382628
Gh(O)      1.123724     0.106542    -1.672682
Gh(H)      1.108221     0.674321    -2.471162
Gh(H)      1.738415    -0.641429    -2.005010
Gh(O)     -1.285911    -1.203424    -0.729095
Gh(H)     -1.453579    -1.473990    -1.654808
Gh(H)     -2.103778    -1.340655    -0.244827

units ang
no_reorient
no_com
symmetry c1
}

set {
basis        aug-cc-pVTZ
scf_type     df
}

energy("mp2")
--------------------------------------------------------------------------

    Molecular point group: c1

    Geometry (in Angstrom), charge = 1, multiplicity = 1:

       Center              X                  Y                   Z               Mass
    ------------   -----------------  -----------------  -----------------  -----------------
         LI           0.000000000000     0.000000000000     0.000000000000     7.016003436600
      Gh(O)          -0.572571000000     1.726043000000     0.455178000000    15.994914619570
      Gh(H)          -1.087826000000     2.378042000000     0.937786000000     1.007825032230
      Gh(H)           0.159044000000     2.237056000000     0.025785000000     1.007825032230
      Gh(O)           0.941273000000    -0.777166000000     1.652463000000    15.994914619570
      Gh(H)           0.784326000000    -1.744419000000     1.387688000000     1.007825032230
      Gh(H)           0.345499000000    -0.483212000000     2.382628000000     1.007825032230
      Gh(O)           1.123724000000     0.106542000000    -1.672682000000    15.994914619570
      Gh(H)           1.108221000000     0.674321000000    -2.471162000000     1.007825032230
      Gh(H)           1.738415000000    -0.641429000000    -2.005010000000     1.007825032230
      Gh(O)          -1.285911000000    -1.203424000000    -0.729095000000    15.994914619570
      Gh(H)          -1.453579000000    -1.473990000000    -1.654808000000     1.007825032230
      Gh(H)          -2.103778000000    -1.340655000000    -0.244827000000     1.007825032230

  Charge       = 1
  Multiplicity = 1
  Basis Set: AUG-CC-PVTZ
    Blend: AUG-CC-PVTZ
  Basis Set: (AUG-CC-PVTZ AUX)
    Blend: AUG-CC-PVTZ-JKFIT + DEF2-UNIVERSAL-JKFIT

    Orbital Energies [Eh]
    ---------------------

    Doubly Occupied:

       1A     -2.792352

  @DF-RHF Final Energy:    -7.23638490303479

   => Energetics <=

    Nuclear Repulsion Energy =              0.0000000000000000
    One-Electron Energy =                  -8.8880650639743415
    Two-Electron Energy =                   1.6516801609395504
    Total Energy =                         -7.2363849030347911
 Dipole X            :          0.0000016            0.0000000            0.0000016
 Dipole Y            :          0.0000033            0.0000000            0.0000033
 Dipole Z            :         -0.0000031            0.0000000           -0.0000031
 Magnitude           :                                                    0.0000048
  Basis Set: (AUG-CC-PVTZ AUX)
    Blend: AUG-CC-PVTZ-RI + DEF2-QZVPP-RI
	 Reference Energy          =      -7.2363849030347911 [Eh]
	 Singles Energy            =      -0.0000000000000000 [Eh]
	 Same-Spin Energy          =       0.0000000000000000 [Eh]
	 Opposite-Spin Energy      =      -0.0169307505623980 [Eh]
	 Correlation Energy        =      -0.0169307505623980 [Eh]
	 Total Energy              =      -7.2533156535971894 [Eh]

	 ================> DF-SCS-MP2 Energies <==================
	-----------------------------------------------------------
	 SCS Same-Spin Scale       =       0.3333333333333333 [-]
	 SCS Opposite-Spin Scale   =       1.2000000000000000 [-]
	 SCS Same-Spin Energy      =       0.0000000000000000 [Eh]
	 SCS Opposite-Spin Energy  =      -0.0203169006748776 [Eh]
	 SCS Correlation Energy    =      -0.0203169006748776 [Eh]
	 SCS Total Energy          =      -7.2567018037096691 [Eh]
	-----------------------------------------------------------

*** Psi4 exiting successfully. Buy a developer a beer!
