                               Psi4 1.8.2 release

  ==> Input File <==

--------------------------------------------------------------------------
MEMORY 60 GB

molecule dimer {
1 1
Li         0.000000     0.000000     0.000000
Gh(O)     -1.794227     0.878304     0.383152
Gh(H)     -2.284044     0.065626     0.360832
Gh(H)     -2.211283     1.348316    -0.381184
Gh(O)      0.587966    -1.606327     0.751206
Gh(H)      0.384051    -2.413930     0.275990
Gh(H)      1.532090    -1.679654     1.064559
Gh(O)      1.426308     1.329057     0.381484
Gh(H)      1.492507     1.221218     1.387216
Gh(H)      2.369890     1.360172     0.089581
Gh(O)     -0.005725    -0.582202    -1.970709
Gh(H)     -0.732065    -0.750880    -2.621085
Gh(H)      0.674197    -1.253645    -2.250473

units ang
no_reorient
no_com
symmetry c1
}

set {
basis        aug-cc-pVTZ
scf_type     df
}

energy("mp2")
--------------------------------------------------------------------------

    Molecular point group: c1

    Geometry (in Angstrom), charge = 1, multiplicity = 1:

       Center              X                  Y                   Z               Mass
    ------------   -----------------  -----------------  -----------------  -----------------
         LI           0.000000000000     0.000000000000     0.000000000000     7.016003436600
      Gh(O)          -1.794227000000     0.878304000000     0.383152000000    15.994914619570
      Gh(H)          -2.284044000000     0.065626000000     0.360832000000     1.007825032230
      Gh(H)          -2.211283000000     1.348316000000    -0.381184000000     1.007825032230
      Gh(O)           0.587966000000    -1.606327000000     0.751206000000    15.994914619570
      Gh(H)           0.384051000000    -2.413930000000     0.275990000000     1.007825032230
      Gh(H)           1.532090000000    -1.679654000000     1.064559000000     1.007825032230
      Gh(O)           1.426308000000     1.329057000000     0.381484000000    15.994914619570
      Gh(H)           1.492507000000     1.221218000000     1.387216000000     1.007825032230
      Gh(H)           2.369890000000     1.360172000000     0.089581000000     1.007825032230
      Gh(O)          -0.005725000000    -0.582202000000    -1.970709000000    15.994914619570
      Gh(H)          -0.732065000000    -0.750880000000    -2.621085000000     1.007825032230
      Gh(H)           0.674197000000    -1.253645000000    -2.250473000000     1.007825032230

  Charge       = 1
  Multiplicity = 1
  Basis Set: AUG-CC-PVTZ
    Blend: AUG-CC-PVTZ
  Basis Set: (AUG-CC-PVTZ AUX)
    Blend: AUG-CC-PVTZ-JKFIT + DEF2-UNIVERSAL-JKFIT

    Orbital Energies [Eh]
    ---------------------

    Doubly Occupied:

       1A     -2.792353

  @DF-RHF Final Energy:    -7.23638485263879

   => Energetics <=

    Nuclear Repulsion Energy =              0.0000000000000000
    One-Electron Energy =                  -8.8880627837805672
    Two-Electron Energy =                   1.6516779311417733
    Total Energy =                         -7.2363848526387944
 Dipole X            :         -0.0000024            0.0000000           -0.0000024
 Dipole Y            :          0.0000050            0.0000000            0.0000050
 Dipole Z            :         -0.0000087            0.0000000           -0.0000087
 Magnitude           :                                                    0.0000103
  Basis Set: (AUG-CC-PVTZ AUX)
    Blend: AUG-CC-PVTZ-RI + DEF2-QZVPP-RI
	 Reference Energy          =      -7.2363848526387944 [Eh]
	 Singles Energy            =      -0.0000000000000000 [Eh]
	 Same-Spin Energy          =       0.0000000000000000 [Eh]
	 Opposite-Spin Energy      =      -0.0167826412185240 [Eh]
	 Correlation Energy        =      -0.0167826412185240 [Eh]
	 Total Energy              =      -7.2531674938573181 [Eh]

	 ================> DF-SCS-MP2 Energies <==================
	-----------------------------------------------------------
	 SCS Same-Spin Scale       =       0.3333333333333333 [-]
	 SCS Opposite-Spin Scale   =       1.2000000000000000 [-]
	 SCS Same-Spin Energy      =       0.0000000000000000 [Eh]
	 SCS Opposite-Spin Energy  =      -0.0201391694622288 [Eh]
	 SCS Correlation Energy    =      -0.0201391694622288 [Eh]
	 SCS Total Energy          =      -7.2565240221010230 [Eh]
	-----------------------------------------------------------

*** Psi4 exiting successfully. Buy a developer a beer!
