                               Psi4 1.8.2 release

  ==> Input File <==

--------------------------------------------------------------------------
MEMORY 60 GB

molecule dimer {
0 1
Gh(Li)     0.000000     0.000000     0.000000
Gh(O)     -1.680746     0.276584    -0.524122
Gh(H)     -2.436906    -0.277091    -0.431906
Gh(H)     -1.899859     1.075426    -0.063132
Gh(O)     -0.071560    -1.420903     1.240510
Gh(H)     -0.473745    -2.213538     0.802591
Gh(H)     -0.780622    -1.152250     1.882048
O          0.700028     1.207376     1.195221
H          0.272867     1.039453     2.053918
H          0.629594     2.124003     0.978537
Gh(O)      1.186987    -0.149614    -1.450273
Gh(H)      1.341045     0.793609    -1.646914
Gh(H)      0.746015    -0.501685    -2.225984

units ang
no_reorient
no_com
symmetry c1
}

set {
basis        aug-cc-pVTZ
scf_type     df
}

energy("mp2")
--------------------------------------------------------------------------

    Molecular point group: c1

    Geometry (in Angstrom), charge = 0, multiplicity = 1:

       Center              X                  Y                   Z               Mass
    ------------   -----------------  -----------------  -----------------  -----------------
      Gh(LI)          0.000000000000     0.000000000000     0.000000000000     7.016003436600
      Gh(O)          -1.680746000000     0.276584000000    -0.524122000000    15.994914619570
      Gh(H)          -2.436906000000    -0.277091000000    -0.431906000000     1.007825032230
      Gh(H)          -1.899859000000     1.075426000000    -0.063132000000     1.007825032230
      Gh(O)          -0.071560000000    -1.420903000000     1.240510000000    15.994914619570
      Gh(H)          -0.473745000000    -2.213538000000     0.802591000000     1.007825032230
      Gh(H)          -0.780622000000    -1.152250000000     1.882048000000     1.007825032230
         O            0.700028000000     1.207376000000     1.195221000000    15.994914619570
         H            0.272867000000     1.039453000000     2.053918000000     1.007825032230
         H            0.629594000000     2.124003000000     0.978537000000     1.007825032230
      Gh(O)           1.186987000000    -0.149614000000    -1.450273000000    15.994914619570
      Gh(H)           1.341045000000     0.793609000000    -1.646914000000     1.007825032230
      Gh(H)           0.746015000000    -0.501685000000    -2.225984000000     1.007825032230

  Charge       = 0
  Multiplicity = 1
  Basis Set: AUG-CC-PVTZ
    Blend: AUG-CC-PVTZ
  Basis Set: (AUG-CC-PVTZ AUX)
    Blend: AUG-CC-PVTZ-JKFIT + DEF2-UNIVERSAL-JKFIT

    Orbital Energies [Eh]
    ---------------------

    Doubly Occupied:

       1A    -20.564874     2A     -1.349075     3A     -0.726423
       4A     -0.574354     5A     -0.508623

  @DF-RHF Final Energy:   -76.05983536231173

   => Energetics <=

    Nuclear Repulsion Energy =              9.1673949102574088
    One-Electron Energy =                -123.0077592498358854
    Two-Electron Energy =                  37.7805289772667408
    Total Energy =                        -76.0598353623117305
 Dipole X            :        -12.6230468           12.2882937           -0.3347530
 Dipole Y            :        -23.7226264           24.2309452            0.5083188
 Dipole Z            :        -23.3691477           23.7996322            0.4304845
 Magnitude           :                                                    0.7454961
  Basis Set: (AUG-CC-PVTZ AUX)
    Blend: AUG-CC-PVTZ-RI + DEF2-QZVPP-RI
	 Reference Energy          =     -76.0598353623117305 [Eh]
	 Singles Energy            =      -0.0000000000000000 [Eh]
	 Same-Spin Energy          =      -0.0684100079613566 [Eh]
	 Opposite-Spin Energy      =      -0.2160180273681902 [Eh]
	 Correlation Energy        =      -0.2844280353295469 [Eh]
	 Total Energy              =     -76.3442633976412708 [Eh]

	 ================> DF-SCS-MP2 Energies <==================
	-----------------------------------------------------------
	 SCS Same-Spin Scale       =       0.3333333333333333 [-]
	 SCS Opposite-Spin Scale   =       1.2000000000000000 [-]
	 SCS Same-Spin Energy      =      -0.0228033359871189 [Eh]
	 SCS Opposite-Spin Energy  =      -0.2592216328418283 [Eh]
	 SCS Correlation Energy    =      -0.2820249688289471 [Eh]
	 SCS Total Energy          =     -76.3418603311406798 [Eh]
	-----------------------------------------------------------

*** Psi4 exiting successfully. Buy a developer a beer!
