                               Psi4 1.8.2 release

  ==> Input File <==

--------------------------------------------------------------------------
MEMORY 60 GB

molecule dimer {
0 1
Gh(Li)     0.000000     0.000000     0.000000
Gh(O)      1.624676     0.930347    -0.687789
Gh(H)      1.665506     1.787976    -0.163954
Gh(H)      2.371292     0.410789    -0.401384
Gh(O)      1.173391    -1.680161    -0.212338
Gh(H)      2.036435    -1.610877    -0.690179
Gh(H)      0.993748    -2.598798    -0.378489
O         -1.459926     0.080801    -0.837685
H         -1.519684     0.169931    -1.784495
H         -2.009970    -0.641099    -0.565310
Gh(O)     -0.236587    -0.097317     1.963066
Gh(H)      0.470180    -0.606954     2.365849
Gh(H)     -0.104803     0.790192     2.342656

units ang
no_reorient
no_com
symmetry c1
}

set {
basis        aug-cc-pVTZ
scf_type     df
}

energy("mp2")
--------------------------------------------------------------------------

    Molecular point group: c1

    Geometry (in Angstrom), charge = 0, multiplicity = 1:

       Center              X                  Y                   Z               Mass
    ------------   -----------------  -----------------  -----------------  -----------------
      Gh(LI)          0.000000000000     0.000000000000     0.000000000000     7.016003436600
      Gh(O)           1.624676000000     0.930347000000    -0.687789000000    15.994914619570
      Gh(H)           1.665506000000     1.787976000000    -0.163954000000     1.007825032230
      Gh(H)           2.371292000000     0.410789000000    -0.401384000000     1.007825032230
      Gh(O)           1.173391000000    -1.680161000000    -0.212338000000    15.994914619570
      Gh(H)           2.036435000000    -1.610877000000    -0.690179000000     1.007825032230
      Gh(H)           0.993748000000    -2.598798000000    -0.378489000000     1.007825032230
         O           -1.459926000000     0.080801000000    -0.837685000000    15.994914619570
         H           -1.519684000000     0.169931000000    -1.784495000000     1.007825032230
         H           -2.009970000000    -0.641099000000    -0.565310000000     1.007825032230
      Gh(O)          -0.236587000000    -0.097317000000     1.963066000000    15.994914619570
      Gh(H)           0.470180000000    -0.606954000000     2.365849000000     1.007825032230
      Gh(H)          -0.104803000000     0.790192000000     2.342656000000     1.007825032230

  Charge       = 0
  Multiplicity = 1
  Basis Set: AUG-CC-PVTZ
    Blend: AUG-CC-PVTZ
  Basis Set: (AUG-CC-PVTZ AUX)
    Blend: AUG-CC-PVTZ-JKFIT + DEF2-UNIVERSAL-JKFIT

    Orbital Energies [Eh]
    ---------------------

    Doubly Occupied:

       1A    -20.563850     2A     -1.354143     3A     -0.729609
       4A     -0.578011     5A     -0.509685

  @DF-RHF Final Energy:   -76.06095655328670

   => Energetics <=

    Nuclear Repulsion Energy =              9.2531745905888485
    One-Electron Energy =                -123.1576629868945645
    Two-Electron Energy =                  37.8435318430190080
    Total Energy =                        -76.0609565532867009
 Dipole X            :         28.3279530          -28.7409618           -0.4130088
 Dipole Y            :         -0.7595807            0.3311556           -0.4284251
 Dipole Z            :         16.6487661          -17.1044497           -0.4556836
 Magnitude           :                                                    0.7495144
  Basis Set: (AUG-CC-PVTZ AUX)
    Blend: AUG-CC-PVTZ-RI + DEF2-QZVPP-RI
	 Reference Energy          =     -76.0609565532867009 [Eh]
	 Singles Energy            =      -0.0000000000000000 [Eh]
	 Same-Spin Energy          =      -0.0682643416226246 [Eh]
	 Opposite-Spin Energy      =      -0.2155510101535347 [Eh]
	 Correlation Energy        =      -0.2838153517761593 [Eh]
	 Total Energy              =     -76.3447719050628564 [Eh]

	 ================> DF-SCS-MP2 Energies <==================
	-----------------------------------------------------------
	 SCS Same-Spin Scale       =       0.3333333333333333 [-]
	 SCS Opposite-Spin Scale   =       1.2000000000000000 [-]
	 SCS Same-Spin Energy      =      -0.0227547805408749 [Eh]
	 SCS Opposite-Spin Energy  =      -0.2586612121842417 [Eh]
	 SCS Correlation Energy    =      -0.2814159927251165 [Eh]
	 SCS Total Energy          =     -76.3423725460118163 [Eh]
	-----------------------------------------------------------

*** Psi4 exiting successfully. Buy a developer a beer!
