                               Psi4 1.8.2 release

  ==> Input File <==

--------------------------------------------------------------------------
MEMORY 60 GB

molecule dimer {
1 1
Li         0.000000     0.000000     0.000000
O         -0.877901    -0.669804    -1.764505
H         -0.604585    -0.141250    -2.476090
H         -0.318802    -1.470888    -1.866124
O         -0.675625    -0.903094     1.504513
H         -1.561938    -0.688831     1.846484
H         -0.636237    -1.802238     1.249660
O         -0.291915     1.880346     0.276855
H         -0.395520     2.489150    -0.423060
H         -0.773999     2.031365     1.070741
O          1.738779    -0.892995    -0.171427
H          1.936336    -1.888660    -0.006936
H          2.351816    -0.434925     0.435878

units ang
no_reorient
no_com
symmetry c1
}

set {
basis        aug-cc-pVTZ
scf_type     df
}

energy("mp2")
--------------------------------------------------------------------------

    Molecular point group: c1

    Geometry (in Angstrom), charge = 1, multiplicity = 1:

       Center              X                  Y                   Z               Mass
    ------------   -----------------  -----------------  -----------------  -----------------
         LI           0.000000000000     0.000000000000     0.000000000000     7.016003436600
         O           -0.877901000000    -0.669804000000    -1.764505000000    15.994914619570
         H           -0.604585000000    -0.141250000000    -2.476090000000     1.007825032230
         H           -0.318802000000    -1.470888000000    -1.866124000000     1.007825032230
         O           -0.675625000000    -0.903094000000     1.504513000000    15.994914619570
         H           -1.561938000000    -0.688831000000     1.846484000000     1.007825032230
         H           -0.636237000000    -1.802238000000     1.249660000000     1.007825032230
         O           -0.291915000000     1.880346000000     0.276855000000    15.994914619570
         H           -0.395520000000     2.489150000000    -0.423060000000     1.007825032230
         H           -0.773999000000     2.031365000000     1.070741000000     1.007825032230
         O            1.738779000000    -0.892995000000    -0.171427000000    15.994914619570
         H            1.936336000000    -1.888660000000    -0.006936000000     1.007825032230
         H            2.351816000000    -0.434925000000     0.435878000000     1.007825032230

  Charge       = 1
  Multiplicity = 1
  Basis Set: AUG-CC-PVTZ
    Blend: AUG-CC-PVTZ
  Basis Set: (AUG-CC-PVTZ AUX)
    Blend: AUG-CC-PVTZ-JKFIT + DEF2-UNIVERSAL-JKFIT

    Orbital Energies [Eh]
    ---------------------

    Doubly Occupied:

       1A    -20.763786     2A    -20.755306     3A    -20.745819
       4A    -20.743385     5A     -2.537713     6A     -1.550886
       7A     -1.547553     8A     -1.537382     9A     -1.528558
      10A     -0.944782    11A     -0.925770    12A     -0.895409
      13A     -0.884324    14A     -0.793725    15A     -0.786830
      16A     -0.776057    17A     -0.771447    18A     -0.714655
      19A     -0.706966    20A     -0.702836    21A     -0.694648

  @DF-RHF Final Energy:  -311.61378119215829

   => Energetics <=

    Nuclear Repulsion Energy =            163.6171992106860387
    One-Electron Energy =                -747.8462798280852439
    Two-Electron Energy =                 272.6152994252408917
    Total Energy =                       -311.6137811921582852
 Dipole X            :          1.7283961           -1.6180308            0.1103654
 Dipole Y            :         11.9520500          -12.4545292           -0.5024792
 Dipole Z            :          2.7921176           -2.6568775            0.1352401
 Magnitude           :                                                    0.5319358
  Basis Set: (AUG-CC-PVTZ AUX)
    Blend: AUG-CC-PVTZ-RI + DEF2-QZVPP-RI
	 Reference Energy          =    -311.6137811921582852 [Eh]
	 Singles Energy            =      -0.0000000000000000 [Eh]
	 Same-Spin Energy          =      -0.2754545129865192 [Eh]
	 Opposite-Spin Energy      =      -0.8783171003929847 [Eh]
	 Correlation Energy        =      -1.1537716133795040 [Eh]
	 Total Energy              =    -312.7675528055377754 [Eh]

	 ================> DF-SCS-MP2 Energies <==================
	-----------------------------------------------------------
	 SCS Same-Spin Scale       =       0.3333333333333333 [-]
	 SCS Opposite-Spin Scale   =       1.2000000000000000 [-]
	 SCS Same-Spin Energy      =      -0.0918181709955064 [Eh]
	 SCS Opposite-Spin Energy  =      -1.0539805204715815 [Eh]
	 SCS Correlation Energy    =      -1.1457986914670879 [Eh]
	 SCS Total Energy          =    -312.7595798836253493 [Eh]
	-----------------------------------------------------------

*** Psi4 exiting successfully. Buy a developer a beer!
