                               Psi4 1.8.2 release

  ==> Input File <==

--------------------------------------------------------------------------
MEMORY 60 GB

molecule dimer {
0 1
Gh(Li)     0.000000     0.000000     0.000000
O          1.299347     0.956897     0.998050
H          1.806091     0.778889     1.791766
H          1.907700     1.397453     0.354713
Gh(O)      0.788217    -1.762217    -0.333958
Gh(H)      1.729744    -1.520162    -0.415695
Gh(H)      0.651676    -2.440430    -1.018478
Gh(O)     -0.077999     0.850460    -1.769933
Gh(H)     -0.317966     0.168123    -2.426238
Gh(H)      0.304412     1.595957    -2.317515
Gh(O)     -1.921903    -0.461436     0.503499
Gh(H)     -1.892553    -1.068522     1.298601
Gh(H)     -2.648587     0.212851     0.631248

units ang
no_reorient
no_com
symmetry c1
}

set {
basis        aug-cc-pVTZ
scf_type     df
}

energy("mp2")
--------------------------------------------------------------------------

    Molecular point group: c1

    Geometry (in Angstrom), charge = 0, multiplicity = 1:

       Center              X                  Y                   Z               Mass
    ------------   -----------------  -----------------  -----------------  -----------------
      Gh(LI)          0.000000000000     0.000000000000     0.000000000000     7.016003436600
         O            1.299347000000     0.956897000000     0.998050000000    15.994914619570
         H            1.806091000000     0.778889000000     1.791766000000     1.007825032230
         H            1.907700000000     1.397453000000     0.354713000000     1.007825032230
      Gh(O)           0.788217000000    -1.762217000000    -0.333958000000    15.994914619570
      Gh(H)           1.729744000000    -1.520162000000    -0.415695000000     1.007825032230
      Gh(H)           0.651676000000    -2.440430000000    -1.018478000000     1.007825032230
      Gh(O)          -0.077999000000     0.850460000000    -1.769933000000    15.994914619570
      Gh(H)          -0.317966000000     0.168123000000    -2.426238000000     1.007825032230
      Gh(H)           0.304412000000     1.595957000000    -2.317515000000     1.007825032230
      Gh(O)          -1.921903000000    -0.461436000000     0.503499000000    15.994914619570
      Gh(H)          -1.892553000000    -1.068522000000     1.298601000000     1.007825032230
      Gh(H)          -2.648587000000     0.212851000000     0.631248000000     1.007825032230

  Charge       = 0
  Multiplicity = 1
  Basis Set: AUG-CC-PVTZ
    Blend: AUG-CC-PVTZ
  Basis Set: (AUG-CC-PVTZ AUX)
    Blend: AUG-CC-PVTZ-JKFIT + DEF2-UNIVERSAL-JKFIT

    Orbital Energies [Eh]
    ---------------------

    Doubly Occupied:

       1A    -20.568531     2A     -1.343475     3A     -0.713877
       4A     -0.576353     5A     -0.508161

  @DF-RHF Final Energy:   -76.05864825538202

   => Energetics <=

    Nuclear Repulsion Energy =              9.0354867535518757
    One-Electron Energy =                -122.7674733283618735
    Two-Electron Energy =                  37.6733383194279696
    Total Energy =                        -76.0586482553820247
 Dipole X            :        -25.9216462           26.6613277            0.7396814
 Dipole Y            :        -18.4065183           18.5788764            0.1723581
 Dipole Z            :        -19.0402431           19.1445867            0.1043436
 Magnitude           :                                                    0.7666313
  Basis Set: (AUG-CC-PVTZ AUX)
    Blend: AUG-CC-PVTZ-RI + DEF2-QZVPP-RI
	 Reference Energy          =     -76.0586482553820247 [Eh]
	 Singles Energy            =      -0.0000000000000000 [Eh]
	 Same-Spin Energy          =      -0.0686697183055107 [Eh]
	 Opposite-Spin Energy      =      -0.2167437567177815 [Eh]
	 Correlation Energy        =      -0.2854134750232922 [Eh]
	 Total Energy              =     -76.3440617304053148 [Eh]

	 ================> DF-SCS-MP2 Energies <==================
	-----------------------------------------------------------
	 SCS Same-Spin Scale       =       0.3333333333333333 [-]
	 SCS Opposite-Spin Scale   =       1.2000000000000000 [-]
	 SCS Same-Spin Energy      =      -0.0228899061018369 [Eh]
	 SCS Opposite-Spin Energy  =      -0.2600925080613378 [Eh]
	 SCS Correlation Energy    =      -0.2829824141631747 [Eh]
	 SCS Total Energy          =     -76.3416306695451965 [Eh]
	-----------------------------------------------------------

*** Psi4 exiting successfully. Buy a developer a beer!
