                               Psi4 1.8.2 release

  ==> Input File <==

--------------------------------------------------------------------------
MEMORY 60 GB

molecule dimer {
0 1
Gh(Li)     0.000000     0.000000     0.000000
Gh(O)      0.647883     0.164741    -1.949481
Gh(H)      0.795272    -0.525507    -2.602115
Gh(H)      0.457108     1.105193    -2.354509
Gh(O)     -0.976045     1.405748     0.625342
Gh(H)     -0.496767     2.104540     1.009624
Gh(H)     -1.582079     1.799875     0.027250
Gh(O)     -1.260034    -1.585226     0.021824
Gh(H)     -0.751180    -2.408299    -0.156525
Gh(H)     -2.038513    -1.751498    -0.490334
O          1.554816    -0.718133     0.753645
H          1.658146    -1.557676     1.200674
H          2.157510    -0.074449     1.263032

units ang
no_reorient
no_com
symmetry c1
}

set {
basis        aug-cc-pVTZ
scf_type     df
}

energy("mp2")
--------------------------------------------------------------------------

    Molecular point group: c1

    Geometry (in Angstrom), charge = 0, multiplicity = 1:

       Center              X                  Y                   Z               Mass
    ------------   -----------------  -----------------  -----------------  -----------------
      Gh(LI)          0.000000000000     0.000000000000     0.000000000000     7.016003436600
      Gh(O)           0.647883000000     0.164741000000    -1.949481000000    15.994914619570
      Gh(H)           0.795272000000    -0.525507000000    -2.602115000000     1.007825032230
      Gh(H)           0.457108000000     1.105193000000    -2.354509000000     1.007825032230
      Gh(O)          -0.976045000000     1.405748000000     0.625342000000    15.994914619570
      Gh(H)          -0.496767000000     2.104540000000     1.009624000000     1.007825032230
      Gh(H)          -1.582079000000     1.799875000000     0.027250000000     1.007825032230
      Gh(O)          -1.260034000000    -1.585226000000     0.021824000000    15.994914619570
      Gh(H)          -0.751180000000    -2.408299000000    -0.156525000000     1.007825032230
      Gh(H)          -2.038513000000    -1.751498000000    -0.490334000000     1.007825032230
         O            1.554816000000    -0.718133000000     0.753645000000    15.994914619570
         H            1.658146000000    -1.557676000000     1.200674000000     1.007825032230
         H            2.157510000000    -0.074449000000     1.263032000000     1.007825032230

  Charge       = 0
  Multiplicity = 1
  Basis Set: AUG-CC-PVTZ
    Blend: AUG-CC-PVTZ
  Basis Set: (AUG-CC-PVTZ AUX)
    Blend: AUG-CC-PVTZ-JKFIT + DEF2-UNIVERSAL-JKFIT

    Orbital Energies [Eh]
    ---------------------

    Doubly Occupied:

       1A    -20.571814     2A     -1.338947     3A     -0.702469
       4A     -0.577929     5A     -0.507857

  @DF-RHF Final Energy:   -76.05552609719341

   => Energetics <=

    Nuclear Repulsion Energy =              8.9198293757279750
    One-Electron Energy =                -122.5526757950657242
    Two-Electron Energy =                  37.5773203221443453
    Total Energy =                        -76.0555260971934075
 Dipole X            :        -30.2577861           30.7159562            0.4581700
 Dipole Y            :         13.8028568          -13.9408668           -0.1380099
 Dipole Z            :        -15.4247013           16.0491908            0.6244895
 Magnitude           :                                                    0.7867360
  Basis Set: (AUG-CC-PVTZ AUX)
    Blend: AUG-CC-PVTZ-RI + DEF2-QZVPP-RI
	 Reference Energy          =     -76.0555260971934075 [Eh]
	 Singles Energy            =      -0.0000000000000000 [Eh]
	 Same-Spin Energy          =      -0.0689374249274950 [Eh]
	 Opposite-Spin Energy      =      -0.2176429930289125 [Eh]
	 Correlation Energy        =      -0.2865804179564075 [Eh]
	 Total Energy              =     -76.3421065151498084 [Eh]

	 ================> DF-SCS-MP2 Energies <==================
	-----------------------------------------------------------
	 SCS Same-Spin Scale       =       0.3333333333333333 [-]
	 SCS Opposite-Spin Scale   =       1.2000000000000000 [-]
	 SCS Same-Spin Energy      =      -0.0229791416424983 [Eh]
	 SCS Opposite-Spin Energy  =      -0.2611715916346950 [Eh]
	 SCS Correlation Energy    =      -0.2841507332771933 [Eh]
	 SCS Total Energy          =     -76.3396768304705944 [Eh]
	-----------------------------------------------------------

*** Psi4 exiting successfully. Buy a developer a beer!
