                               Psi4 1.8.2 release

  ==> Input File <==

--------------------------------------------------------------------------
MEMORY 60 GB

molecule dimer {
0 1
Gh(Li)     0.000000     0.000000     0.000000
Gh(O)      0.266584     0.944052    -1.709450
Gh(H)      0.979641     0.533414    -2.222257
Gh(H)      0.507280     1.865020    -1.611472
O          1.380118    -0.496219     0.894533
H          1.295780    -0.523941     1.838069
H          1.512954    -1.400379     0.559638
Gh(O)     -1.093945     1.554286     0.618531
Gh(H)     -1.031922     1.943137     1.492156
Gh(H)     -1.412017     2.309903     0.160618
Gh(O)     -1.327662    -1.629141    -0.158356
Gh(H)     -2.193596    -1.227361    -0.264880
Gh(H)     -1.324595    -2.080127     0.693064

units ang
no_reorient
no_com
symmetry c1
}

set {
basis        aug-cc-pVTZ
scf_type     df
}

energy("mp2")
--------------------------------------------------------------------------

    Molecular point group: c1

    Geometry (in Angstrom), charge = 0, multiplicity = 1:

       Center              X                  Y                   Z               Mass
    ------------   -----------------  -----------------  -----------------  -----------------
      Gh(LI)          0.000000000000     0.000000000000     0.000000000000     7.016003436600
      Gh(O)           0.266584000000     0.944052000000    -1.709450000000    15.994914619570
      Gh(H)           0.979641000000     0.533414000000    -2.222257000000     1.007825032230
      Gh(H)           0.507280000000     1.865020000000    -1.611472000000     1.007825032230
         O            1.380118000000    -0.496219000000     0.894533000000    15.994914619570
         H            1.295780000000    -0.523941000000     1.838069000000     1.007825032230
         H            1.512954000000    -1.400379000000     0.559638000000     1.007825032230
      Gh(O)          -1.093945000000     1.554286000000     0.618531000000    15.994914619570
      Gh(H)          -1.031922000000     1.943137000000     1.492156000000     1.007825032230
      Gh(H)          -1.412017000000     2.309903000000     0.160618000000     1.007825032230
      Gh(O)          -1.327662000000    -1.629141000000    -0.158356000000    15.994914619570
      Gh(H)          -2.193596000000    -1.227361000000    -0.264880000000     1.007825032230
      Gh(H)          -1.324595000000    -2.080127000000     0.693064000000     1.007825032230

  Charge       = 0
  Multiplicity = 1
  Basis Set: AUG-CC-PVTZ
    Blend: AUG-CC-PVTZ
  Basis Set: (AUG-CC-PVTZ AUX)
    Blend: AUG-CC-PVTZ-JKFIT + DEF2-UNIVERSAL-JKFIT

    Orbital Energies [Eh]
    ---------------------

    Doubly Occupied:

       1A    -20.565395     2A     -1.348709     3A     -0.724583
       4A     -0.575208     5A     -0.508680

  @DF-RHF Final Energy:   -76.05991830403440

   => Energetics <=

    Nuclear Repulsion Energy =              9.1546964138178577
    One-Electron Energy =                -122.9840776337876207
    Two-Electron Energy =                  37.7694629159353639
    Total Energy =                        -76.0599183040343974
 Dipole X            :        -26.1398042           26.1720983            0.0322941
 Dipole Y            :         10.5130796          -11.1381818           -0.6251023
 Dipole Z            :        -17.6415365           18.0543886            0.4128521
 Magnitude           :                                                    0.7498284
  Basis Set: (AUG-CC-PVTZ AUX)
    Blend: AUG-CC-PVTZ-RI + DEF2-QZVPP-RI
	 Reference Energy          =     -76.0599183040343974 [Eh]
	 Singles Energy            =      -0.0000000000000000 [Eh]
	 Same-Spin Energy          =      -0.0684404324687055 [Eh]
	 Opposite-Spin Energy      =      -0.2160994676458321 [Eh]
	 Correlation Energy        =      -0.2845399001145377 [Eh]
	 Total Energy              =     -76.3444582041489355 [Eh]

	 ================> DF-SCS-MP2 Energies <==================
	-----------------------------------------------------------
	 SCS Same-Spin Scale       =       0.3333333333333333 [-]
	 SCS Opposite-Spin Scale   =       1.2000000000000000 [-]
	 SCS Same-Spin Energy      =      -0.0228134774895685 [Eh]
	 SCS Opposite-Spin Energy  =      -0.2593193611749985 [Eh]
	 SCS Correlation Energy    =      -0.2821328386645671 [Eh]
	 SCS Total Energy          =     -76.3420511426989634 [Eh]
	-----------------------------------------------------------

*** Psi4 exiting successfully. Buy a developer a beer!
