                               Psi4 1.8.2 release

  ==> Input File <==

--------------------------------------------------------------------------
MEMORY 60 GB

molecule dimer {
0 1
Gh(Li)     0.000000     0.000000     0.000000
Gh(O)     -0.979497     1.661715    -0.383017
Gh(H)     -1.942918     1.715495    -0.206976
Gh(H)     -0.939941     1.583322    -1.344780
Gh(O)     -0.874120    -1.338989    -0.808144
Gh(H)     -1.695116    -1.751423    -0.533523
Gh(H)     -0.327135    -2.063220    -1.130349
Gh(O)      0.608715     0.248553     1.781960
Gh(H)      1.153588     0.893218     2.259355
Gh(H)     -0.175350     0.061724     2.297094
O          1.616898    -0.021797    -1.057657
H          1.564752    -0.251149    -1.971527
H          2.506419    -0.320433    -0.827794

units ang
no_reorient
no_com
symmetry c1
}

set {
basis        aug-cc-pVTZ
scf_type     df
}

energy("mp2")
--------------------------------------------------------------------------

    Molecular point group: c1

    Geometry (in Angstrom), charge = 0, multiplicity = 1:

       Center              X                  Y                   Z               Mass
    ------------   -----------------  -----------------  -----------------  -----------------
      Gh(LI)          0.000000000000     0.000000000000     0.000000000000     7.016003436600
      Gh(O)          -0.979497000000     1.661715000000    -0.383017000000    15.994914619570
      Gh(H)          -1.942918000000     1.715495000000    -0.206976000000     1.007825032230
      Gh(H)          -0.939941000000     1.583322000000    -1.344780000000     1.007825032230
      Gh(O)          -0.874120000000    -1.338989000000    -0.808144000000    15.994914619570
      Gh(H)          -1.695116000000    -1.751423000000    -0.533523000000     1.007825032230
      Gh(H)          -0.327135000000    -2.063220000000    -1.130349000000     1.007825032230
      Gh(O)           0.608715000000     0.248553000000     1.781960000000    15.994914619570
      Gh(H)           1.153588000000     0.893218000000     2.259355000000     1.007825032230
      Gh(H)          -0.175350000000     0.061724000000     2.297094000000     1.007825032230
         O            1.616898000000    -0.021797000000    -1.057657000000    15.994914619570
         H            1.564752000000    -0.251149000000    -1.971527000000     1.007825032230
         H            2.506419000000    -0.320433000000    -0.827794000000     1.007825032230

  Charge       = 0
  Multiplicity = 1
  Basis Set: AUG-CC-PVTZ
    Blend: AUG-CC-PVTZ
  Basis Set: (AUG-CC-PVTZ AUX)
    Blend: AUG-CC-PVTZ-JKFIT + DEF2-UNIVERSAL-JKFIT

    Orbital Energies [Eh]
    ---------------------

    Doubly Occupied:

       1A    -20.567605     2A     -1.356742     3A     -0.713856
       4A     -0.590395     5A     -0.511269

  @DF-RHF Final Energy:   -76.06027902839566

   => Energetics <=

    Nuclear Repulsion Energy =              9.2251597965029095
    One-Electron Energy =                -123.0911400406223493
    Two-Electron Energy =                  37.8057012157237864
    Total Energy =                        -76.0602790283956551
 Dipole X            :        -31.5864618           32.1373533            0.5508915
 Dipole Y            :          1.0610126           -1.4096563           -0.3486437
 Dipole Z            :         20.8240290          -21.2794065           -0.4553776
 Magnitude           :                                                    0.7952375
  Basis Set: (AUG-CC-PVTZ AUX)
    Blend: AUG-CC-PVTZ-RI + DEF2-QZVPP-RI
	 Reference Energy          =     -76.0602790283956551 [Eh]
	 Singles Energy            =      -0.0000000000000000 [Eh]
	 Same-Spin Energy          =      -0.0684442731443360 [Eh]
	 Opposite-Spin Energy      =      -0.2160200062663286 [Eh]
	 Correlation Energy        =      -0.2844642794106646 [Eh]
	 Total Energy              =     -76.3447433078063256 [Eh]

	 ================> DF-SCS-MP2 Energies <==================
	-----------------------------------------------------------
	 SCS Same-Spin Scale       =       0.3333333333333333 [-]
	 SCS Opposite-Spin Scale   =       1.2000000000000000 [-]
	 SCS Same-Spin Energy      =      -0.0228147577147787 [Eh]
	 SCS Opposite-Spin Energy  =      -0.2592240075195943 [Eh]
	 SCS Correlation Energy    =      -0.2820387652343730 [Eh]
	 SCS Total Energy          =     -76.3423177936300306 [Eh]
	-----------------------------------------------------------

*** Psi4 exiting successfully. Buy a developer a beer!
