                               Psi4 1.8.2 release

  ==> Input File <==

--------------------------------------------------------------------------
MEMORY 60 GB

molecule dimer {
0 1
Gh(Li)     0.000000     0.000000     0.000000
Gh(O)      1.056062    -1.621139     0.605492
Gh(H)      0.657898    -1.924066     1.466835
Gh(H)      0.678270    -2.222927    -0.068093
Gh(O)     -1.664286    -1.351635    -0.323212
Gh(H)     -2.097255    -1.625415     0.520939
Gh(H)     -1.181759    -2.115258    -0.708871
Gh(O)      1.307126     0.723288    -1.076590
Gh(H)      1.447275     1.658691    -1.070913
Gh(H)      1.155631     0.530295    -2.029499
O         -0.786428     0.739205     1.471793
H         -1.448992     0.238338     1.921415
H         -1.179357     1.636730     1.603301

units ang
no_reorient
no_com
symmetry c1
}

set {
basis        aug-cc-pVTZ
scf_type     df
}

energy("mp2")
--------------------------------------------------------------------------

    Molecular point group: c1

    Geometry (in Angstrom), charge = 0, multiplicity = 1:

       Center              X                  Y                   Z               Mass
    ------------   -----------------  -----------------  -----------------  -----------------
      Gh(LI)          0.000000000000     0.000000000000     0.000000000000     7.016003436600
      Gh(O)           1.056062000000    -1.621139000000     0.605492000000    15.994914619570
      Gh(H)           0.657898000000    -1.924066000000     1.466835000000     1.007825032230
      Gh(H)           0.678270000000    -2.222927000000    -0.068093000000     1.007825032230
      Gh(O)          -1.664286000000    -1.351635000000    -0.323212000000    15.994914619570
      Gh(H)          -2.097255000000    -1.625415000000     0.520939000000     1.007825032230
      Gh(H)          -1.181759000000    -2.115258000000    -0.708871000000     1.007825032230
      Gh(O)           1.307126000000     0.723288000000    -1.076590000000    15.994914619570
      Gh(H)           1.447275000000     1.658691000000    -1.070913000000     1.007825032230
      Gh(H)           1.155631000000     0.530295000000    -2.029499000000     1.007825032230
         O           -0.786428000000     0.739205000000     1.471793000000    15.994914619570
         H           -1.448992000000     0.238338000000     1.921415000000     1.007825032230
         H           -1.179357000000     1.636730000000     1.603301000000     1.007825032230

  Charge       = 0
  Multiplicity = 1
  Basis Set: AUG-CC-PVTZ
    Blend: AUG-CC-PVTZ
  Basis Set: (AUG-CC-PVTZ AUX)
    Blend: AUG-CC-PVTZ-JKFIT + DEF2-UNIVERSAL-JKFIT

    Orbital Energies [Eh]
    ---------------------

    Doubly Occupied:

       1A    -20.571229     2A     -1.353934     3A     -0.699916
       4A     -0.595628     5A     -0.511475

  @DF-RHF Final Energy:   -76.05761405483454

   => Energetics <=

    Nuclear Repulsion Energy =              9.1274056192297834
    One-Electron Energy =                -122.9056722672391686
    Two-Electron Energy =                  37.7206525931748402
    Total Energy =                        -76.0576140548345450
 Dipole X            :         16.1688551          -16.8559281           -0.6870730
 Dipole Y            :        -14.4695148           14.7185250            0.2490102
 Dipole Z            :        -28.5314899           28.9110334            0.3795435
 Magnitude           :                                                    0.8234856
  Basis Set: (AUG-CC-PVTZ AUX)
    Blend: AUG-CC-PVTZ-RI + DEF2-QZVPP-RI
	 Reference Energy          =     -76.0576140548345450 [Eh]
	 Singles Energy            =      -0.0000000000000000 [Eh]
	 Same-Spin Energy          =      -0.0687653192195314 [Eh]
	 Opposite-Spin Energy      =      -0.2169934452640222 [Eh]
	 Correlation Energy        =      -0.2857587644835536 [Eh]
	 Total Energy              =     -76.3433728193181054 [Eh]

	 ================> DF-SCS-MP2 Energies <==================
	-----------------------------------------------------------
	 SCS Same-Spin Scale       =       0.3333333333333333 [-]
	 SCS Opposite-Spin Scale   =       1.2000000000000000 [-]
	 SCS Same-Spin Energy      =      -0.0229217730731771 [Eh]
	 SCS Opposite-Spin Energy  =      -0.2603921343168266 [Eh]
	 SCS Correlation Energy    =      -0.2833139073900038 [Eh]
	 SCS Total Energy          =     -76.3409279622245549 [Eh]
	-----------------------------------------------------------

*** Psi4 exiting successfully. Buy a developer a beer!
