                               Psi4 1.8.2 release

  ==> Input File <==

--------------------------------------------------------------------------
MEMORY 60 GB

molecule dimer {
1 1
Li         0.000000     0.000000     0.000000
O         -0.727283     0.314785     1.727344
H         -1.654172     0.224618     1.375025
H         -0.529874    -0.561861     2.080328
O          2.025004     0.493240     0.043276
H          2.399730     1.368867     0.126067
H          2.753158    -0.052861    -0.386141
O         -0.799008     1.568141    -0.789295
H         -1.113890     2.383029    -0.292064
H         -1.171737     1.638519    -1.664769
O         -0.598285    -1.751833    -0.349378
H          0.061024    -2.131900    -0.949506
H         -1.462483    -2.009864    -0.695588

units ang
no_reorient
no_com
symmetry c1
}

set {
basis        aug-cc-pVTZ
scf_type     df
}

energy("mp2")
--------------------------------------------------------------------------

    Molecular point group: c1

    Geometry (in Angstrom), charge = 1, multiplicity = 1:

       Center              X                  Y                   Z               Mass
    ------------   -----------------  -----------------  -----------------  -----------------
         LI           0.000000000000     0.000000000000     0.000000000000     7.016003436600
         O           -0.727283000000     0.314785000000     1.727344000000    15.994914619570
         H           -1.654172000000     0.224618000000     1.375025000000     1.007825032230
         H           -0.529874000000    -0.561861000000     2.080328000000     1.007825032230
         O            2.025004000000     0.493240000000     0.043276000000    15.994914619570
         H            2.399730000000     1.368867000000     0.126067000000     1.007825032230
         H            2.753158000000    -0.052861000000    -0.386141000000     1.007825032230
         O           -0.799008000000     1.568141000000    -0.789295000000    15.994914619570
         H           -1.113890000000     2.383029000000    -0.292064000000     1.007825032230
         H           -1.171737000000     1.638519000000    -1.664769000000     1.007825032230
         O           -0.598285000000    -1.751833000000    -0.349378000000    15.994914619570
         H            0.061024000000    -2.131900000000    -0.949506000000     1.007825032230
         H           -1.462483000000    -2.009864000000    -0.695588000000     1.007825032230

  Charge       = 1
  Multiplicity = 1
  Basis Set: AUG-CC-PVTZ
    Blend: AUG-CC-PVTZ
  Basis Set: (AUG-CC-PVTZ AUX)
    Blend: AUG-CC-PVTZ-JKFIT + DEF2-UNIVERSAL-JKFIT

    Orbital Energies [Eh]
    ---------------------

    Doubly Occupied:

       1A    -20.769964     2A    -20.752475     3A    -20.741829
       4A    -20.740104     5A     -2.537245     6A     -1.556704
       7A     -1.532010     8A     -1.521902     9A     -1.514726
      10A     -0.922210    11A     -0.897241    12A     -0.877688
      13A     -0.876034    14A     -0.808715    15A     -0.792667
      16A     -0.769350    17A     -0.756525    18A     -0.723626
      19A     -0.705117    20A     -0.690408    21A     -0.681142

  @DF-RHF Final Energy:  -311.61428827184466

   => Energetics <=

    Nuclear Repulsion Energy =            163.8395535739400373
    One-Electron Energy =                -748.5723221460201557
    Two-Electron Energy =                 273.1184803002354329
    Total Energy =                       -311.6142882718446572
 Dipole X            :          2.4892169           -2.8625949           -0.3733780
 Dipole Y            :        -11.2461636           11.0609657           -0.1851979
 Dipole Z            :         -9.8889472            8.7852007           -1.1037465
 Magnitude           :                                                    1.1798159
  Basis Set: (AUG-CC-PVTZ AUX)
    Blend: AUG-CC-PVTZ-RI + DEF2-QZVPP-RI
	 Reference Energy          =    -311.6142882718446572 [Eh]
	 Singles Energy            =      -0.0000000000000000 [Eh]
	 Same-Spin Energy          =      -0.2768102659924264 [Eh]
	 Opposite-Spin Energy      =      -0.8818651338272105 [Eh]
	 Correlation Energy        =      -1.1586753998196369 [Eh]
	 Total Energy              =    -312.7729636716642858 [Eh]

	 ================> DF-SCS-MP2 Energies <==================
	-----------------------------------------------------------
	 SCS Same-Spin Scale       =       0.3333333333333333 [-]
	 SCS Opposite-Spin Scale   =       1.2000000000000000 [-]
	 SCS Same-Spin Energy      =      -0.0922700886641421 [Eh]
	 SCS Opposite-Spin Energy  =      -1.0582381605926525 [Eh]
	 SCS Correlation Energy    =      -1.1505082492567946 [Eh]
	 SCS Total Energy          =    -312.7647965211014593 [Eh]
	-----------------------------------------------------------

*** Psi4 exiting successfully. Buy a developer a beer!
