                               Psi4 1.8.2 release

  ==> Input File <==

--------------------------------------------------------------------------
MEMORY 60 GB

molecule dimer {
0 1
Gh(Li)     0.000000     0.000000     0.000000
Gh(O)      1.276765     0.545153     1.397121
Gh(H)      1.439625    -0.293000     1.863141
Gh(H)      1.756552     1.287598     1.849105
O          0.409922     1.229791    -1.545668
H          1.146667     1.129525    -2.203588
H         -0.234316     1.541034    -2.202116
Gh(O)     -1.716144     0.282187     0.825118
Gh(H)     -2.643062     0.455413     0.501701
Gh(H)     -1.848891    -0.348811     1.525324
Gh(O)      0.520377    -1.745389    -0.656277
Gh(H)     -0.250082    -2.060907    -1.141392
Gh(H)      0.808173    -2.502960    -0.080864

units ang
no_reorient
no_com
symmetry c1
}

set {
basis        aug-cc-pVTZ
scf_type     df
}

energy("mp2")
--------------------------------------------------------------------------

    Molecular point group: c1

    Geometry (in Angstrom), charge = 0, multiplicity = 1:

       Center              X                  Y                   Z               Mass
    ------------   -----------------  -----------------  -----------------  -----------------
      Gh(LI)          0.000000000000     0.000000000000     0.000000000000     7.016003436600
      Gh(O)           1.276765000000     0.545153000000     1.397121000000    15.994914619570
      Gh(H)           1.439625000000    -0.293000000000     1.863141000000     1.007825032230
      Gh(H)           1.756552000000     1.287598000000     1.849105000000     1.007825032230
         O            0.409922000000     1.229791000000    -1.545668000000    15.994914619570
         H            1.146667000000     1.129525000000    -2.203588000000     1.007825032230
         H           -0.234316000000     1.541034000000    -2.202116000000     1.007825032230
      Gh(O)          -1.716144000000     0.282187000000     0.825118000000    15.994914619570
      Gh(H)          -2.643062000000     0.455413000000     0.501701000000     1.007825032230
      Gh(H)          -1.848891000000    -0.348811000000     1.525324000000     1.007825032230
      Gh(O)           0.520377000000    -1.745389000000    -0.656277000000    15.994914619570
      Gh(H)          -0.250082000000    -2.060907000000    -1.141392000000     1.007825032230
      Gh(H)           0.808173000000    -2.502960000000    -0.080864000000     1.007825032230

  Charge       = 0
  Multiplicity = 1
  Basis Set: AUG-CC-PVTZ
    Blend: AUG-CC-PVTZ
  Basis Set: (AUG-CC-PVTZ AUX)
    Blend: AUG-CC-PVTZ-JKFIT + DEF2-UNIVERSAL-JKFIT

    Orbital Energies [Eh]
    ---------------------

    Doubly Occupied:

       1A    -20.575486     2A     -1.348472     3A     -0.684500
       4A     -0.599843     5A     -0.511305

  @DF-RHF Final Energy:   -76.05480326418818

   => Energetics <=

    Nuclear Repulsion Energy =              8.9910938816747432
    One-Electron Energy =                -122.6525786398175910
    Two-Electron Energy =                  37.6066814939546816
    Total Energy =                        -76.0548032641881662
 Dipole X            :         -7.8667852            7.9212160            0.0544308
 Dipole Y            :        -23.5023569           23.6383706            0.1360137
 Dipole Z            :         30.8548541          -31.6926876           -0.8378334
 Magnitude           :                                                    0.8505453
  Basis Set: (AUG-CC-PVTZ AUX)
    Blend: AUG-CC-PVTZ-RI + DEF2-QZVPP-RI
	 Reference Energy          =     -76.0548032641881804 [Eh]
	 Singles Energy            =      -0.0000000000000000 [Eh]
	 Same-Spin Energy          =      -0.0691808340276676 [Eh]
	 Opposite-Spin Energy      =      -0.2180054294574597 [Eh]
	 Correlation Energy        =      -0.2871862634851273 [Eh]
	 Total Energy              =     -76.3419895276733058 [Eh]

	 ================> DF-SCS-MP2 Energies <==================
	-----------------------------------------------------------
	 SCS Same-Spin Scale       =       0.3333333333333333 [-]
	 SCS Opposite-Spin Scale   =       1.2000000000000000 [-]
	 SCS Same-Spin Energy      =      -0.0230602780092225 [Eh]
	 SCS Opposite-Spin Energy  =      -0.2616065153489517 [Eh]
	 SCS Correlation Energy    =      -0.2846667933581742 [Eh]
	 SCS Total Energy          =     -76.3394700575463503 [Eh]
	-----------------------------------------------------------

*** Psi4 exiting successfully. Buy a developer a beer!
