                               Psi4 1.8.2 release

  ==> Input File <==

--------------------------------------------------------------------------
MEMORY 60 GB

molecule dimer {
1 1
Li         0.000000     0.000000     0.000000
Gh(O)     -1.789506    -1.056934    -0.088662
Gh(H)     -2.270001    -1.416814     0.653930
Gh(H)     -2.363175    -1.218597    -0.863242
Gh(O)      0.279767     1.907371     0.284771
Gh(H)      0.476565     2.388574    -0.523007
Gh(H)      1.091074     1.967825     0.824365
Gh(O)      0.700472    -0.401485    -1.683438
Gh(H)      0.674482    -1.335976    -1.879120
Gh(H)      0.103655     0.037381    -2.268641
Gh(O)      1.421464    -0.932024     0.947236
Gh(H)      1.436621    -1.871810     0.673333
Gh(H)      1.380837    -1.071578     1.956669

units ang
no_reorient
no_com
symmetry c1
}

set {
basis        aug-cc-pVTZ
scf_type     df
}

energy("mp2")
--------------------------------------------------------------------------

    Molecular point group: c1

    Geometry (in Angstrom), charge = 1, multiplicity = 1:

       Center              X                  Y                   Z               Mass
    ------------   -----------------  -----------------  -----------------  -----------------
         LI           0.000000000000     0.000000000000     0.000000000000     7.016003436600
      Gh(O)          -1.789506000000    -1.056934000000    -0.088662000000    15.994914619570
      Gh(H)          -2.270001000000    -1.416814000000     0.653930000000     1.007825032230
      Gh(H)          -2.363175000000    -1.218597000000    -0.863242000000     1.007825032230
      Gh(O)           0.279767000000     1.907371000000     0.284771000000    15.994914619570
      Gh(H)           0.476565000000     2.388574000000    -0.523007000000     1.007825032230
      Gh(H)           1.091074000000     1.967825000000     0.824365000000     1.007825032230
      Gh(O)           0.700472000000    -0.401485000000    -1.683438000000    15.994914619570
      Gh(H)           0.674482000000    -1.335976000000    -1.879120000000     1.007825032230
      Gh(H)           0.103655000000     0.037381000000    -2.268641000000     1.007825032230
      Gh(O)           1.421464000000    -0.932024000000     0.947236000000    15.994914619570
      Gh(H)           1.436621000000    -1.871810000000     0.673333000000     1.007825032230
      Gh(H)           1.380837000000    -1.071578000000     1.956669000000     1.007825032230

  Charge       = 1
  Multiplicity = 1
  Basis Set: AUG-CC-PVTZ
    Blend: AUG-CC-PVTZ
  Basis Set: (AUG-CC-PVTZ AUX)
    Blend: AUG-CC-PVTZ-JKFIT + DEF2-UNIVERSAL-JKFIT

    Orbital Energies [Eh]
    ---------------------

    Doubly Occupied:

       1A     -2.792353

  @DF-RHF Final Energy:    -7.23638490217814

   => Energetics <=

    Nuclear Repulsion Energy =              0.0000000000000000
    One-Electron Energy =                  -8.8880639441300495
    Two-Electron Energy =                   1.6516790419519103
    Total Energy =                         -7.2363849021781395
 Dipole X            :         -0.0000068            0.0000000           -0.0000068
 Dipole Y            :         -0.0000011            0.0000000           -0.0000011
 Dipole Z            :          0.0000031            0.0000000            0.0000031
 Magnitude           :                                                    0.0000076
  Basis Set: (AUG-CC-PVTZ AUX)
    Blend: AUG-CC-PVTZ-RI + DEF2-QZVPP-RI
	 Reference Energy          =      -7.2363849021781395 [Eh]
	 Singles Energy            =      -0.0000000000000000 [Eh]
	 Same-Spin Energy          =       0.0000000000000000 [Eh]
	 Opposite-Spin Energy      =      -0.0170572452471396 [Eh]
	 Correlation Energy        =      -0.0170572452471396 [Eh]
	 Total Energy              =      -7.2534421474252788 [Eh]

	 ================> DF-SCS-MP2 Energies <==================
	-----------------------------------------------------------
	 SCS Same-Spin Scale       =       0.3333333333333333 [-]
	 SCS Opposite-Spin Scale   =       1.2000000000000000 [-]
	 SCS Same-Spin Energy      =       0.0000000000000000 [Eh]
	 SCS Opposite-Spin Energy  =      -0.0204686942965675 [Eh]
	 SCS Correlation Energy    =      -0.0204686942965675 [Eh]
	 SCS Total Energy          =      -7.2568535964747074 [Eh]
	-----------------------------------------------------------

*** Psi4 exiting successfully. Buy a developer a beer!
