                               Psi4 1.9 release

  ==> Input File <==

--------------------------------------------------------------------------
MEMORY 60 GB

molecule dimer {
1 1
Li     0.000000     0.000000     0.000000
--
0 1
O     -0.572571     1.726043     0.455178
H     -1.087826     2.378042     0.937786
H      0.159044     2.237056     0.025785
O      0.941273    -0.777166     1.652463
H      0.784326    -1.744419     1.387688
H      0.345499    -0.483212     2.382628
O      1.123724     0.106542    -1.672682
H      1.108221     0.674321    -2.471162
H      1.738415    -0.641429    -2.005010
O     -1.285911    -1.203424    -0.729095
H     -1.453579    -1.473990    -1.654808
H     -2.103778    -1.340655    -0.244827

units ang
no_reorient
no_com
symmetry c1
}

set {
basis        aug-cc-pVTZ
scf_type     df
}

energy("mp2", bsse_type="cp")
--------------------------------------------------------------------------

                               Psi4 1.9 release
    Molecular point group: c1
  Charge       = 0
  Multiplicity = 1
  Basis Set: AUG-CC-PVTZ
    Blend: AUG-CC-PVTZ
  Basis Set: (AUG-CC-PVTZ AUX)
    Blend: AUG-CC-PVTZ-JKFIT + DEF2-UNIVERSAL-JKFIT
  @DF-RHF Final Energy:  -304.20613042979141
    Total Energy =                       -304.2061304297914148
 Dipole X            :         -2.7753878            2.1589025           -0.6164853
 Dipole Y            :          2.9574565           -2.9826039           -0.0251474
 Dipole Z            :          6.8534004           -7.5494710           -0.6960706
 Magnitude           :                                                    0.9301617
  Basis Set: (AUG-CC-PVTZ AUX)
    Blend: AUG-CC-PVTZ-RI + DEF2-QZVPP-RI
	 Reference Energy          =    -304.2061304297914148 [Eh]
	 Singles Energy            =      -0.0000000000000000 [Eh]
	 Same-Spin Energy          =      -0.2788019115589334 [Eh]
	 Opposite-Spin Energy      =      -0.8741596498265281 [Eh]
	 Correlation Energy        =      -1.1529615613854614 [Eh]
	 Total Energy              =    -305.3590919911768538 [Eh]
	 SCS Total Energy          =    -305.3480559801029131 [Eh]
                               Psi4 1.9 release
    Molecular point group: c1
  Multiplicity = 1
  Basis Set: AUG-CC-PVTZ
    Blend: AUG-CC-PVTZ
  Basis Set: (AUG-CC-PVTZ AUX)
    Blend: AUG-CC-PVTZ-JKFIT + DEF2-UNIVERSAL-JKFIT
  @DF-RHF Final Energy:    -7.23638490303584
    Total Energy =                         -7.2363849030358391
  Basis Set: (AUG-CC-PVTZ AUX)
	 Singles Energy            =      -0.0000000000000000 [Eh]
	 Same-Spin Energy          =       0.0000000000000000 [Eh]
	 Opposite-Spin Energy      =      -0.0169307505622206 [Eh]
	 Correlation Energy        =      -0.0169307505622206 [Eh]
	 Total Energy              =      -7.2533156535980599 [Eh]
	 SCS Total Energy          =      -7.2567018037105040 [Eh]
                               Psi4 1.9 release
    Molecular point group: c1

    Geometry (in Bohr), charge = 1, multiplicity = 1:

       Center              X                  Y                   Z               Mass
    ------------   -----------------  -----------------  -----------------  -----------------
         LI           0.000000000000     0.000000000000     0.000000000000     7.016003436600
         O           -1.082002377380     3.261748550764     0.860161758334    15.994914619570
         H           -2.055693212152     4.493848094836     1.772158704289     1.007825032230
         H            0.300549601897     4.227423167312     0.048726588145     1.007825032230
         O            1.778748179288    -1.468630894018     3.122702502452    15.994914619570
         H            1.482161333076    -3.296474158045     2.622350267584     1.007825032230
         H            0.652898486620    -0.913138340535     4.502514378847     1.007825032230
         O            2.123530600604     0.201335200859    -3.160910874983    15.994914619570
         H            2.094234176481     1.274282010645    -4.669819391639     1.007825032230
         H            3.285128242388    -1.212125138926    -3.788919778804     1.007825032230
         O           -2.430019611714    -2.274141772803    -1.377789869441    15.994914619570
         H           -2.746866211717    -2.785437411664    -3.127133910217     1.007825032230
         H           -3.975564248763    -2.533470778726    -0.462655978117     1.007825032230

  Charge       = 1
  Multiplicity = 1
  Basis Set: AUG-CC-PVTZ
    Blend: AUG-CC-PVTZ
  Basis Set: (AUG-CC-PVTZ AUX)
    Blend: AUG-CC-PVTZ-JKFIT + DEF2-UNIVERSAL-JKFIT

    Orbital Energies [Eh]
    ---------------------

    Doubly Occupied:

       1A    -20.754792     2A    -20.752998     3A    -20.751139
       4A    -20.740878     5A     -2.537289     6A     -1.535698
       7A     -1.534545     8A     -1.519407     9A     -1.502639
      10A     -0.902727    11A     -0.900710    12A     -0.879983
      13A     -0.867450    14A     -0.799529    15A     -0.788506
      16A     -0.780366    17A     -0.738827    18A     -0.707824
      19A     -0.696784    20A     -0.691597    21A     -0.683143

  @DF-RHF Final Energy:  -311.61124409153479

   => Energetics <=

    Nuclear Repulsion Energy =            161.4273496810070583
    One-Electron Energy =                -743.9435204906272929
    Two-Electron Energy =                 270.9049267180854486
    Total Energy =                       -311.6112440915347861
 Dipole X            :         -2.8205147            2.1589025           -0.6616122
 Dipole Y            :          2.9469346           -2.9826039           -0.0356693
 Dipole Z            :          6.7520232           -7.5494710           -0.7974478
 Magnitude           :                                                    1.0367864
  Basis Set: (AUG-CC-PVTZ AUX)
    Blend: AUG-CC-PVTZ-RI + DEF2-QZVPP-RI
	 Reference Energy          =    -311.6112440915347861 [Eh]
	 Singles Energy            =      -0.0000000000000000 [Eh]
	 Same-Spin Energy          =      -0.2772131255043082 [Eh]
	 Opposite-Spin Energy      =      -0.8832233875047631 [Eh]
	 Correlation Energy        =      -1.1604365130090712 [Eh]
	 Total Energy              =    -312.7716806045438602 [Eh]

	 ================> DF-SCS-MP2 Energies <==================
	-----------------------------------------------------------
	 SCS Same-Spin Scale       =       0.3333333333333333 [-]
	 SCS Opposite-Spin Scale   =       1.2000000000000000 [-]
	 SCS Same-Spin Energy      =      -0.0924043751681027 [Eh]
	 SCS Opposite-Spin Energy  =      -1.0598680650057157 [Eh]
	 SCS Correlation Energy    =      -1.1522724401738185 [Eh]
	 SCS Total Energy          =    -312.7635165317086035 [Eh]
	-----------------------------------------------------------

*** Psi4 exiting successfully. Buy a developer a beer!
