                               Psi4 1.8.2 release

  ==> Input File <==

--------------------------------------------------------------------------
MEMORY 60 GB

molecule dimer {
0 1
Gh(Li)     0.000000     0.000000     0.000000
Gh(O)      1.276765     0.545153     1.397121
Gh(H)      1.439625    -0.293000     1.863141
Gh(H)      1.756552     1.287598     1.849105
Gh(O)      0.409922     1.229791    -1.545668
Gh(H)      1.146667     1.129525    -2.203588
Gh(H)     -0.234316     1.541034    -2.202116
Gh(O)     -1.716144     0.282187     0.825118
Gh(H)     -2.643062     0.455413     0.501701
Gh(H)     -1.848891    -0.348811     1.525324
O          0.520377    -1.745389    -0.656277
H         -0.250082    -2.060907    -1.141392
H          0.808173    -2.502960    -0.080864

units ang
no_reorient
no_com
symmetry c1
}

set {
basis        aug-cc-pVTZ
scf_type     df
}

energy("mp2")
--------------------------------------------------------------------------

    Molecular point group: c1

    Geometry (in Angstrom), charge = 0, multiplicity = 1:

       Center              X                  Y                   Z               Mass
    ------------   -----------------  -----------------  -----------------  -----------------
      Gh(LI)          0.000000000000     0.000000000000     0.000000000000     7.016003436600
      Gh(O)           1.276765000000     0.545153000000     1.397121000000    15.994914619570
      Gh(H)           1.439625000000    -0.293000000000     1.863141000000     1.007825032230
      Gh(H)           1.756552000000     1.287598000000     1.849105000000     1.007825032230
      Gh(O)           0.409922000000     1.229791000000    -1.545668000000    15.994914619570
      Gh(H)           1.146667000000     1.129525000000    -2.203588000000     1.007825032230
      Gh(H)          -0.234316000000     1.541034000000    -2.202116000000     1.007825032230
      Gh(O)          -1.716144000000     0.282187000000     0.825118000000    15.994914619570
      Gh(H)          -2.643062000000     0.455413000000     0.501701000000     1.007825032230
      Gh(H)          -1.848891000000    -0.348811000000     1.525324000000     1.007825032230
         O            0.520377000000    -1.745389000000    -0.656277000000    15.994914619570
         H           -0.250082000000    -2.060907000000    -1.141392000000     1.007825032230
         H            0.808173000000    -2.502960000000    -0.080864000000     1.007825032230

  Charge       = 0
  Multiplicity = 1
  Basis Set: AUG-CC-PVTZ
    Blend: AUG-CC-PVTZ
  Basis Set: (AUG-CC-PVTZ AUX)
    Blend: AUG-CC-PVTZ-JKFIT + DEF2-UNIVERSAL-JKFIT

    Orbital Energies [Eh]
    ---------------------

    Doubly Occupied:

       1A    -20.570035     2A     -1.341908     3A     -0.708650
       4A     -0.578010     5A     -0.508189

  @DF-RHF Final Energy:   -76.05806528987401

   => Energetics <=

    Nuclear Repulsion Energy =              8.9915669937014613
    One-Electron Energy =                -122.6856795233100854
    Two-Electron Energy =                  37.6360472397345944
    Total Energy =                        -76.0580652898740226
 Dipole X            :         -9.2428247            8.9215992           -0.3212255
 Dipole Y            :         34.3053263          -35.0109162           -0.7055899
 Dipole Z            :         12.2871688          -12.2311994            0.0559694
 Magnitude           :                                                    0.7772873
  Basis Set: (AUG-CC-PVTZ AUX)
    Blend: AUG-CC-PVTZ-RI + DEF2-QZVPP-RI
	 Reference Energy          =     -76.0580652898740084 [Eh]
	 Singles Energy            =      -0.0000000000000000 [Eh]
	 Same-Spin Energy          =      -0.0687762281484919 [Eh]
	 Opposite-Spin Energy      =      -0.2170793685986422 [Eh]
	 Correlation Energy        =      -0.2858555967471341 [Eh]
	 Total Energy              =     -76.3439208866211487 [Eh]

	 ================> DF-SCS-MP2 Energies <==================
	-----------------------------------------------------------
	 SCS Same-Spin Scale       =       0.3333333333333333 [-]
	 SCS Opposite-Spin Scale   =       1.2000000000000000 [-]
	 SCS Same-Spin Energy      =      -0.0229254093828306 [Eh]
	 SCS Opposite-Spin Energy  =      -0.2604952423183706 [Eh]
	 SCS Correlation Energy    =      -0.2834206517012012 [Eh]
	 SCS Total Energy          =     -76.3414859415752147 [Eh]
	-----------------------------------------------------------

*** Psi4 exiting successfully. Buy a developer a beer!
