                               Psi4 1.8.2 release

  ==> Input File <==

--------------------------------------------------------------------------
MEMORY 60 GB

molecule dimer {
0 1
Gh(Li)     0.000000     0.000000     0.000000
Gh(O)     -0.807644    -1.260844     1.138757
Gh(H)     -1.635519    -1.682311     1.327527
Gh(H)     -0.286736    -1.509910     1.936379
O          1.759330    -0.684963    -0.247588
H          2.421120    -1.170058     0.269103
H          2.085332    -0.643141    -1.168976
Gh(O)      0.088216     1.807821     0.564857
Gh(H)      0.651141     1.422611     1.287139
Gh(H)     -0.618624     2.368710     0.980290
Gh(O)     -1.057908    -0.426688    -1.597347
Gh(H)     -0.748099    -0.459222    -2.547429
Gh(H)     -1.560666    -1.268597    -1.484747

units ang
no_reorient
no_com
symmetry c1
}

set {
basis        aug-cc-pVTZ
scf_type     df
}

energy("mp2")
--------------------------------------------------------------------------

    Molecular point group: c1

    Geometry (in Angstrom), charge = 0, multiplicity = 1:

       Center              X                  Y                   Z               Mass
    ------------   -----------------  -----------------  -----------------  -----------------
      Gh(LI)          0.000000000000     0.000000000000     0.000000000000     7.016003436600
      Gh(O)          -0.807644000000    -1.260844000000     1.138757000000    15.994914619570
      Gh(H)          -1.635519000000    -1.682311000000     1.327527000000     1.007825032230
      Gh(H)          -0.286736000000    -1.509910000000     1.936379000000     1.007825032230
         O            1.759330000000    -0.684963000000    -0.247588000000    15.994914619570
         H            2.421120000000    -1.170058000000     0.269103000000     1.007825032230
         H            2.085332000000    -0.643141000000    -1.168976000000     1.007825032230
      Gh(O)           0.088216000000     1.807821000000     0.564857000000    15.994914619570
      Gh(H)           0.651141000000     1.422611000000     1.287139000000     1.007825032230
      Gh(H)          -0.618624000000     2.368710000000     0.980290000000     1.007825032230
      Gh(O)          -1.057908000000    -0.426688000000    -1.597347000000    15.994914619570
      Gh(H)          -0.748099000000    -0.459222000000    -2.547429000000     1.007825032230
      Gh(H)          -1.560666000000    -1.268597000000    -1.484747000000     1.007825032230

  Charge       = 0
  Multiplicity = 1
  Basis Set: AUG-CC-PVTZ
    Blend: AUG-CC-PVTZ
  Basis Set: (AUG-CC-PVTZ AUX)
    Blend: AUG-CC-PVTZ-JKFIT + DEF2-UNIVERSAL-JKFIT

    Orbital Energies [Eh]
    ---------------------

    Doubly Occupied:

       1A    -20.568630     2A     -1.343139     3A     -0.713597
       4A     -0.576415     5A     -0.508114

  @DF-RHF Final Energy:   -76.05899617287189

   => Energetics <=

    Nuclear Repulsion Energy =              9.0308673049192336
    One-Electron Energy =                -122.7599335982991846
    Two-Electron Energy =                  37.6700701205080861
    Total Energy =                        -76.0589961728718720
 Dipole X            :        -34.4576268           35.1131750            0.6555482
 Dipole Y            :         13.4870686          -13.7815893           -0.2945207
 Dipole Z            :          5.1763422           -5.4435016           -0.2671594
 Magnitude           :                                                    0.7667203
  Basis Set: (AUG-CC-PVTZ AUX)
    Blend: AUG-CC-PVTZ-RI + DEF2-QZVPP-RI
	 Reference Energy          =     -76.0589961728718862 [Eh]
	 Singles Energy            =      -0.0000000000000000 [Eh]
	 Same-Spin Energy          =      -0.0686792285861229 [Eh]
	 Opposite-Spin Energy      =      -0.2167571990430548 [Eh]
	 Correlation Energy        =      -0.2854364276291777 [Eh]
	 Total Energy              =     -76.3444326005010652 [Eh]

	 ================> DF-SCS-MP2 Energies <==================
	-----------------------------------------------------------
	 SCS Same-Spin Scale       =       0.3333333333333333 [-]
	 SCS Opposite-Spin Scale   =       1.2000000000000000 [-]
	 SCS Same-Spin Energy      =      -0.0228930761953743 [Eh]
	 SCS Opposite-Spin Energy  =      -0.2601086388516657 [Eh]
	 SCS Correlation Energy    =      -0.2830017150470400 [Eh]
	 SCS Total Energy          =     -76.3419978879189216 [Eh]
	-----------------------------------------------------------

*** Psi4 exiting successfully. Buy a developer a beer!
