                               Psi4 1.8.2 release

  ==> Input File <==

--------------------------------------------------------------------------
MEMORY 60 GB

molecule dimer {
0 1
Gh(Li)     0.000000     0.000000     0.000000
O          1.110215    -1.098530    -1.443038
H          1.598295    -1.954221    -1.278074
H          1.207274    -0.949489    -2.430059
Gh(O)     -1.257824    -1.305400     0.453129
Gh(H)     -2.221511    -1.279369     0.433411
Gh(H)     -1.048101    -1.335662     1.390767
Gh(O)     -0.051878     1.572965     1.008421
Gh(H)      0.239274     2.445122     1.163302
Gh(H)     -0.498900     1.346008     1.847540

units ang
no_reorient
no_com
symmetry c1
}

set {
basis        aug-cc-pVTZ
scf_type     df
}

energy("mp2")
--------------------------------------------------------------------------

    Molecular point group: c1

    Geometry (in Angstrom), charge = 0, multiplicity = 1:

       Center              X                  Y                   Z               Mass
    ------------   -----------------  -----------------  -----------------  -----------------
      Gh(LI)          0.000000000000     0.000000000000     0.000000000000     7.016003436600
         O            1.110215000000    -1.098530000000    -1.443038000000    15.994914619570
         H            1.598295000000    -1.954221000000    -1.278074000000     1.007825032230
         H            1.207274000000    -0.949489000000    -2.430059000000     1.007825032230
      Gh(O)          -1.257824000000    -1.305400000000     0.453129000000    15.994914619570
      Gh(H)          -2.221511000000    -1.279369000000     0.433411000000     1.007825032230
      Gh(H)          -1.048101000000    -1.335662000000     1.390767000000     1.007825032230
      Gh(O)          -0.051878000000     1.572965000000     1.008421000000    15.994914619570
      Gh(H)           0.239274000000     2.445122000000     1.163302000000     1.007825032230
      Gh(H)          -0.498900000000     1.346008000000     1.847540000000     1.007825032230

  Charge       = 0
  Multiplicity = 1
  Basis Set: AUG-CC-PVTZ
    Blend: AUG-CC-PVTZ
  Basis Set: (AUG-CC-PVTZ AUX)
    Blend: AUG-CC-PVTZ-JKFIT + DEF2-UNIVERSAL-JKFIT

    Orbital Energies [Eh]
    ---------------------

    Doubly Occupied:

       1A    -20.574691     2A     -1.332415     3A     -0.693633
       4A     -0.577379     5A     -0.507061

  @DF-RHF Final Energy:   -76.05445048827497

   => Energetics <=

    Nuclear Repulsion Energy =              8.7949076919012761
    One-Electron Energy =                -122.3283556131519845
    Two-Electron Energy =                  37.4789974329757314
    Total Energy =                        -76.0544504882749806
 Dipole X            :        -21.7075848           22.0857754            0.3781905
 Dipole Y            :         21.6374388          -22.0945834           -0.4571445
 Dipole Z            :         28.2921707          -28.8229287           -0.5307580
 Magnitude           :                                                    0.7960611
  Basis Set: (AUG-CC-PVTZ AUX)
    Blend: AUG-CC-PVTZ-RI + DEF2-QZVPP-RI
	 Reference Energy          =     -76.0544504882749663 [Eh]
	 Singles Energy            =      -0.0000000000000000 [Eh]
	 Same-Spin Energy          =      -0.0691764680041732 [Eh]
	 Opposite-Spin Energy      =      -0.2181740299123904 [Eh]
	 Correlation Energy        =      -0.2873504979165636 [Eh]
	 Total Energy              =     -76.3418009861915294 [Eh]

	 ================> DF-SCS-MP2 Energies <==================
	-----------------------------------------------------------
	 SCS Same-Spin Scale       =       0.3333333333333333 [-]
	 SCS Opposite-Spin Scale   =       1.2000000000000000 [-]
	 SCS Same-Spin Energy      =      -0.0230588226680577 [Eh]
	 SCS Opposite-Spin Energy  =      -0.2618088358948685 [Eh]
	 SCS Correlation Energy    =      -0.2848676585629262 [Eh]
	 SCS Total Energy          =     -76.3393181468378970 [Eh]
	-----------------------------------------------------------

*** Psi4 exiting successfully. Buy a developer a beer!
