                               Psi4 1.8.2 release

  ==> Input File <==

--------------------------------------------------------------------------
MEMORY 60 GB

molecule dimer {
1 1
Li         0.000000     0.000000     0.000000
O         -1.823214    -0.719894     0.345269
H         -2.765845    -0.448248     0.422513
H         -1.777057    -1.712165     0.634199
O          0.476037     1.149236     1.715289
H          0.711857     2.093154     1.538815
H          0.685084     0.967159     2.641652
O          1.728929    -0.875103     0.471180
H          2.397221    -1.337494    -0.064528
H          2.188841    -0.670296     1.297771
O          0.027016     0.508388    -1.723464
H          0.534035     1.318936    -1.962317
H          0.013326    -0.084920    -2.476549

units ang
no_reorient
no_com
symmetry c1
}

set {
basis        aug-cc-pVTZ
scf_type     df
}

energy("mp2")
--------------------------------------------------------------------------

    Molecular point group: c1

    Geometry (in Angstrom), charge = 1, multiplicity = 1:

       Center              X                  Y                   Z               Mass
    ------------   -----------------  -----------------  -----------------  -----------------
         LI           0.000000000000     0.000000000000     0.000000000000     7.016003436600
         O           -1.823214000000    -0.719894000000     0.345269000000    15.994914619570
         H           -2.765845000000    -0.448248000000     0.422513000000     1.007825032230
         H           -1.777057000000    -1.712165000000     0.634199000000     1.007825032230
         O            0.476037000000     1.149236000000     1.715289000000    15.994914619570
         H            0.711857000000     2.093154000000     1.538815000000     1.007825032230
         H            0.685084000000     0.967159000000     2.641652000000     1.007825032230
         O            1.728929000000    -0.875103000000     0.471180000000    15.994914619570
         H            2.397221000000    -1.337494000000    -0.064528000000     1.007825032230
         H            2.188841000000    -0.670296000000     1.297771000000     1.007825032230
         O            0.027016000000     0.508388000000    -1.723464000000    15.994914619570
         H            0.534035000000     1.318936000000    -1.962317000000     1.007825032230
         H            0.013326000000    -0.084920000000    -2.476549000000     1.007825032230

  Charge       = 1
  Multiplicity = 1
  Basis Set: AUG-CC-PVTZ
    Blend: AUG-CC-PVTZ
  Basis Set: (AUG-CC-PVTZ AUX)
    Blend: AUG-CC-PVTZ-JKFIT + DEF2-UNIVERSAL-JKFIT

    Orbital Energies [Eh]
    ---------------------

    Doubly Occupied:

       1A    -20.749237     2A    -20.738258     3A    -20.738114
       4A    -20.736593     5A     -2.527688     6A     -1.534164
       7A     -1.523073     8A     -1.512225     9A     -1.497128
      10A     -0.905476    11A     -0.887968    12A     -0.878606
      13A     -0.862455    14A     -0.791746    15A     -0.783670
      16A     -0.761248    17A     -0.750252    18A     -0.702689
      19A     -0.690799    20A     -0.675619    21A     -0.671382

  @DF-RHF Final Energy:  -311.61701329804890

   => Energetics <=

    Nuclear Repulsion Energy =            161.3295416629952967
    One-Electron Energy =                -744.0563259028407401
    Two-Electron Energy =                 271.1097709417965120
    Total Energy =                       -311.6170132980489029
 Dipole X            :         -9.1251034            9.9354354            0.8103320
 Dipole Y            :         -1.1418830            1.1851266            0.0432437
 Dipole Z            :        -15.7551039           16.0584164            0.3033125
 Magnitude           :                                                    0.8663178
  Basis Set: (AUG-CC-PVTZ AUX)
    Blend: AUG-CC-PVTZ-RI + DEF2-QZVPP-RI
	 Reference Energy          =    -311.6170132980489029 [Eh]
	 Singles Energy            =      -0.0000000000000000 [Eh]
	 Same-Spin Energy          =      -0.2767587742615447 [Eh]
	 Opposite-Spin Energy      =      -0.8816403988795207 [Eh]
	 Correlation Energy        =      -1.1583991731410654 [Eh]
	 Total Energy              =    -312.7754124711899522 [Eh]

	 ================> DF-SCS-MP2 Energies <==================
	-----------------------------------------------------------
	 SCS Same-Spin Scale       =       0.3333333333333333 [-]
	 SCS Opposite-Spin Scale   =       1.2000000000000000 [-]
	 SCS Same-Spin Energy      =      -0.0922529247538482 [Eh]
	 SCS Opposite-Spin Energy  =      -1.0579684786554249 [Eh]
	 SCS Correlation Energy    =      -1.1502214034092730 [Eh]
	 SCS Total Energy          =    -312.7672347014581646 [Eh]
	-----------------------------------------------------------

*** Psi4 exiting successfully. Buy a developer a beer!
