                               Psi4 1.8.2 release

  ==> Input File <==

--------------------------------------------------------------------------
MEMORY 60 GB

molecule dimer {
0 1
Gh(Li)     0.000000     0.000000     0.000000
Gh(O)      1.650053    -0.530993    -1.064242
Gh(H)      2.392035    -0.101949    -0.686952
Gh(H)      1.463285    -0.258144    -1.959656
O         -0.289415    -0.712498     1.685242
H         -1.101029    -0.657522     2.234823
H         -0.070434    -1.611500     1.899930
Gh(O)      0.217487     1.895362     0.182598
Gh(H)     -0.273195     2.192923     0.988240
Gh(H)      1.131525     2.307122     0.234605
Gh(O)     -1.285096    -0.509246    -1.306926
Gh(H)     -0.917246    -0.560268    -2.152485
Gh(H)     -1.585156    -1.421720    -1.166242

units ang
no_reorient
no_com
symmetry c1
}

set {
basis        aug-cc-pVTZ
scf_type     df
}

energy("mp2")
--------------------------------------------------------------------------

    Molecular point group: c1

    Geometry (in Angstrom), charge = 0, multiplicity = 1:

       Center              X                  Y                   Z               Mass
    ------------   -----------------  -----------------  -----------------  -----------------
      Gh(LI)          0.000000000000     0.000000000000     0.000000000000     7.016003436600
      Gh(O)           1.650053000000    -0.530993000000    -1.064242000000    15.994914619570
      Gh(H)           2.392035000000    -0.101949000000    -0.686952000000     1.007825032230
      Gh(H)           1.463285000000    -0.258144000000    -1.959656000000     1.007825032230
         O           -0.289415000000    -0.712498000000     1.685242000000    15.994914619570
         H           -1.101029000000    -0.657522000000     2.234823000000     1.007825032230
         H           -0.070434000000    -1.611500000000     1.899930000000     1.007825032230
      Gh(O)           0.217487000000     1.895362000000     0.182598000000    15.994914619570
      Gh(H)          -0.273195000000     2.192923000000     0.988240000000     1.007825032230
      Gh(H)           1.131525000000     2.307122000000     0.234605000000     1.007825032230
      Gh(O)          -1.285096000000    -0.509246000000    -1.306926000000    15.994914619570
      Gh(H)          -0.917246000000    -0.560268000000    -2.152485000000     1.007825032230
      Gh(H)          -1.585156000000    -1.421720000000    -1.166242000000     1.007825032230

  Charge       = 0
  Multiplicity = 1
  Basis Set: AUG-CC-PVTZ
    Blend: AUG-CC-PVTZ
  Basis Set: (AUG-CC-PVTZ AUX)
    Blend: AUG-CC-PVTZ-JKFIT + DEF2-UNIVERSAL-JKFIT

    Orbital Energies [Eh]
    ---------------------

    Doubly Occupied:

       1A    -20.571645     2A     -1.355067     3A     -0.697484
       4A     -0.598432     5A     -0.511872

  @DF-RHF Final Energy:   -76.05753966974727

   => Energetics <=

    Nuclear Repulsion Energy =              9.1356207759323986
    One-Electron Energy =                -122.9173183303329182
    Two-Electron Energy =                  37.7241578846532519
    Total Energy =                        -76.0575396697472712
 Dipole X            :          6.2102082           -6.5890649           -0.3788568
 Dipole Y            :         14.5084002          -15.0592388           -0.5508387
 Dipole Z            :        -32.7972662           33.2907174            0.4934513
 Magnitude           :                                                    0.8309331
  Basis Set: (AUG-CC-PVTZ AUX)
    Blend: AUG-CC-PVTZ-RI + DEF2-QZVPP-RI
	 Reference Energy          =     -76.0575396697472712 [Eh]
	 Singles Energy            =      -0.0000000000000000 [Eh]
	 Same-Spin Energy          =      -0.0688022138195849 [Eh]
	 Opposite-Spin Energy      =      -0.2170044087249870 [Eh]
	 Correlation Energy        =      -0.2858066225445719 [Eh]
	 Total Energy              =     -76.3433462922918409 [Eh]

	 ================> DF-SCS-MP2 Energies <==================
	-----------------------------------------------------------
	 SCS Same-Spin Scale       =       0.3333333333333333 [-]
	 SCS Opposite-Spin Scale   =       1.2000000000000000 [-]
	 SCS Same-Spin Energy      =      -0.0229340712731950 [Eh]
	 SCS Opposite-Spin Energy  =      -0.2604052904699844 [Eh]
	 SCS Correlation Energy    =      -0.2833393617431794 [Eh]
	 SCS Total Energy          =     -76.3408790314904451 [Eh]
	-----------------------------------------------------------

*** Psi4 exiting successfully. Buy a developer a beer!
