                               Psi4 1.8.2 release

  ==> Input File <==

--------------------------------------------------------------------------
MEMORY 60 GB

molecule dimer {
1 1
Li         0.000000     0.000000     0.000000
Gh(O)     -0.409388    -1.172788    -1.653677
Gh(H)     -0.592719    -0.863963    -2.571183
Gh(H)     -1.165044    -1.724467    -1.443699
Gh(O)      0.581959    -1.470160     1.232372
Gh(H)      0.948783    -1.556174     2.097776
Gh(H)      0.995278    -2.238232     0.765158
Gh(O)     -1.695527     0.711563    -0.176134
Gh(H)     -2.191824     1.057173    -0.930725
Gh(H)     -2.102533     1.149660     0.537971
Gh(O)      1.307265     1.309986     0.356041
Gh(H)      1.967290     1.087218     1.057477
Gh(H)      1.846449     1.401655    -0.489010

units ang
no_reorient
no_com
symmetry c1
}

set {
basis        aug-cc-pVTZ
scf_type     df
}

energy("mp2")
--------------------------------------------------------------------------

    Molecular point group: c1

    Geometry (in Angstrom), charge = 1, multiplicity = 1:

       Center              X                  Y                   Z               Mass
    ------------   -----------------  -----------------  -----------------  -----------------
         LI           0.000000000000     0.000000000000     0.000000000000     7.016003436600
      Gh(O)          -0.409388000000    -1.172788000000    -1.653677000000    15.994914619570
      Gh(H)          -0.592719000000    -0.863963000000    -2.571183000000     1.007825032230
      Gh(H)          -1.165044000000    -1.724467000000    -1.443699000000     1.007825032230
      Gh(O)           0.581959000000    -1.470160000000     1.232372000000    15.994914619570
      Gh(H)           0.948783000000    -1.556174000000     2.097776000000     1.007825032230
      Gh(H)           0.995278000000    -2.238232000000     0.765158000000     1.007825032230
      Gh(O)          -1.695527000000     0.711563000000    -0.176134000000    15.994914619570
      Gh(H)          -2.191824000000     1.057173000000    -0.930725000000     1.007825032230
      Gh(H)          -2.102533000000     1.149660000000     0.537971000000     1.007825032230
      Gh(O)           1.307265000000     1.309986000000     0.356041000000    15.994914619570
      Gh(H)           1.967290000000     1.087218000000     1.057477000000     1.007825032230
      Gh(H)           1.846449000000     1.401655000000    -0.489010000000     1.007825032230

  Charge       = 1
  Multiplicity = 1
  Basis Set: AUG-CC-PVTZ
    Blend: AUG-CC-PVTZ
  Basis Set: (AUG-CC-PVTZ AUX)
    Blend: AUG-CC-PVTZ-JKFIT + DEF2-UNIVERSAL-JKFIT

    Orbital Energies [Eh]
    ---------------------

    Doubly Occupied:

       1A     -2.792353

  @DF-RHF Final Energy:    -7.23638486756515

   => Energetics <=

    Nuclear Repulsion Energy =              0.0000000000000000
    One-Electron Energy =                  -8.8880645244444345
    Two-Electron Energy =                   1.6516796568792895
    Total Energy =                         -7.2363848675651452
 Dipole X            :          0.0000051            0.0000000            0.0000051
 Dipole Y            :         -0.0000031            0.0000000           -0.0000031
 Dipole Z            :         -0.0000076            0.0000000           -0.0000076
 Magnitude           :                                                    0.0000097
  Basis Set: (AUG-CC-PVTZ AUX)
    Blend: AUG-CC-PVTZ-RI + DEF2-QZVPP-RI
	 Reference Energy          =      -7.2363848675651452 [Eh]
	 Singles Energy            =      -0.0000000000000000 [Eh]
	 Same-Spin Energy          =       0.0000000000000000 [Eh]
	 Opposite-Spin Energy      =      -0.0170728254050611 [Eh]
	 Correlation Energy        =      -0.0170728254050611 [Eh]
	 Total Energy              =      -7.2534576929702066 [Eh]

	 ================> DF-SCS-MP2 Energies <==================
	-----------------------------------------------------------
	 SCS Same-Spin Scale       =       0.3333333333333333 [-]
	 SCS Opposite-Spin Scale   =       1.2000000000000000 [-]
	 SCS Same-Spin Energy      =       0.0000000000000000 [Eh]
	 SCS Opposite-Spin Energy  =      -0.0204873904860733 [Eh]
	 SCS Correlation Energy    =      -0.0204873904860733 [Eh]
	 SCS Total Energy          =      -7.2568722580512182 [Eh]
	-----------------------------------------------------------

*** Psi4 exiting successfully. Buy a developer a beer!
