                               Psi4 1.8.2 release

  ==> Input File <==

--------------------------------------------------------------------------
MEMORY 60 GB

molecule dimer {
0 1
Gh(Li)     0.000000     0.000000     0.000000
Gh(O)      1.871880     0.461571     0.368550
Gh(H)      2.285974     0.571186    -0.568959
Gh(H)      2.640293     0.187905     0.999170
Gh(O)     -0.434010     0.027323    -1.814838
Gh(H)     -1.386091     0.043525    -1.966203
Gh(H)     -0.179400     0.553937    -2.571507
Gh(O)     -0.248199    -1.804611     0.671574
Gh(H)      0.614937    -2.214034     0.676546
Gh(H)     -0.801980    -2.158788    -0.016634
O         -1.170794     0.970161     1.468626
H         -0.562692     1.300187     2.160833
H         -1.660722     0.184687     1.808510

units ang
no_reorient
no_com
symmetry c1
}

set {
basis        aug-cc-pVTZ
scf_type     df
}

energy("mp2")
--------------------------------------------------------------------------

    Molecular point group: c1

    Geometry (in Angstrom), charge = 0, multiplicity = 1:

       Center              X                  Y                   Z               Mass
    ------------   -----------------  -----------------  -----------------  -----------------
      Gh(LI)          0.000000000000     0.000000000000     0.000000000000     7.016003436600
      Gh(O)           1.871880000000     0.461571000000     0.368550000000    15.994914619570
      Gh(H)           2.285974000000     0.571186000000    -0.568959000000     1.007825032230
      Gh(H)           2.640293000000     0.187905000000     0.999170000000     1.007825032230
      Gh(O)          -0.434010000000     0.027323000000    -1.814838000000    15.994914619570
      Gh(H)          -1.386091000000     0.043525000000    -1.966203000000     1.007825032230
      Gh(H)          -0.179400000000     0.553937000000    -2.571507000000     1.007825032230
      Gh(O)          -0.248199000000    -1.804611000000     0.671574000000    15.994914619570
      Gh(H)           0.614937000000    -2.214034000000     0.676546000000     1.007825032230
      Gh(H)          -0.801980000000    -2.158788000000    -0.016634000000     1.007825032230
         O           -1.170794000000     0.970161000000     1.468626000000    15.994914619570
         H           -0.562692000000     1.300187000000     2.160833000000     1.007825032230
         H           -1.660722000000     0.184687000000     1.808510000000     1.007825032230

  Charge       = 0
  Multiplicity = 1
  Basis Set: AUG-CC-PVTZ
    Blend: AUG-CC-PVTZ
  Basis Set: (AUG-CC-PVTZ AUX)
    Blend: AUG-CC-PVTZ-JKFIT + DEF2-UNIVERSAL-JKFIT

    Orbital Energies [Eh]
    ---------------------

    Doubly Occupied:

       1A    -20.568986     2A     -1.337517     3A     -0.712970
       4A     -0.570468     5A     -0.506746

  @DF-RHF Final Energy:   -76.05734802670818

   => Energetics <=

    Nuclear Repulsion Energy =              8.9481851827110539
    One-Electron Energy =                -122.6176878549967881
    Two-Electron Energy =                  37.6121546455775402
    Total Energy =                        -76.0573480267081834
 Dipole X            :         21.9805347          -21.9014836            0.0790511
 Dipole Y            :        -17.7744187           17.4727139           -0.3017048
 Dipole Z            :        -29.0171581           29.7033785            0.6862204
 Magnitude           :                                                    0.7537727
  Basis Set: (AUG-CC-PVTZ AUX)
    Blend: AUG-CC-PVTZ-RI + DEF2-QZVPP-RI
	 Reference Energy          =     -76.0573480267081834 [Eh]
	 Singles Energy            =      -0.0000000000000000 [Eh]
	 Same-Spin Energy          =      -0.0687963587377722 [Eh]
	 Opposite-Spin Energy      =      -0.2170969150144849 [Eh]
	 Correlation Energy        =      -0.2858932737522571 [Eh]
	 Total Energy              =     -76.3432413004604342 [Eh]

	 ================> DF-SCS-MP2 Energies <==================
	-----------------------------------------------------------
	 SCS Same-Spin Scale       =       0.3333333333333333 [-]
	 SCS Opposite-Spin Scale   =       1.2000000000000000 [-]
	 SCS Same-Spin Energy      =      -0.0229321195792574 [Eh]
	 SCS Opposite-Spin Energy  =      -0.2605162980173819 [Eh]
	 SCS Correlation Energy    =      -0.2834484175966393 [Eh]
	 SCS Total Energy          =     -76.3407964443048286 [Eh]
	-----------------------------------------------------------

*** Psi4 exiting successfully. Buy a developer a beer!
