                               Psi4 1.8.2 release

  ==> Input File <==

--------------------------------------------------------------------------
MEMORY 60 GB

molecule dimer {
0 1
Gh(Li)     0.000000     0.000000     0.000000
Gh(O)     -1.511539    -0.373056     1.444335
Gh(H)     -2.171177    -0.773198     0.881789
Gh(H)     -1.822922     0.301399     2.156054
Gh(O)      1.489676     0.881894     1.248380
Gh(H)      2.269207     0.733811     0.702855
Gh(H)      1.792827     0.767859     2.219903
Gh(O)     -1.062894     1.282392    -0.795663
Gh(H)     -1.976557     1.447197    -0.506702
Gh(H)     -1.068516     1.674872    -1.716630
O          0.712000    -1.014444    -1.465121
H          0.958402    -1.983537    -1.419085
H          0.828894    -0.834982    -2.421806

units ang
no_reorient
no_com
symmetry c1
}

set {
basis        aug-cc-pVTZ
scf_type     df
}

energy("mp2")
--------------------------------------------------------------------------

    Molecular point group: c1

    Geometry (in Angstrom), charge = 0, multiplicity = 1:

       Center              X                  Y                   Z               Mass
    ------------   -----------------  -----------------  -----------------  -----------------
      Gh(LI)          0.000000000000     0.000000000000     0.000000000000     7.016003436600
      Gh(O)          -1.511539000000    -0.373056000000     1.444335000000    15.994914619570
      Gh(H)          -2.171177000000    -0.773198000000     0.881789000000     1.007825032230
      Gh(H)          -1.822922000000     0.301399000000     2.156054000000     1.007825032230
      Gh(O)           1.489676000000     0.881894000000     1.248380000000    15.994914619570
      Gh(H)           2.269207000000     0.733811000000     0.702855000000     1.007825032230
      Gh(H)           1.792827000000     0.767859000000     2.219903000000     1.007825032230
      Gh(O)          -1.062894000000     1.282392000000    -0.795663000000    15.994914619570
      Gh(H)          -1.976557000000     1.447197000000    -0.506702000000     1.007825032230
      Gh(H)          -1.068516000000     1.674872000000    -1.716630000000     1.007825032230
         O            0.712000000000    -1.014444000000    -1.465121000000    15.994914619570
         H            0.958402000000    -1.983537000000    -1.419085000000     1.007825032230
         H            0.828894000000    -0.834982000000    -2.421806000000     1.007825032230

  Charge       = 0
  Multiplicity = 1
  Basis Set: AUG-CC-PVTZ
    Blend: AUG-CC-PVTZ
  Basis Set: (AUG-CC-PVTZ AUX)
    Blend: AUG-CC-PVTZ-JKFIT + DEF2-UNIVERSAL-JKFIT

    Orbital Energies [Eh]
    ---------------------

    Doubly Occupied:

       1A    -20.574236     2A     -1.339265     3A     -0.693496
       4A     -0.584929     5A     -0.508709

  @DF-RHF Final Energy:   -76.05603312676794

   => Energetics <=

    Nuclear Repulsion Energy =              8.8932772678450149
    One-Electron Energy =                -122.4973489665989632
    Two-Electron Energy =                  37.5480385719860195
    Total Energy =                        -76.0560331267679430
 Dipole X            :        -13.9073114           14.1413800            0.2340686
 Dipole Y            :         20.1560128          -20.6623996           -0.5063869
 Dipole Z            :         28.8176567          -29.4076515           -0.5899948
 Magnitude           :                                                    0.8119788
  Basis Set: (AUG-CC-PVTZ AUX)
    Blend: AUG-CC-PVTZ-RI + DEF2-QZVPP-RI
	 Reference Energy          =     -76.0560331267679430 [Eh]
	 Singles Energy            =      -0.0000000000000000 [Eh]
	 Same-Spin Energy          =      -0.0690917728989713 [Eh]
	 Opposite-Spin Energy      =      -0.2179698154147837 [Eh]
	 Correlation Energy        =      -0.2870615883137551 [Eh]
	 Total Energy              =     -76.3430947150817047 [Eh]

	 ================> DF-SCS-MP2 Energies <==================
	-----------------------------------------------------------
	 SCS Same-Spin Scale       =       0.3333333333333333 [-]
	 SCS Opposite-Spin Scale   =       1.2000000000000000 [-]
	 SCS Same-Spin Energy      =      -0.0230305909663238 [Eh]
	 SCS Opposite-Spin Energy  =      -0.2615637784977405 [Eh]
	 SCS Correlation Energy    =      -0.2845943694640642 [Eh]
	 SCS Total Energy          =     -76.3406274962320026 [Eh]
	-----------------------------------------------------------

*** Psi4 exiting successfully. Buy a developer a beer!
