                               Psi4 1.8.2 release

  ==> Input File <==

--------------------------------------------------------------------------
MEMORY 60 GB

molecule dimer {
0 1
Gh(Li)     0.000000     0.000000     0.000000
O         -0.716880     0.857356    -1.496201
H         -0.733051     0.709649    -2.428935
H         -1.633457     1.096310    -1.306862
Gh(O)     -0.384169     0.497773     1.852316
Gh(H)     -1.003665     1.020047     2.428236
Gh(H)      0.506112     0.522672     2.288627
Gh(O)      1.950571    -0.041794     0.161548
Gh(H)      2.264982    -0.901899     0.344035
Gh(H)      2.628264     0.655770     0.267660
Gh(O)     -0.621593    -1.900324    -0.167785
Gh(H)     -1.121968    -2.443415     0.395486
Gh(H)      0.100099    -2.460018    -0.306883

units ang
no_reorient
no_com
symmetry c1
}

set {
basis        aug-cc-pVTZ
scf_type     df
}

energy("mp2")
--------------------------------------------------------------------------

    Molecular point group: c1

    Geometry (in Angstrom), charge = 0, multiplicity = 1:

       Center              X                  Y                   Z               Mass
    ------------   -----------------  -----------------  -----------------  -----------------
      Gh(LI)          0.000000000000     0.000000000000     0.000000000000     7.016003436600
         O           -0.716880000000     0.857356000000    -1.496201000000    15.994914619570
         H           -0.733051000000     0.709649000000    -2.428935000000     1.007825032230
         H           -1.633457000000     1.096310000000    -1.306862000000     1.007825032230
      Gh(O)          -0.384169000000     0.497773000000     1.852316000000    15.994914619570
      Gh(H)          -1.003665000000     1.020047000000     2.428236000000     1.007825032230
      Gh(H)           0.506112000000     0.522672000000     2.288627000000     1.007825032230
      Gh(O)           1.950571000000    -0.041794000000     0.161548000000    15.994914619570
      Gh(H)           2.264982000000    -0.901899000000     0.344035000000     1.007825032230
      Gh(H)           2.628264000000     0.655770000000     0.267660000000     1.007825032230
      Gh(O)          -0.621593000000    -1.900324000000    -0.167785000000    15.994914619570
      Gh(H)          -1.121968000000    -2.443415000000     0.395486000000     1.007825032230
      Gh(H)           0.100099000000    -2.460018000000    -0.306883000000     1.007825032230

  Charge       = 0
  Multiplicity = 1
  Basis Set: AUG-CC-PVTZ
    Blend: AUG-CC-PVTZ
  Basis Set: (AUG-CC-PVTZ AUX)
    Blend: AUG-CC-PVTZ-JKFIT + DEF2-UNIVERSAL-JKFIT

    Orbital Energies [Eh]
    ---------------------

    Doubly Occupied:

       1A    -20.567441     2A     -1.356115     3A     -0.714820
       4A     -0.589195     5A     -0.511079

  @DF-RHF Final Energy:   -76.06038909863666

   => Energetics <=

    Nuclear Repulsion Energy =              9.2200595384392479
    One-Electron Energy =                -123.0835932587155241
    Two-Electron Energy =                  37.8031446216396105
    Total Energy =                        -76.0603890986366764
 Dipole X            :         14.6947233          -15.3097069           -0.6149836
 Dipole Y            :        -16.3146677           16.3741122            0.0594444
 Dipole Z            :         29.1837602          -29.6789141           -0.4951540
 Magnitude           :                                                    0.7917802
  Basis Set: (AUG-CC-PVTZ AUX)
    Blend: AUG-CC-PVTZ-RI + DEF2-QZVPP-RI
	 Reference Energy          =     -76.0603890986366622 [Eh]
	 Singles Energy            =      -0.0000000000000000 [Eh]
	 Same-Spin Energy          =      -0.0684376352417836 [Eh]
	 Opposite-Spin Energy      =      -0.2160105143080915 [Eh]
	 Correlation Energy        =      -0.2844481495498751 [Eh]
	 Total Energy              =     -76.3448372481865363 [Eh]

	 ================> DF-SCS-MP2 Energies <==================
	-----------------------------------------------------------
	 SCS Same-Spin Scale       =       0.3333333333333333 [-]
	 SCS Opposite-Spin Scale   =       1.2000000000000000 [-]
	 SCS Same-Spin Energy      =      -0.0228125450805945 [Eh]
	 SCS Opposite-Spin Energy  =      -0.2592126171697098 [Eh]
	 SCS Correlation Energy    =      -0.2820251622503043 [Eh]
	 SCS Total Energy          =     -76.3424142608869687 [Eh]
	-----------------------------------------------------------

*** Psi4 exiting successfully. Buy a developer a beer!
