                               Psi4 1.8.2 release

  ==> Input File <==

--------------------------------------------------------------------------
MEMORY 60 GB

molecule dimer {
1 1
Li         0.000000     0.000000     0.000000
O          1.401258    -0.552767    -1.148847
H          2.222717    -0.099344    -1.190559
H          1.562451    -1.490832    -1.304563
O         -0.330704     1.780111     0.510752
H         -0.929458     1.795993     1.257868
H         -0.397182     2.647959     0.120718
O          0.494746    -0.773349     1.790483
H          1.287530    -0.312464     2.047423
H         -0.132202    -0.417194     2.419929
O         -1.664275    -0.879300    -0.710838
H         -2.365985    -1.429029    -0.223341
H         -2.197362    -0.354210    -1.323729

units ang
no_reorient
no_com
symmetry c1
}

set {
basis        aug-cc-pVTZ
scf_type     df
}

energy("mp2")
--------------------------------------------------------------------------

    Molecular point group: c1

    Geometry (in Angstrom), charge = 1, multiplicity = 1:

       Center              X                  Y                   Z               Mass
    ------------   -----------------  -----------------  -----------------  -----------------
         LI           0.000000000000     0.000000000000     0.000000000000     7.016003436600
         O            1.401258000000    -0.552767000000    -1.148847000000    15.994914619570
         H            2.222717000000    -0.099344000000    -1.190559000000     1.007825032230
         H            1.562451000000    -1.490832000000    -1.304563000000     1.007825032230
         O           -0.330704000000     1.780111000000     0.510752000000    15.994914619570
         H           -0.929458000000     1.795993000000     1.257868000000     1.007825032230
         H           -0.397182000000     2.647959000000     0.120718000000     1.007825032230
         O            0.494746000000    -0.773349000000     1.790483000000    15.994914619570
         H            1.287530000000    -0.312464000000     2.047423000000     1.007825032230
         H           -0.132202000000    -0.417194000000     2.419929000000     1.007825032230
         O           -1.664275000000    -0.879300000000    -0.710838000000    15.994914619570
         H           -2.365985000000    -1.429029000000    -0.223341000000     1.007825032230
         H           -2.197362000000    -0.354210000000    -1.323729000000     1.007825032230

  Charge       = 1
  Multiplicity = 1
  Basis Set: AUG-CC-PVTZ
    Blend: AUG-CC-PVTZ
  Basis Set: (AUG-CC-PVTZ AUX)
    Blend: AUG-CC-PVTZ-JKFIT + DEF2-UNIVERSAL-JKFIT

    Orbital Energies [Eh]
    ---------------------

    Doubly Occupied:

       1A    -20.761091     2A    -20.746563     3A    -20.746393
       4A    -20.739695     5A     -2.529907     6A     -1.555597
       7A     -1.541077     8A     -1.534988     9A     -1.516379
      10A     -0.919893    11A     -0.906401    12A     -0.892105
      13A     -0.871214    14A     -0.807462    15A     -0.790037
      16A     -0.778370    17A     -0.769841    18A     -0.718165
      19A     -0.702448    20A     -0.691005    21A     -0.686170

  @DF-RHF Final Energy:  -311.62623599456765

   => Energetics <=

    Nuclear Repulsion Energy =            163.2239399019003088
    One-Electron Energy =                -747.2907459691286931
    Two-Electron Energy =                 272.4405700726607620
    Total Energy =                       -311.6262359945676508
 Dipole X            :          2.7989421           -3.2905631           -0.4916210
 Dipole Y            :          6.5599010           -5.7855118            0.7743891
 Dipole Z            :         -9.4630920           10.0838545            0.6207625
 Magnitude           :                                                    1.1075721
  Basis Set: (AUG-CC-PVTZ AUX)
    Blend: AUG-CC-PVTZ-RI + DEF2-QZVPP-RI
	 Reference Energy          =    -311.6262359945676508 [Eh]
	 Singles Energy            =      -0.0000000000000000 [Eh]
	 Same-Spin Energy          =      -0.2755326474643955 [Eh]
	 Opposite-Spin Energy      =      -0.8788202166057532 [Eh]
	 Correlation Energy        =      -1.1543528640701486 [Eh]
	 Total Energy              =    -312.7805888586378273 [Eh]

	 ================> DF-SCS-MP2 Energies <==================
	-----------------------------------------------------------
	 SCS Same-Spin Scale       =       0.3333333333333333 [-]
	 SCS Opposite-Spin Scale   =       1.2000000000000000 [-]
	 SCS Same-Spin Energy      =      -0.0918442158214652 [Eh]
	 SCS Opposite-Spin Energy  =      -1.0545842599269037 [Eh]
	 SCS Correlation Energy    =      -1.1464284757483689 [Eh]
	 SCS Total Energy          =    -312.7726644703160446 [Eh]
	-----------------------------------------------------------

*** Psi4 exiting successfully. Buy a developer a beer!
