                               Psi4 1.8.2 release

  ==> Input File <==

--------------------------------------------------------------------------
MEMORY 60 GB

molecule dimer {
0 1
Gh(Li)     0.000000     0.000000     0.000000
Gh(O)     -0.255509     0.069921    -1.836571
Gh(H)     -1.027344    -0.133534    -2.387653
Gh(H)      0.486014    -0.175560    -2.395908
Gh(O)      0.397253    -1.764707     0.271805
Gh(H)      1.046759    -2.177183     0.906020
Gh(H)      0.429144    -2.436723    -0.416891
O         -0.827489     1.270939     1.147935
H         -0.600437     2.141304     1.571362
H         -1.791433     1.178595     1.173077

units ang
no_reorient
no_com
symmetry c1
}

set {
basis        aug-cc-pVTZ
scf_type     df
}

energy("mp2")
--------------------------------------------------------------------------

    Molecular point group: c1

    Geometry (in Angstrom), charge = 0, multiplicity = 1:

       Center              X                  Y                   Z               Mass
    ------------   -----------------  -----------------  -----------------  -----------------
      Gh(LI)          0.000000000000     0.000000000000     0.000000000000     7.016003436600
      Gh(O)          -0.255509000000     0.069921000000    -1.836571000000    15.994914619570
      Gh(H)          -1.027344000000    -0.133534000000    -2.387653000000     1.007825032230
      Gh(H)           0.486014000000    -0.175560000000    -2.395908000000     1.007825032230
      Gh(O)           0.397253000000    -1.764707000000     0.271805000000    15.994914619570
      Gh(H)           1.046759000000    -2.177183000000     0.906020000000     1.007825032230
      Gh(H)           0.429144000000    -2.436723000000    -0.416891000000     1.007825032230
         O           -0.827489000000     1.270939000000     1.147935000000    15.994914619570
         H           -0.600437000000     2.141304000000     1.571362000000     1.007825032230
         H           -1.791433000000     1.178595000000     1.173077000000     1.007825032230

  Charge       = 0
  Multiplicity = 1
  Basis Set: AUG-CC-PVTZ
    Blend: AUG-CC-PVTZ
  Basis Set: (AUG-CC-PVTZ AUX)
    Blend: AUG-CC-PVTZ-JKFIT + DEF2-UNIVERSAL-JKFIT

    Orbital Energies [Eh]
    ---------------------

    Doubly Occupied:

       1A    -20.569780     2A     -1.339491     3A     -0.710007
       4A     -0.574529     5A     -0.507464

  @DF-RHF Final Energy:   -76.05761920593245

   => Energetics <=

    Nuclear Repulsion Energy =              8.9629334987330846
    One-Electron Energy =                -122.6385571470425333
    Two-Electron Energy =                  37.6180044423769999
    Total Energy =                        -76.0576192059324541
 Dipole X            :         16.5399198          -17.0297999           -0.4898801
 Dipole Y            :        -24.9757969           25.4875129            0.5117160
 Dipole Z            :        -22.2449963           22.5405002            0.2955038
 Magnitude           :                                                    0.7675665
  Basis Set: (AUG-CC-PVTZ AUX)
    Blend: AUG-CC-PVTZ-RI + DEF2-QZVPP-RI
	 Reference Energy          =     -76.0576192059324541 [Eh]
	 Singles Energy            =      -0.0000000000000000 [Eh]
	 Same-Spin Energy          =      -0.0687886625519206 [Eh]
	 Opposite-Spin Energy      =      -0.2170626701597429 [Eh]
	 Correlation Energy        =      -0.2858513327116635 [Eh]
	 Total Energy              =     -76.3434705386441124 [Eh]

	 ================> DF-SCS-MP2 Energies <==================
	-----------------------------------------------------------
	 SCS Same-Spin Scale       =       0.3333333333333333 [-]
	 SCS Opposite-Spin Scale   =       1.2000000000000000 [-]
	 SCS Same-Spin Energy      =      -0.0229295541839735 [Eh]
	 SCS Opposite-Spin Energy  =      -0.2604752041916915 [Eh]
	 SCS Correlation Energy    =      -0.2834047583756650 [Eh]
	 SCS Total Energy          =     -76.3410239643081212 [Eh]
	-----------------------------------------------------------

*** Psi4 exiting successfully. Buy a developer a beer!
