                               Psi4 1.9 release

  ==> Input File <==

--------------------------------------------------------------------------
MEMORY 60 GB

molecule dimer {
1 1
Li     0.000000     0.000000     0.000000
--
0 1
O      1.657941    -1.223362    -0.380746
H      1.563734    -2.109058    -0.739610
H      2.274856    -1.293852     0.367845
O     -0.318414     0.739503     1.570188
H     -0.230935     0.394084     2.496215
H     -1.144386     1.187689     1.648398
O      0.086934     1.338117    -1.502778
H      0.226770     0.880203    -2.354309
H      0.560941     2.175826    -1.600435
O     -0.994637    -1.379905    -1.081241
H     -1.093316    -1.138620    -1.989274
H     -0.474365    -2.168984    -1.125378

units ang
no_reorient
no_com
symmetry c1
}

set {
basis        aug-cc-pVTZ
scf_type     df
}

energy("mp2", bsse_type="cp")
--------------------------------------------------------------------------

                               Psi4 1.9 release
    Molecular point group: c1
  Charge       = 0
  Multiplicity = 1
  Basis Set: AUG-CC-PVTZ
    Blend: AUG-CC-PVTZ
  Basis Set: (AUG-CC-PVTZ AUX)
    Blend: AUG-CC-PVTZ-JKFIT + DEF2-UNIVERSAL-JKFIT
  @DF-RHF Final Energy:  -304.21107835022008
    Total Energy =                       -304.2110783502200775
 Dipole X            :         -9.1625084            9.7092069            0.5466985
 Dipole Y            :         11.2901399          -11.8634890           -0.5733491
 Dipole Z            :         27.0652330          -27.3125216           -0.2472886
 Magnitude           :                                                    0.8299157
  Basis Set: (AUG-CC-PVTZ AUX)
    Blend: AUG-CC-PVTZ-RI + DEF2-QZVPP-RI
	 Reference Energy          =    -304.2110783502200775 [Eh]
	 Singles Energy            =      -0.0000000000000000 [Eh]
	 Same-Spin Energy          =      -0.2776985613097909 [Eh]
	 Opposite-Spin Energy      =      -0.8701762975280554 [Eh]
	 Correlation Energy        =      -1.1478748588378462 [Eh]
	 Total Energy              =    -305.3589532090579155 [Eh]
	 SCS Total Energy          =    -305.3478560943569846 [Eh]
                               Psi4 1.9 release
    Molecular point group: c1
  Multiplicity = 1
  Basis Set: AUG-CC-PVTZ
    Blend: AUG-CC-PVTZ
  Basis Set: (AUG-CC-PVTZ AUX)
    Blend: AUG-CC-PVTZ-JKFIT + DEF2-UNIVERSAL-JKFIT
  @DF-RHF Final Energy:    -7.23638482121469
    Total Energy =                         -7.2363848212146884
  Basis Set: (AUG-CC-PVTZ AUX)
	 Singles Energy            =      -0.0000000000000000 [Eh]
	 Same-Spin Energy          =       0.0000000000000000 [Eh]
	 Opposite-Spin Energy      =      -0.0169157405174122 [Eh]
	 Correlation Energy        =      -0.0169157405174122 [Eh]
	 Total Energy              =      -7.2533005617321002 [Eh]
	 SCS Total Energy          =      -7.2566837098355830 [Eh]
                               Psi4 1.9 release
    Molecular point group: c1

    Geometry (in Bohr), charge = 1, multiplicity = 1:

       Center              X                  Y                   Z               Mass
    ------------   -----------------  -----------------  -----------------  -----------------
         LI           0.000000000000     0.000000000000     0.000000000000     7.016003436600
         O            3.133054422168    -2.311819132292    -0.719505663364    15.994914619570
         H            2.955028993067    -3.985542002706    -1.397660339650     1.007825032230
         H            4.298854814854    -2.445025926876     0.695126306619     1.007825032230
         O           -0.601715254512     1.397458138954     2.967225285480    15.994914619570
         H           -0.436403902783     0.744710830425     4.717162700260     1.007825032230
         H           -2.162576121808     2.244406932219     3.115020765752     1.007825032230
         O            0.164281450991     2.528674653819    -2.839838847363    15.994914619570
         H            0.428533193470     1.663342604806    -4.448999224700     1.007825032230
         H            1.060024862540     4.111715236650    -3.024383831597     1.007825032230
         O           -1.879591524247    -2.607642529150    -2.043249365616    15.994914619570
         H           -2.066067808581    -2.151679960969    -3.759183048494     1.007825032230
         H           -0.896419933503    -4.098785730500    -2.126656207615     1.007825032230

  Charge       = 1
  Multiplicity = 1
  Basis Set: AUG-CC-PVTZ
    Blend: AUG-CC-PVTZ
  Basis Set: (AUG-CC-PVTZ AUX)
    Blend: AUG-CC-PVTZ-JKFIT + DEF2-UNIVERSAL-JKFIT

    Orbital Energies [Eh]
    ---------------------

    Doubly Occupied:

       1A    -20.761503     2A    -20.751634     3A    -20.746441
       4A    -20.744544     5A     -2.535761     6A     -1.552736
       7A     -1.549950     8A     -1.534675     9A     -1.525649
      10A     -0.916643    11A     -0.899736    12A     -0.897604
      13A     -0.884254    14A     -0.817089    15A     -0.791130
      16A     -0.781064    17A     -0.774066    18A     -0.715647
      19A     -0.710731    20A     -0.692480    21A     -0.688074

  @DF-RHF Final Energy:  -311.61616884849207

   => Energetics <=

    Nuclear Repulsion Energy =            164.3917539869473217
    One-Electron Energy =                -749.4730216114868426
    Two-Electron Energy =                 273.4650987760475118
    Total Energy =                       -311.6161688484920660
 Dipole X            :         -9.0837306            9.7092069            0.6254763
 Dipole Y            :         11.2104806          -11.8634890           -0.6530084
 Dipole Z            :         26.9100051          -27.3125216           -0.4025166
 Magnitude           :                                                    0.9897778
  Basis Set: (AUG-CC-PVTZ AUX)
    Blend: AUG-CC-PVTZ-RI + DEF2-QZVPP-RI
	 Reference Energy          =    -311.6161688484920660 [Eh]
	 Singles Energy            =      -0.0000000000000000 [Eh]
	 Same-Spin Energy          =      -0.2759696549209557 [Eh]
	 Opposite-Spin Energy      =      -0.8793160903041976 [Eh]
	 Correlation Energy        =      -1.1552857452251533 [Eh]
	 Total Energy              =    -312.7714545937172375 [Eh]

	 ================> DF-SCS-MP2 Energies <==================
	-----------------------------------------------------------
	 SCS Same-Spin Scale       =       0.3333333333333333 [-]
	 SCS Opposite-Spin Scale   =       1.2000000000000000 [-]
	 SCS Same-Spin Energy      =      -0.0919898849736519 [Eh]
	 SCS Opposite-Spin Energy  =      -1.0551793083650369 [Eh]
	 SCS Correlation Energy    =      -1.1471691933386887 [Eh]
	 SCS Total Energy          =    -312.7633380418307638 [Eh]
	-----------------------------------------------------------

*** Psi4 exiting successfully. Buy a developer a beer!
