                               Psi4 1.8.2 release

  ==> Input File <==

--------------------------------------------------------------------------
MEMORY 60 GB

molecule dimer {
0 1
Gh(Li)     0.000000     0.000000     0.000000
Gh(O)     -0.640365     1.689708    -0.437904
Gh(H)     -0.947848     2.436251     0.118257
Gh(H)     -0.375875     2.071206    -1.343003
Gh(O)     -0.938579    -0.924804    -1.558802
Gh(H)     -1.517519    -0.334733    -2.007314
Gh(H)     -0.339862    -1.423081    -2.166337
Gh(O)      1.855579     0.005682    -0.344725
Gh(H)      2.067217    -0.495737    -1.130002
Gh(H)      2.498269    -0.321495     0.326646
O         -0.731485    -1.139576     1.603199
H         -0.628082    -0.542600     2.334045
H         -1.652610    -1.061287     1.341316

units ang
no_reorient
no_com
symmetry c1
}

set {
basis        aug-cc-pVTZ
scf_type     df
}

energy("mp2")
--------------------------------------------------------------------------

    Molecular point group: c1

    Geometry (in Angstrom), charge = 0, multiplicity = 1:

       Center              X                  Y                   Z               Mass
    ------------   -----------------  -----------------  -----------------  -----------------
      Gh(LI)          0.000000000000     0.000000000000     0.000000000000     7.016003436600
      Gh(O)          -0.640365000000     1.689708000000    -0.437904000000    15.994914619570
      Gh(H)          -0.947848000000     2.436251000000     0.118257000000     1.007825032230
      Gh(H)          -0.375875000000     2.071206000000    -1.343003000000     1.007825032230
      Gh(O)          -0.938579000000    -0.924804000000    -1.558802000000    15.994914619570
      Gh(H)          -1.517519000000    -0.334733000000    -2.007314000000     1.007825032230
      Gh(H)          -0.339862000000    -1.423081000000    -2.166337000000     1.007825032230
      Gh(O)           1.855579000000     0.005682000000    -0.344725000000    15.994914619570
      Gh(H)           2.067217000000    -0.495737000000    -1.130002000000     1.007825032230
      Gh(H)           2.498269000000    -0.321495000000     0.326646000000     1.007825032230
         O           -0.731485000000    -1.139576000000     1.603199000000    15.994914619570
         H           -0.628082000000    -0.542600000000     2.334045000000     1.007825032230
         H           -1.652610000000    -1.061287000000     1.341316000000     1.007825032230

  Charge       = 0
  Multiplicity = 1
  Basis Set: AUG-CC-PVTZ
    Blend: AUG-CC-PVTZ
  Basis Set: (AUG-CC-PVTZ AUX)
    Blend: AUG-CC-PVTZ-JKFIT + DEF2-UNIVERSAL-JKFIT

    Orbital Energies [Eh]
    ---------------------

    Doubly Occupied:

       1A    -20.566268     2A     -1.354104     3A     -0.720359
       4A     -0.583799     5A     -0.510301

  @DF-RHF Final Energy:   -76.06083147805009

   => Energetics <=

    Nuclear Repulsion Energy =              9.2140592561778352
    One-Electron Energy =                -123.0801187668067058
    Two-Electron Energy =                  37.8052280325787962
    Total Energy =                        -76.0608314780500763
 Dipole X            :         14.8239408          -15.3683338           -0.5443929
 Dipole Y            :         20.7098676          -20.2587995            0.4510681
 Dipole Z            :        -30.8678972           31.1822820            0.3143848
 Magnitude           :                                                    0.7737338
  Basis Set: (AUG-CC-PVTZ AUX)
    Blend: AUG-CC-PVTZ-RI + DEF2-QZVPP-RI
	 Reference Energy          =     -76.0608314780500905 [Eh]
	 Singles Energy            =      -0.0000000000000000 [Eh]
	 Same-Spin Energy          =      -0.0683732484901294 [Eh]
	 Opposite-Spin Energy      =      -0.2158533350004489 [Eh]
	 Correlation Energy        =      -0.2842265834905783 [Eh]
	 Total Energy              =     -76.3450580615406693 [Eh]

	 ================> DF-SCS-MP2 Energies <==================
	-----------------------------------------------------------
	 SCS Same-Spin Scale       =       0.3333333333333333 [-]
	 SCS Opposite-Spin Scale   =       1.2000000000000000 [-]
	 SCS Same-Spin Energy      =      -0.0227910828300431 [Eh]
	 SCS Opposite-Spin Energy  =      -0.2590240020005387 [Eh]
	 SCS Correlation Energy    =      -0.2818150848305818 [Eh]
	 SCS Total Energy          =     -76.3426465628806739 [Eh]
	-----------------------------------------------------------

*** Psi4 exiting successfully. Buy a developer a beer!
