                               Psi4 1.8.2 release

  ==> Input File <==

--------------------------------------------------------------------------
MEMORY 60 GB

molecule dimer {
0 1
Gh(Li)     0.000000     0.000000     0.000000
Gh(O)      0.181903     1.777450    -0.729930
Gh(H)      0.593085     1.934525    -1.596672
Gh(H)      0.280321     2.525539    -0.178489
Gh(O)     -1.196907    -1.054425    -1.199409
Gh(H)     -2.179947    -1.140973    -1.113703
Gh(H)     -0.981597    -0.750434    -2.076686
O          1.630893    -0.829171     0.343299
H          1.796402    -1.357139     1.140948
H          2.284558    -1.180292    -0.243308

units ang
no_reorient
no_com
symmetry c1
}

set {
basis        aug-cc-pVTZ
scf_type     df
}

energy("mp2")
--------------------------------------------------------------------------

    Molecular point group: c1

    Geometry (in Angstrom), charge = 0, multiplicity = 1:

       Center              X                  Y                   Z               Mass
    ------------   -----------------  -----------------  -----------------  -----------------
      Gh(LI)          0.000000000000     0.000000000000     0.000000000000     7.016003436600
      Gh(O)           0.181903000000     1.777450000000    -0.729930000000    15.994914619570
      Gh(H)           0.593085000000     1.934525000000    -1.596672000000     1.007825032230
      Gh(H)           0.280321000000     2.525539000000    -0.178489000000     1.007825032230
      Gh(O)          -1.196907000000    -1.054425000000    -1.199409000000    15.994914619570
      Gh(H)          -2.179947000000    -1.140973000000    -1.113703000000     1.007825032230
      Gh(H)          -0.981597000000    -0.750434000000    -2.076686000000     1.007825032230
         O            1.630893000000    -0.829171000000     0.343299000000    15.994914619570
         H            1.796402000000    -1.357139000000     1.140948000000     1.007825032230
         H            2.284558000000    -1.180292000000    -0.243308000000     1.007825032230

  Charge       = 0
  Multiplicity = 1
  Basis Set: AUG-CC-PVTZ
    Blend: AUG-CC-PVTZ
  Basis Set: (AUG-CC-PVTZ AUX)
    Blend: AUG-CC-PVTZ-JKFIT + DEF2-UNIVERSAL-JKFIT

    Orbital Energies [Eh]
    ---------------------

    Doubly Occupied:

       1A    -20.568654     2A     -1.355687     3A     -0.710094
       4A     -0.591610     5A     -0.511266

  @DF-RHF Final Energy:   -76.05977560428749

   => Energetics <=

    Nuclear Repulsion Energy =              9.1945187025279562
    One-Electron Energy =                -123.0339648633702296
    Two-Electron Energy =                  37.7796705565547768
    Total Energy =                        -76.0597756042874948
 Dipole X            :        -31.8268465           32.3674256            0.5405791
 Dipole Y            :         16.7526750          -17.3302985           -0.5776235
 Dipole Z            :         -6.7517876            6.8862225            0.1344349
 Magnitude           :                                                    0.8024633
  Basis Set: (AUG-CC-PVTZ AUX)
    Blend: AUG-CC-PVTZ-RI + DEF2-QZVPP-RI
	 Reference Energy          =     -76.0597756042874948 [Eh]
	 Singles Energy            =      -0.0000000000000000 [Eh]
	 Same-Spin Energy          =      -0.0685111727016313 [Eh]
	 Opposite-Spin Energy      =      -0.2160822602744703 [Eh]
	 Correlation Energy        =      -0.2845934329761016 [Eh]
	 Total Energy              =     -76.3443690372635899 [Eh]

	 ================> DF-SCS-MP2 Energies <==================
	-----------------------------------------------------------
	 SCS Same-Spin Scale       =       0.3333333333333333 [-]
	 SCS Opposite-Spin Scale   =       1.2000000000000000 [-]
	 SCS Same-Spin Energy      =      -0.0228370575672104 [Eh]
	 SCS Opposite-Spin Energy  =      -0.2592987123293643 [Eh]
	 SCS Correlation Energy    =      -0.2821357698965747 [Eh]
	 SCS Total Energy          =     -76.3419113741840647 [Eh]
	-----------------------------------------------------------

*** Psi4 exiting successfully. Buy a developer a beer!
