                               Psi4 1.8.2 release

  ==> Input File <==

--------------------------------------------------------------------------
MEMORY 60 GB

molecule dimer {
1 1
Li         0.000000     0.000000     0.000000
O         -0.207258     1.893567    -0.189270
H         -1.121865     2.058966     0.128404
H         -0.276352     2.100735    -1.147691
O         -0.450346    -0.540463     1.792528
H         -1.197754    -1.034385     1.966029
H         -0.329736    -0.092928     2.623816
O          1.811809    -0.507348    -0.752479
H          2.033480    -0.946021     0.085056
H          1.816157    -1.201410    -1.392174
O         -1.390009    -0.914970    -1.164105
H         -2.030872    -0.570429    -0.544099
H         -1.574691    -1.795563    -1.145738

units ang
no_reorient
no_com
symmetry c1
}

set {
basis        aug-cc-pVTZ
scf_type     df
}

energy("mp2")
--------------------------------------------------------------------------

    Molecular point group: c1

    Geometry (in Angstrom), charge = 1, multiplicity = 1:

       Center              X                  Y                   Z               Mass
    ------------   -----------------  -----------------  -----------------  -----------------
         LI           0.000000000000     0.000000000000     0.000000000000     7.016003436600
         O           -0.207258000000     1.893567000000    -0.189270000000    15.994914619570
         H           -1.121865000000     2.058966000000     0.128404000000     1.007825032230
         H           -0.276352000000     2.100735000000    -1.147691000000     1.007825032230
         O           -0.450346000000    -0.540463000000     1.792528000000    15.994914619570
         H           -1.197754000000    -1.034385000000     1.966029000000     1.007825032230
         H           -0.329736000000    -0.092928000000     2.623816000000     1.007825032230
         O            1.811809000000    -0.507348000000    -0.752479000000    15.994914619570
         H            2.033480000000    -0.946021000000     0.085056000000     1.007825032230
         H            1.816157000000    -1.201410000000    -1.392174000000     1.007825032230
         O           -1.390009000000    -0.914970000000    -1.164105000000    15.994914619570
         H           -2.030872000000    -0.570429000000    -0.544099000000     1.007825032230
         H           -1.574691000000    -1.795563000000    -1.145738000000     1.007825032230

  Charge       = 1
  Multiplicity = 1
  Basis Set: AUG-CC-PVTZ
    Blend: AUG-CC-PVTZ
  Basis Set: (AUG-CC-PVTZ AUX)
    Blend: AUG-CC-PVTZ-JKFIT + DEF2-UNIVERSAL-JKFIT

    Orbital Energies [Eh]
    ---------------------

    Doubly Occupied:

       1A    -20.773438     2A    -20.760760     3A    -20.758185
       4A    -20.742320     5A     -2.553177     6A     -1.584691
       7A     -1.574380     8A     -1.535408     9A     -1.533332
      10A     -0.938011    11A     -0.929455    12A     -0.895371
      13A     -0.888960    14A     -0.833334    15A     -0.803623
      16A     -0.786544    17A     -0.765784    18A     -0.733453
      19A     -0.721667    20A     -0.708224    21A     -0.694827

  @DF-RHF Final Energy:  -311.60937465205723

   => Energetics <=

    Nuclear Repulsion Energy =            163.3925295581425985
    One-Electron Energy =                -746.9739209819414327
    Two-Electron Energy =                 271.9720167717415507
    Total Energy =                       -311.6093746520572267
 Dipole X            :          7.1231147           -8.6323918           -1.5092770
 Dipole Y            :          2.9209900           -3.8451146           -0.9241245
 Dipole Z            :          4.4565008           -3.6528500            0.8036508
 Magnitude           :                                                    1.9436507
  Basis Set: (AUG-CC-PVTZ AUX)
    Blend: AUG-CC-PVTZ-RI + DEF2-QZVPP-RI
	 Reference Energy          =    -311.6093746520572267 [Eh]
	 Singles Energy            =      -0.0000000000000000 [Eh]
	 Same-Spin Energy          =      -0.2750660677052687 [Eh]
	 Opposite-Spin Energy      =      -0.8775610361295116 [Eh]
	 Correlation Energy        =      -1.1526271038347804 [Eh]
	 Total Energy              =    -312.7620017558920154 [Eh]

	 ================> DF-SCS-MP2 Energies <==================
	-----------------------------------------------------------
	 SCS Same-Spin Scale       =       0.3333333333333333 [-]
	 SCS Opposite-Spin Scale   =       1.2000000000000000 [-]
	 SCS Same-Spin Energy      =      -0.0916886892350896 [Eh]
	 SCS Opposite-Spin Energy  =      -1.0530732433554140 [Eh]
	 SCS Correlation Energy    =      -1.1447619325905036 [Eh]
	 SCS Total Energy          =    -312.7541365846477106 [Eh]
	-----------------------------------------------------------

*** Psi4 exiting successfully. Buy a developer a beer!
