                               Psi4 1.8.2 release

  ==> Input File <==

--------------------------------------------------------------------------
MEMORY 60 GB

molecule dimer {
0 1
Gh(Li)     0.000000     0.000000     0.000000
Gh(O)     -1.162740     1.014321     1.159155
Gh(H)     -0.442200     0.986359     1.801023
Gh(H)     -1.860620     0.437939     1.470678
Gh(O)      1.767946     0.216161     0.641309
Gh(H)      2.204606    -0.360946     0.000281
Gh(H)      2.328164     0.028607     1.374471
Gh(O)     -0.688386    -1.786161     0.152623
Gh(H)     -1.542320    -1.770103    -0.317065
Gh(H)     -0.023824    -2.188879    -0.406850
O          0.091354     1.071377    -1.593210
H         -0.332237     0.917174    -2.464800
H          0.896186     1.508063    -1.838482

units ang
no_reorient
no_com
symmetry c1
}

set {
basis        aug-cc-pVTZ
scf_type     df
}

energy("mp2")
--------------------------------------------------------------------------

    Molecular point group: c1

    Geometry (in Angstrom), charge = 0, multiplicity = 1:

       Center              X                  Y                   Z               Mass
    ------------   -----------------  -----------------  -----------------  -----------------
      Gh(LI)          0.000000000000     0.000000000000     0.000000000000     7.016003436600
      Gh(O)          -1.162740000000     1.014321000000     1.159155000000    15.994914619570
      Gh(H)          -0.442200000000     0.986359000000     1.801023000000     1.007825032230
      Gh(H)          -1.860620000000     0.437939000000     1.470678000000     1.007825032230
      Gh(O)           1.767946000000     0.216161000000     0.641309000000    15.994914619570
      Gh(H)           2.204606000000    -0.360946000000     0.000281000000     1.007825032230
      Gh(H)           2.328164000000     0.028607000000     1.374471000000     1.007825032230
      Gh(O)          -0.688386000000    -1.786161000000     0.152623000000    15.994914619570
      Gh(H)          -1.542320000000    -1.770103000000    -0.317065000000     1.007825032230
      Gh(H)          -0.023824000000    -2.188879000000    -0.406850000000     1.007825032230
         O            0.091354000000     1.071377000000    -1.593210000000    15.994914619570
         H           -0.332237000000     0.917174000000    -2.464800000000     1.007825032230
         H            0.896186000000     1.508063000000    -1.838482000000     1.007825032230

  Charge       = 0
  Multiplicity = 1
  Basis Set: AUG-CC-PVTZ
    Blend: AUG-CC-PVTZ
  Basis Set: (AUG-CC-PVTZ AUX)
    Blend: AUG-CC-PVTZ-JKFIT + DEF2-UNIVERSAL-JKFIT

    Orbital Energies [Eh]
    ---------------------

    Doubly Occupied:

       1A    -20.569236     2A     -1.351689     3A     -0.709016
       4A     -0.588097     5A     -0.510438

  @DF-RHF Final Energy:   -76.05936098270671

   => Energetics <=

    Nuclear Repulsion Energy =              9.1328738050868079
    One-Electron Energy =                -122.9275135204085956
    Two-Electron Energy =                  37.7352787326150931
    Total Energy =                        -76.0593609827066928
 Dipole X            :         -2.1912362            2.4467815            0.2555453
 Dipole Y            :        -20.5916601           20.7799066            0.1882465
 Dipole Z            :         31.4863557          -32.2178689           -0.7315132
 Magnitude           :                                                    0.7974031
  Basis Set: (AUG-CC-PVTZ AUX)
    Blend: AUG-CC-PVTZ-RI + DEF2-QZVPP-RI
	 Reference Energy          =     -76.0593609827067070 [Eh]
	 Singles Energy            =      -0.0000000000000000 [Eh]
	 Same-Spin Energy          =      -0.0686111661715185 [Eh]
	 Opposite-Spin Energy      =      -0.2165628140650666 [Eh]
	 Correlation Energy        =      -0.2851739802365852 [Eh]
	 Total Energy              =     -76.3445349629432854 [Eh]

	 ================> DF-SCS-MP2 Energies <==================
	-----------------------------------------------------------
	 SCS Same-Spin Scale       =       0.3333333333333333 [-]
	 SCS Opposite-Spin Scale   =       1.2000000000000000 [-]
	 SCS Same-Spin Energy      =      -0.0228703887238395 [Eh]
	 SCS Opposite-Spin Energy  =      -0.2598753768780799 [Eh]
	 SCS Correlation Energy    =      -0.2827457656019194 [Eh]
	 SCS Total Energy          =     -76.3421067483086233 [Eh]
	-----------------------------------------------------------

*** Psi4 exiting successfully. Buy a developer a beer!
