                               Psi4 1.8.2 release

  ==> Input File <==

--------------------------------------------------------------------------
MEMORY 60 GB

molecule dimer {
1 1
Li         0.000000     0.000000     0.000000
Gh(O)     -0.727283     0.314785     1.727344
Gh(H)     -1.654172     0.224618     1.375025
Gh(H)     -0.529874    -0.561861     2.080328
Gh(O)      2.025004     0.493240     0.043276
Gh(H)      2.399730     1.368867     0.126067
Gh(H)      2.753158    -0.052861    -0.386141
Gh(O)     -0.799008     1.568141    -0.789295
Gh(H)     -1.113890     2.383029    -0.292064
Gh(H)     -1.171737     1.638519    -1.664769
Gh(O)     -0.598285    -1.751833    -0.349378
Gh(H)      0.061024    -2.131900    -0.949506
Gh(H)     -1.462483    -2.009864    -0.695588

units ang
no_reorient
no_com
symmetry c1
}

set {
basis        aug-cc-pVTZ
scf_type     df
}

energy("mp2")
--------------------------------------------------------------------------

    Molecular point group: c1

    Geometry (in Angstrom), charge = 1, multiplicity = 1:

       Center              X                  Y                   Z               Mass
    ------------   -----------------  -----------------  -----------------  -----------------
         LI           0.000000000000     0.000000000000     0.000000000000     7.016003436600
      Gh(O)          -0.727283000000     0.314785000000     1.727344000000    15.994914619570
      Gh(H)          -1.654172000000     0.224618000000     1.375025000000     1.007825032230
      Gh(H)          -0.529874000000    -0.561861000000     2.080328000000     1.007825032230
      Gh(O)           2.025004000000     0.493240000000     0.043276000000    15.994914619570
      Gh(H)           2.399730000000     1.368867000000     0.126067000000     1.007825032230
      Gh(H)           2.753158000000    -0.052861000000    -0.386141000000     1.007825032230
      Gh(O)          -0.799008000000     1.568141000000    -0.789295000000    15.994914619570
      Gh(H)          -1.113890000000     2.383029000000    -0.292064000000     1.007825032230
      Gh(H)          -1.171737000000     1.638519000000    -1.664769000000     1.007825032230
      Gh(O)          -0.598285000000    -1.751833000000    -0.349378000000    15.994914619570
      Gh(H)           0.061024000000    -2.131900000000    -0.949506000000     1.007825032230
      Gh(H)          -1.462483000000    -2.009864000000    -0.695588000000     1.007825032230

  Charge       = 1
  Multiplicity = 1
  Basis Set: AUG-CC-PVTZ
    Blend: AUG-CC-PVTZ
  Basis Set: (AUG-CC-PVTZ AUX)
    Blend: AUG-CC-PVTZ-JKFIT + DEF2-UNIVERSAL-JKFIT

    Orbital Energies [Eh]
    ---------------------

    Doubly Occupied:

       1A     -2.792352

  @DF-RHF Final Energy:    -7.23638493575374

   => Energetics <=

    Nuclear Repulsion Energy =              0.0000000000000000
    One-Electron Energy =                  -8.8880656058958678
    Two-Electron Energy =                   1.6516806701421334
    Total Energy =                         -7.2363849357537342
 Dipole X            :          0.0000095            0.0000000            0.0000095
 Dipole Y            :         -0.0000018            0.0000000           -0.0000018
 Dipole Z            :         -0.0000032            0.0000000           -0.0000032
 Magnitude           :                                                    0.0000101
  Basis Set: (AUG-CC-PVTZ AUX)
    Blend: AUG-CC-PVTZ-RI + DEF2-QZVPP-RI
	 Reference Energy          =      -7.2363849357537351 [Eh]
	 Singles Energy            =      -0.0000000000000000 [Eh]
	 Same-Spin Energy          =       0.0000000000000000 [Eh]
	 Opposite-Spin Energy      =      -0.0171296907937715 [Eh]
	 Correlation Energy        =      -0.0171296907937715 [Eh]
	 Total Energy              =      -7.2535146265475063 [Eh]

	 ================> DF-SCS-MP2 Energies <==================
	-----------------------------------------------------------
	 SCS Same-Spin Scale       =       0.3333333333333333 [-]
	 SCS Opposite-Spin Scale   =       1.2000000000000000 [-]
	 SCS Same-Spin Energy      =       0.0000000000000000 [Eh]
	 SCS Opposite-Spin Energy  =      -0.0205556289525258 [Eh]
	 SCS Correlation Energy    =      -0.0205556289525258 [Eh]
	 SCS Total Energy          =      -7.2569405647062606 [Eh]
	-----------------------------------------------------------

*** Psi4 exiting successfully. Buy a developer a beer!
