                               Psi4 1.8.2 release

  ==> Input File <==

--------------------------------------------------------------------------
MEMORY 60 GB

molecule dimer {
1 1
Li         0.000000     0.000000     0.000000
O          1.056062    -1.621139     0.605492
H          0.657898    -1.924066     1.466835
H          0.678270    -2.222927    -0.068093
O         -1.664286    -1.351635    -0.323212
H         -2.097255    -1.625415     0.520939
H         -1.181759    -2.115258    -0.708871
O          1.307126     0.723288    -1.076590
H          1.447275     1.658691    -1.070913
H          1.155631     0.530295    -2.029499
O         -0.786428     0.739205     1.471793
H         -1.448992     0.238338     1.921415
H         -1.179357     1.636730     1.603301

units ang
no_reorient
no_com
symmetry c1
}

set {
basis        aug-cc-pVTZ
scf_type     df
}

energy("mp2")
--------------------------------------------------------------------------

    Molecular point group: c1

    Geometry (in Angstrom), charge = 1, multiplicity = 1:

       Center              X                  Y                   Z               Mass
    ------------   -----------------  -----------------  -----------------  -----------------
         LI           0.000000000000     0.000000000000     0.000000000000     7.016003436600
         O            1.056062000000    -1.621139000000     0.605492000000    15.994914619570
         H            0.657898000000    -1.924066000000     1.466835000000     1.007825032230
         H            0.678270000000    -2.222927000000    -0.068093000000     1.007825032230
         O           -1.664286000000    -1.351635000000    -0.323212000000    15.994914619570
         H           -2.097255000000    -1.625415000000     0.520939000000     1.007825032230
         H           -1.181759000000    -2.115258000000    -0.708871000000     1.007825032230
         O            1.307126000000     0.723288000000    -1.076590000000    15.994914619570
         H            1.447275000000     1.658691000000    -1.070913000000     1.007825032230
         H            1.155631000000     0.530295000000    -2.029499000000     1.007825032230
         O           -0.786428000000     0.739205000000     1.471793000000    15.994914619570
         H           -1.448992000000     0.238338000000     1.921415000000     1.007825032230
         H           -1.179357000000     1.636730000000     1.603301000000     1.007825032230

  Charge       = 1
  Multiplicity = 1
  Basis Set: AUG-CC-PVTZ
    Blend: AUG-CC-PVTZ
  Basis Set: (AUG-CC-PVTZ AUX)
    Blend: AUG-CC-PVTZ-JKFIT + DEF2-UNIVERSAL-JKFIT

    Orbital Energies [Eh]
    ---------------------

    Doubly Occupied:

       1A    -20.767351     2A    -20.762563     3A    -20.756830
       4A    -20.751720     5A     -2.543232     6A     -1.559433
       7A     -1.547093     8A     -1.536949     9A     -1.522959
      10A     -0.916528    11A     -0.903909    12A     -0.898577
      13A     -0.882218    14A     -0.822472    15A     -0.802616
      16A     -0.775477    17A     -0.760382    18A     -0.726643
      19A     -0.716385    20A     -0.711097    21A     -0.682394

  @DF-RHF Final Energy:  -311.59263625801515

   => Energetics <=

    Nuclear Repulsion Energy =            165.7894708278943483
    One-Electron Energy =                -752.0705570766546089
    Two-Electron Energy =                 274.6884499907451413
    Total Energy =                       -311.5926362580151476
 Dipole X            :          3.8788502           -5.0427285           -1.1638783
 Dipole Y            :         29.4978705          -30.0577192           -0.5598487
 Dipole Z            :        -13.0282355           13.3319762            0.3037407
 Magnitude           :                                                    1.3267636
  Basis Set: (AUG-CC-PVTZ AUX)
    Blend: AUG-CC-PVTZ-RI + DEF2-QZVPP-RI
	 Reference Energy          =    -311.5926362580151476 [Eh]
	 Singles Energy            =      -0.0000000000000000 [Eh]
	 Same-Spin Energy          =      -0.2775608894592150 [Eh]
	 Opposite-Spin Energy      =      -0.8835141108561790 [Eh]
	 Correlation Energy        =      -1.1610750003153940 [Eh]
	 Total Energy              =    -312.7537112583305543 [Eh]

	 ================> DF-SCS-MP2 Energies <==================
	-----------------------------------------------------------
	 SCS Same-Spin Scale       =       0.3333333333333333 [-]
	 SCS Opposite-Spin Scale   =       1.2000000000000000 [-]
	 SCS Same-Spin Energy      =      -0.0925202964864050 [Eh]
	 SCS Opposite-Spin Energy  =      -1.0602169330274147 [Eh]
	 SCS Correlation Energy    =      -1.1527372295138196 [Eh]
	 SCS Total Energy          =    -312.7453734875289797 [Eh]
	-----------------------------------------------------------

*** Psi4 exiting successfully. Buy a developer a beer!
