                               Psi4 1.8.2 release

  ==> Input File <==

--------------------------------------------------------------------------
MEMORY 60 GB

molecule dimer {
1 1
Li         0.000000     0.000000     0.000000
O         -0.428160     1.212107    -1.751504
H          0.387713     1.643643    -1.963741
H         -1.121361     1.575916    -2.325391
O          1.781596    -0.020473     0.442877
H          2.189669     0.324703     1.208714
H          2.203752    -0.870775     0.253747
O         -1.533512     0.539063     0.971746
H         -2.298372     0.645210     0.470736
H         -1.196049     1.459017     1.138273
O         -1.049215    -1.406233    -0.742604
H         -1.939552    -1.034779    -0.873238
H         -1.113130    -2.374025    -0.865088

units ang
no_reorient
no_com
symmetry c1
}

set {
basis        aug-cc-pVTZ
scf_type     df
}

energy("mp2")
--------------------------------------------------------------------------

    Molecular point group: c1

    Geometry (in Angstrom), charge = 1, multiplicity = 1:

       Center              X                  Y                   Z               Mass
    ------------   -----------------  -----------------  -----------------  -----------------
         LI           0.000000000000     0.000000000000     0.000000000000     7.016003436600
         O           -0.428160000000     1.212107000000    -1.751504000000    15.994914619570
         H            0.387713000000     1.643643000000    -1.963741000000     1.007825032230
         H           -1.121361000000     1.575916000000    -2.325391000000     1.007825032230
         O            1.781596000000    -0.020473000000     0.442877000000    15.994914619570
         H            2.189669000000     0.324703000000     1.208714000000     1.007825032230
         H            2.203752000000    -0.870775000000     0.253747000000     1.007825032230
         O           -1.533512000000     0.539063000000     0.971746000000    15.994914619570
         H           -2.298372000000     0.645210000000     0.470736000000     1.007825032230
         H           -1.196049000000     1.459017000000     1.138273000000     1.007825032230
         O           -1.049215000000    -1.406233000000    -0.742604000000    15.994914619570
         H           -1.939552000000    -1.034779000000    -0.873238000000     1.007825032230
         H           -1.113130000000    -2.374025000000    -0.865088000000     1.007825032230

  Charge       = 1
  Multiplicity = 1
  Basis Set: AUG-CC-PVTZ
    Blend: AUG-CC-PVTZ
  Basis Set: (AUG-CC-PVTZ AUX)
    Blend: AUG-CC-PVTZ-JKFIT + DEF2-UNIVERSAL-JKFIT

    Orbital Energies [Eh]
    ---------------------

    Doubly Occupied:

       1A    -20.761345     2A    -20.748489     3A    -20.740596
       4A    -20.737045     5A     -2.538438     6A     -1.558728
       7A     -1.547424     8A     -1.526302     9A     -1.520733
      10A     -0.926743    11A     -0.916250    12A     -0.898714
      13A     -0.888139    14A     -0.806434    15A     -0.789468
      16A     -0.779502    17A     -0.757861    18A     -0.717793
      19A     -0.712899    20A     -0.685024    21A     -0.678562

  @DF-RHF Final Energy:  -311.61108013251948

   => Energetics <=

    Nuclear Repulsion Energy =            166.3554608118615761
    One-Electron Energy =                -753.4601010975385407
    Two-Electron Energy =                 275.4935601531574889
    Total Energy =                       -311.6110801325194757
 Dipole X            :         23.7010248          -24.0404495           -0.3394247
 Dipole Y            :         -7.0332696            7.4920498            0.4587802
 Dipole Z            :         21.2540769          -21.9054558           -0.6513789
 Magnitude           :                                                    0.8660155
  Basis Set: (AUG-CC-PVTZ AUX)
    Blend: AUG-CC-PVTZ-RI + DEF2-QZVPP-RI
	 Reference Energy          =    -311.6110801325194757 [Eh]
	 Singles Energy            =      -0.0000000000000000 [Eh]
	 Same-Spin Energy          =      -0.2758133270968874 [Eh]
	 Opposite-Spin Energy      =      -0.8785039566057437 [Eh]
	 Correlation Energy        =      -1.1543172837026310 [Eh]
	 Total Energy              =    -312.7653974162221289 [Eh]

	 ================> DF-SCS-MP2 Energies <==================
	-----------------------------------------------------------
	 SCS Same-Spin Scale       =       0.3333333333333333 [-]
	 SCS Opposite-Spin Scale   =       1.2000000000000000 [-]
	 SCS Same-Spin Energy      =      -0.0919377756989625 [Eh]
	 SCS Opposite-Spin Energy  =      -1.0542047479268923 [Eh]
	 SCS Correlation Energy    =      -1.1461425236258549 [Eh]
	 SCS Total Energy          =    -312.7572226561453590 [Eh]
	-----------------------------------------------------------

*** Psi4 exiting successfully. Buy a developer a beer!
