                               Psi4 1.8.2 release

  ==> Input File <==

--------------------------------------------------------------------------
MEMORY 60 GB

molecule dimer {
0 1
Gh(Li)     0.000000     0.000000     0.000000
O         -1.588684    -0.034020     1.157610
H         -1.734204     0.297682     2.041051
H         -2.231280    -0.760891     1.129331
Gh(O)      0.752858    -1.834769    -0.351999
Gh(H)      0.203711    -2.620276    -0.124323
Gh(H)      1.157037    -2.060091    -1.215316
Gh(O)      0.239663     0.677904    -1.813970
Gh(H)      0.022632     0.033005    -2.467301
Gh(H)     -0.269429     1.542115    -2.063452

units ang
no_reorient
no_com
symmetry c1
}

set {
basis        aug-cc-pVTZ
scf_type     df
}

energy("mp2")
--------------------------------------------------------------------------

    Molecular point group: c1

    Geometry (in Angstrom), charge = 0, multiplicity = 1:

       Center              X                  Y                   Z               Mass
    ------------   -----------------  -----------------  -----------------  -----------------
      Gh(LI)          0.000000000000     0.000000000000     0.000000000000     7.016003436600
         O           -1.588684000000    -0.034020000000     1.157610000000    15.994914619570
         H           -1.734204000000     0.297682000000     2.041051000000     1.007825032230
         H           -2.231280000000    -0.760891000000     1.129331000000     1.007825032230
      Gh(O)           0.752858000000    -1.834769000000    -0.351999000000    15.994914619570
      Gh(H)           0.203711000000    -2.620276000000    -0.124323000000     1.007825032230
      Gh(H)           1.157037000000    -2.060091000000    -1.215316000000     1.007825032230
      Gh(O)           0.239663000000     0.677904000000    -1.813970000000    15.994914619570
      Gh(H)           0.022632000000     0.033005000000    -2.467301000000     1.007825032230
      Gh(H)          -0.269429000000     1.542115000000    -2.063452000000     1.007825032230

  Charge       = 0
  Multiplicity = 1
  Basis Set: AUG-CC-PVTZ
    Blend: AUG-CC-PVTZ
  Basis Set: (AUG-CC-PVTZ AUX)
    Blend: AUG-CC-PVTZ-JKFIT + DEF2-UNIVERSAL-JKFIT

    Orbital Energies [Eh]
    ---------------------

    Doubly Occupied:

       1A    -20.569562     2A     -1.353478     3A     -0.707297
       4A     -0.591213     5A     -0.510967

  @DF-RHF Final Energy:   -76.05959401029529

   => Energetics <=

    Nuclear Repulsion Energy =              9.1522566083648051
    One-Electron Energy =                -122.9586647049471537
    Two-Electron Energy =                  37.7468140862870598
    Total Energy =                        -76.0595940102952852
 Dipole X            :         30.9952941          -31.5111000           -0.5158059
 Dipole Y            :          1.1327734           -1.3896460           -0.2568726
 Dipole Z            :        -22.9291062           23.4916806            0.5625744
 Magnitude           :                                                    0.8053131
  Basis Set: (AUG-CC-PVTZ AUX)
    Blend: AUG-CC-PVTZ-RI + DEF2-QZVPP-RI
	 Reference Energy          =     -76.0595940102952852 [Eh]
	 Singles Energy            =      -0.0000000000000000 [Eh]
	 Same-Spin Energy          =      -0.0685917058188781 [Eh]
	 Opposite-Spin Energy      =      -0.2162979213730508 [Eh]
	 Correlation Energy        =      -0.2848896271919289 [Eh]
	 Total Energy              =     -76.3444836374872153 [Eh]

	 ================> DF-SCS-MP2 Energies <==================
	-----------------------------------------------------------
	 SCS Same-Spin Scale       =       0.3333333333333333 [-]
	 SCS Opposite-Spin Scale   =       1.2000000000000000 [-]
	 SCS Same-Spin Energy      =      -0.0228639019396260 [Eh]
	 SCS Opposite-Spin Energy  =      -0.2595575056476610 [Eh]
	 SCS Correlation Energy    =      -0.2824214075872870 [Eh]
	 SCS Total Energy          =     -76.3420154178825783 [Eh]
	-----------------------------------------------------------

*** Psi4 exiting successfully. Buy a developer a beer!
