                               Psi4 1.8.2 release

  ==> Input File <==

--------------------------------------------------------------------------
MEMORY 60 GB

molecule dimer {
1 1
Li         0.000000     0.000000     0.000000
Gh(O)     -0.101817    -1.813061    -0.036423
Gh(H)     -0.471130    -2.250333    -0.763005
Gh(H)      0.017925    -2.436449     0.694730
Gh(O)     -1.581748     0.573901     1.043698
Gh(H)     -1.213933     0.624233     1.880971
Gh(H)     -1.854365     1.500408     0.850485
Gh(O)      0.827787     0.387737    -1.742301
Gh(H)      1.255888    -0.363424    -2.191003
Gh(H)      1.514001     1.055898    -1.641117

units ang
no_reorient
no_com
symmetry c1
}

set {
basis        aug-cc-pVTZ
scf_type     df
}

energy("mp2")
--------------------------------------------------------------------------

    Molecular point group: c1

    Geometry (in Angstrom), charge = 1, multiplicity = 1:

       Center              X                  Y                   Z               Mass
    ------------   -----------------  -----------------  -----------------  -----------------
         LI           0.000000000000     0.000000000000     0.000000000000     7.016003436600
      Gh(O)          -0.101817000000    -1.813061000000    -0.036423000000    15.994914619570
      Gh(H)          -0.471130000000    -2.250333000000    -0.763005000000     1.007825032230
      Gh(H)           0.017925000000    -2.436449000000     0.694730000000     1.007825032230
      Gh(O)          -1.581748000000     0.573901000000     1.043698000000    15.994914619570
      Gh(H)          -1.213933000000     0.624233000000     1.880971000000     1.007825032230
      Gh(H)          -1.854365000000     1.500408000000     0.850485000000     1.007825032230
      Gh(O)           0.827787000000     0.387737000000    -1.742301000000    15.994914619570
      Gh(H)           1.255888000000    -0.363424000000    -2.191003000000     1.007825032230
      Gh(H)           1.514001000000     1.055898000000    -1.641117000000     1.007825032230

  Charge       = 1
  Multiplicity = 1
  Basis Set: AUG-CC-PVTZ
    Blend: AUG-CC-PVTZ
  Basis Set: (AUG-CC-PVTZ AUX)
    Blend: AUG-CC-PVTZ-JKFIT + DEF2-UNIVERSAL-JKFIT

    Orbital Energies [Eh]
    ---------------------

    Doubly Occupied:

       1A     -2.792356

  @DF-RHF Final Energy:    -7.23638451492273

   => Energetics <=

    Nuclear Repulsion Energy =              0.0000000000000000
    One-Electron Energy =                  -8.8880564495710832
    Two-Electron Energy =                   1.6516719346483504
    Total Energy =                         -7.2363845149227330
 Dipole X            :         -0.0000104            0.0000000           -0.0000104
 Dipole Y            :          0.0000119            0.0000000            0.0000119
 Dipole Z            :         -0.0000112            0.0000000           -0.0000112
 Magnitude           :                                                    0.0000194
  Basis Set: (AUG-CC-PVTZ AUX)
    Blend: AUG-CC-PVTZ-RI + DEF2-QZVPP-RI
	 Reference Energy          =      -7.2363845149227330 [Eh]
	 Singles Energy            =      -0.0000000000000000 [Eh]
	 Same-Spin Energy          =       0.0000000000000000 [Eh]
	 Opposite-Spin Energy      =      -0.0160578124466421 [Eh]
	 Correlation Energy        =      -0.0160578124466421 [Eh]
	 Total Energy              =      -7.2524423273693754 [Eh]

	 ================> DF-SCS-MP2 Energies <==================
	-----------------------------------------------------------
	 SCS Same-Spin Scale       =       0.3333333333333333 [-]
	 SCS Opposite-Spin Scale   =       1.2000000000000000 [-]
	 SCS Same-Spin Energy      =       0.0000000000000000 [Eh]
	 SCS Opposite-Spin Energy  =      -0.0192693749359706 [Eh]
	 SCS Correlation Energy    =      -0.0192693749359706 [Eh]
	 SCS Total Energy          =      -7.2556538898587037 [Eh]
	-----------------------------------------------------------

*** Psi4 exiting successfully. Buy a developer a beer!
