                               Psi4 1.8.2 release

  ==> Input File <==

--------------------------------------------------------------------------
MEMORY 60 GB

molecule dimer {
1 1
Li         0.000000     0.000000     0.000000
O         -1.680746     0.276584    -0.524122
H         -2.436906    -0.277091    -0.431906
H         -1.899859     1.075426    -0.063132
O         -0.071560    -1.420903     1.240510
H         -0.473745    -2.213538     0.802591
H         -0.780622    -1.152250     1.882048
O          0.700028     1.207376     1.195221
H          0.272867     1.039453     2.053918
H          0.629594     2.124003     0.978537
O          1.186987    -0.149614    -1.450273
H          1.341045     0.793609    -1.646914
H          0.746015    -0.501685    -2.225984

units ang
no_reorient
no_com
symmetry c1
}

set {
basis        aug-cc-pVTZ
scf_type     df
}

energy("mp2")
--------------------------------------------------------------------------

    Molecular point group: c1

    Geometry (in Angstrom), charge = 1, multiplicity = 1:

       Center              X                  Y                   Z               Mass
    ------------   -----------------  -----------------  -----------------  -----------------
         LI           0.000000000000     0.000000000000     0.000000000000     7.016003436600
         O           -1.680746000000     0.276584000000    -0.524122000000    15.994914619570
         H           -2.436906000000    -0.277091000000    -0.431906000000     1.007825032230
         H           -1.899859000000     1.075426000000    -0.063132000000     1.007825032230
         O           -0.071560000000    -1.420903000000     1.240510000000    15.994914619570
         H           -0.473745000000    -2.213538000000     0.802591000000     1.007825032230
         H           -0.780622000000    -1.152250000000     1.882048000000     1.007825032230
         O            0.700028000000     1.207376000000     1.195221000000    15.994914619570
         H            0.272867000000     1.039453000000     2.053918000000     1.007825032230
         H            0.629594000000     2.124003000000     0.978537000000     1.007825032230
         O            1.186987000000    -0.149614000000    -1.450273000000    15.994914619570
         H            1.341045000000     0.793609000000    -1.646914000000     1.007825032230
         H            0.746015000000    -0.501685000000    -2.225984000000     1.007825032230

  Charge       = 1
  Multiplicity = 1
  Basis Set: AUG-CC-PVTZ
    Blend: AUG-CC-PVTZ
  Basis Set: (AUG-CC-PVTZ AUX)
    Blend: AUG-CC-PVTZ-JKFIT + DEF2-UNIVERSAL-JKFIT

    Orbital Energies [Eh]
    ---------------------

    Doubly Occupied:

       1A    -20.772811     2A    -20.762059     3A    -20.760768
       4A    -20.745145     5A     -2.522345     6A     -1.578438
       7A     -1.555528     8A     -1.533549     9A     -1.532332
      10A     -0.942324    11A     -0.931603    12A     -0.895149
      13A     -0.885110    14A     -0.821930    15A     -0.802064
      16A     -0.775154    17A     -0.769897    18A     -0.746607
      19A     -0.717009    20A     -0.702579    21A     -0.699699

  @DF-RHF Final Energy:  -311.60338523776880

   => Energetics <=

    Nuclear Repulsion Energy =            171.0599593135112286
    One-Electron Energy =                -762.4224869238297515
    Two-Electron Energy =                 279.7591423725496611
    Total Energy =                       -311.6033852377688049
 Dipole X            :          0.9619938           -2.8798273           -1.9178336
 Dipole Y            :          0.3239200            0.3693867            0.6933066
 Dipole Z            :         -9.1772238            9.5239287            0.3467048
 Magnitude           :                                                    2.0685657
  Basis Set: (AUG-CC-PVTZ AUX)
    Blend: AUG-CC-PVTZ-RI + DEF2-QZVPP-RI
	 Reference Energy          =    -311.6033852377688049 [Eh]
	 Singles Energy            =      -0.0000000000000000 [Eh]
	 Same-Spin Energy          =      -0.2769100360305781 [Eh]
	 Opposite-Spin Energy      =      -0.8815612538606376 [Eh]
	 Correlation Energy        =      -1.1584712898912157 [Eh]
	 Total Energy              =    -312.7618565276600293 [Eh]

	 ================> DF-SCS-MP2 Energies <==================
	-----------------------------------------------------------
	 SCS Same-Spin Scale       =       0.3333333333333333 [-]
	 SCS Opposite-Spin Scale   =       1.2000000000000000 [-]
	 SCS Same-Spin Energy      =      -0.0923033453435260 [Eh]
	 SCS Opposite-Spin Energy  =      -1.0578735046327650 [Eh]
	 SCS Correlation Energy    =      -1.1501768499762910 [Eh]
	 SCS Total Energy          =    -312.7535620877450810 [Eh]
	-----------------------------------------------------------

*** Psi4 exiting successfully. Buy a developer a beer!
