                               Psi4 1.8.2 release

  ==> Input File <==

--------------------------------------------------------------------------
MEMORY 60 GB

molecule dimer {
0 1
Gh(Li)     0.000000     0.000000     0.000000
O          0.961071     1.351951     1.068468
H          0.543505     2.245666     1.123463
H          1.894820     1.439035     0.841481
Gh(O)      1.418184    -0.868693    -1.271038
Gh(H)      2.348027    -0.958677    -0.873231
Gh(H)      1.382908    -1.525987    -1.963044
Gh(O)     -1.084978    -1.202284     1.231747
Gh(H)     -1.926492    -1.041220     1.657002
Gh(H)     -0.514799    -1.668475     1.817292
Gh(O)     -1.045399     0.614483    -1.372430
Gh(H)     -0.839504     1.531726    -1.726197
Gh(H)     -1.458688     0.162252    -2.113895

units ang
no_reorient
no_com
symmetry c1
}

set {
basis        aug-cc-pVTZ
scf_type     df
}

energy("mp2")
--------------------------------------------------------------------------

    Molecular point group: c1

    Geometry (in Angstrom), charge = 0, multiplicity = 1:

       Center              X                  Y                   Z               Mass
    ------------   -----------------  -----------------  -----------------  -----------------
      Gh(LI)          0.000000000000     0.000000000000     0.000000000000     7.016003436600
         O            0.961071000000     1.351951000000     1.068468000000    15.994914619570
         H            0.543505000000     2.245666000000     1.123463000000     1.007825032230
         H            1.894820000000     1.439035000000     0.841481000000     1.007825032230
      Gh(O)           1.418184000000    -0.868693000000    -1.271038000000    15.994914619570
      Gh(H)           2.348027000000    -0.958677000000    -0.873231000000     1.007825032230
      Gh(H)           1.382908000000    -1.525987000000    -1.963044000000     1.007825032230
      Gh(O)          -1.084978000000    -1.202284000000     1.231747000000    15.994914619570
      Gh(H)          -1.926492000000    -1.041220000000     1.657002000000     1.007825032230
      Gh(H)          -0.514799000000    -1.668475000000     1.817292000000     1.007825032230
      Gh(O)          -1.045399000000     0.614483000000    -1.372430000000    15.994914619570
      Gh(H)          -0.839504000000     1.531726000000    -1.726197000000     1.007825032230
      Gh(H)          -1.458688000000     0.162252000000    -2.113895000000     1.007825032230

  Charge       = 0
  Multiplicity = 1
  Basis Set: AUG-CC-PVTZ
    Blend: AUG-CC-PVTZ
  Basis Set: (AUG-CC-PVTZ AUX)
    Blend: AUG-CC-PVTZ-JKFIT + DEF2-UNIVERSAL-JKFIT

    Orbital Energies [Eh]
    ---------------------

    Doubly Occupied:

       1A    -20.567744     2A     -1.340242     3A     -0.717044
       4A     -0.570751     5A     -0.507095

  @DF-RHF Final Energy:   -76.05797246311938

   => Energetics <=

    Nuclear Repulsion Energy =              9.0033912282193107
    One-Electron Energy =                -122.7169707847510267
    Two-Electron Energy =                  37.6556070934123284
    Total Energy =                        -76.0579724631193841
 Dipole X            :        -18.7893452           19.1370543            0.3477091
 Dipole Y            :        -26.7480175           27.4016127            0.6535952
 Dipole Z            :        -19.9813275           19.8661012           -0.1152264
 Magnitude           :                                                    0.7492433
  Basis Set: (AUG-CC-PVTZ AUX)
    Blend: AUG-CC-PVTZ-RI + DEF2-QZVPP-RI
	 Reference Energy          =     -76.0579724631193841 [Eh]
	 Singles Energy            =      -0.0000000000000000 [Eh]
	 Same-Spin Energy          =      -0.0686876903323981 [Eh]
	 Opposite-Spin Energy      =      -0.2167284131851832 [Eh]
	 Correlation Energy        =      -0.2854161035175812 [Eh]
	 Total Energy              =     -76.3433885666369605 [Eh]

	 ================> DF-SCS-MP2 Energies <==================
	-----------------------------------------------------------
	 SCS Same-Spin Scale       =       0.3333333333333333 [-]
	 SCS Opposite-Spin Scale   =       1.2000000000000000 [-]
	 SCS Same-Spin Energy      =      -0.0228958967774660 [Eh]
	 SCS Opposite-Spin Energy  =      -0.2600740958222198 [Eh]
	 SCS Correlation Energy    =      -0.2829699925996858 [Eh]
	 SCS Total Energy          =     -76.3409424557190732 [Eh]
	-----------------------------------------------------------

*** Psi4 exiting successfully. Buy a developer a beer!
