                               Psi4 1.9 release

  ==> Input File <==

--------------------------------------------------------------------------
MEMORY 60 GB

molecule dimer {
1 1
Li     0.000000     0.000000     0.000000
--
0 1
O      1.056062    -1.621139     0.605492
H      0.657898    -1.924066     1.466835
H      0.678270    -2.222927    -0.068093
O     -1.664286    -1.351635    -0.323212
H     -2.097255    -1.625415     0.520939
H     -1.181759    -2.115258    -0.708871
O      1.307126     0.723288    -1.076590
H      1.447275     1.658691    -1.070913
H      1.155631     0.530295    -2.029499
O     -0.786428     0.739205     1.471793
H     -1.448992     0.238338     1.921415
H     -1.179357     1.636730     1.603301

units ang
no_reorient
no_com
symmetry c1
}

set {
basis        aug-cc-pVTZ
scf_type     df
}

energy("mp2", bsse_type="cp")
--------------------------------------------------------------------------

                               Psi4 1.9 release
    Molecular point group: c1
  Charge       = 0
  Multiplicity = 1
  Basis Set: AUG-CC-PVTZ
    Blend: AUG-CC-PVTZ
  Basis Set: (AUG-CC-PVTZ AUX)
    Blend: AUG-CC-PVTZ-JKFIT + DEF2-UNIVERSAL-JKFIT
  @DF-RHF Final Energy:  -304.19809734511159
    Total Energy =                       -304.1980973451115915
 Dipole X            :          3.9440055           -5.0427285           -1.0987230
 Dipole Y            :         29.6865154          -30.0577192           -0.3712038
 Dipole Z            :        -13.1714490           13.3319762            0.1605272
 Magnitude           :                                                    1.1707918
  Basis Set: (AUG-CC-PVTZ AUX)
    Blend: AUG-CC-PVTZ-RI + DEF2-QZVPP-RI
	 Reference Energy          =    -304.1980973451115915 [Eh]
	 Singles Energy            =      -0.0000000000000000 [Eh]
	 Same-Spin Energy          =      -0.2789154534319348 [Eh]
	 Opposite-Spin Energy      =      -0.8735830916874621 [Eh]
	 Correlation Energy        =      -1.1524985451193968 [Eh]
	 Total Energy              =    -305.3505958902309771 [Eh]
	 SCS Total Energy          =    -305.3393688729472046 [Eh]
                               Psi4 1.9 release
    Molecular point group: c1
  Multiplicity = 1
  Basis Set: AUG-CC-PVTZ
    Blend: AUG-CC-PVTZ
  Basis Set: (AUG-CC-PVTZ AUX)
    Blend: AUG-CC-PVTZ-JKFIT + DEF2-UNIVERSAL-JKFIT
  @DF-RHF Final Energy:    -7.23638485556428
    Total Energy =                         -7.2363848555642827
  Basis Set: (AUG-CC-PVTZ AUX)
	 Singles Energy            =      -0.0000000000000000 [Eh]
	 Same-Spin Energy          =       0.0000000000000000 [Eh]
	 Opposite-Spin Energy      =      -0.0170152006349938 [Eh]
	 Correlation Energy        =      -0.0170152006349938 [Eh]
	 Total Energy              =      -7.2534000561992773 [Eh]
	 SCS Total Energy          =      -7.2568030963262764 [Eh]
                               Psi4 1.9 release
    Molecular point group: c1

    Geometry (in Bohr), charge = 1, multiplicity = 1:

       Center              X                  Y                   Z               Mass
    ------------   -----------------  -----------------  -----------------  -----------------
         LI           0.000000000000     0.000000000000     0.000000000000     7.016003436600
         O            1.995667951503    -3.063508721299     1.144214051156    15.994914619570
         H            1.243247038486    -3.635957787305     2.771916421236     1.007825032230
         H            1.281744539114    -4.200723226886    -0.128677121061     1.007825032230
         O           -3.145044734434    -2.554219971583    -0.610782160461    15.994914619570
         H           -3.963237565247    -3.071589190211     0.984432038070     1.007825032230
         H           -2.233200856295    -3.997258304684    -1.339572048279     1.007825032230
         O            2.470110151465     1.366816229830    -2.034460249407    15.994914619570
         H            2.734953378222     3.134471716762    -2.023732274192     1.007825032230
         H            2.183826092089     1.002112315700    -3.835197281891     1.007825032230
         O           -1.486133537392     1.396895000569     2.781285683366    15.994914619570
         H           -2.738198037979     0.450393545289     3.630948123347     1.007825032230
         H           -2.228661734142     3.092971441321     3.029799786673     1.007825032230

  Charge       = 1
  Multiplicity = 1
  Basis Set: AUG-CC-PVTZ
    Blend: AUG-CC-PVTZ
  Basis Set: (AUG-CC-PVTZ AUX)
    Blend: AUG-CC-PVTZ-JKFIT + DEF2-UNIVERSAL-JKFIT

    Orbital Energies [Eh]
    ---------------------

    Doubly Occupied:

       1A    -20.767351     2A    -20.762563     3A    -20.756830
       4A    -20.751720     5A     -2.543232     6A     -1.559433
       7A     -1.547093     8A     -1.536949     9A     -1.522959
      10A     -0.916528    11A     -0.903909    12A     -0.898577
      13A     -0.882218    14A     -0.822472    15A     -0.802616
      16A     -0.775477    17A     -0.760382    18A     -0.726643
      19A     -0.716385    20A     -0.711097    21A     -0.682394

  @DF-RHF Final Energy:  -311.59263625819273

   => Energetics <=

    Nuclear Repulsion Energy =            165.7894708278943483
    One-Electron Energy =                -752.0705570767385097
    Two-Electron Energy =                 274.6884499906514634
    Total Energy =                       -311.5926362581927265
 Dipole X            :          3.8788502           -5.0427285           -1.1638783
 Dipole Y            :         29.4978705          -30.0577192           -0.5598487
 Dipole Z            :        -13.0282355           13.3319762            0.3037407
 Magnitude           :                                                    1.3267636
  Basis Set: (AUG-CC-PVTZ AUX)
    Blend: AUG-CC-PVTZ-RI + DEF2-QZVPP-RI
	 Reference Energy          =    -311.5926362581927265 [Eh]
	 Singles Energy            =      -0.0000000000000000 [Eh]
	 Same-Spin Energy          =      -0.2775608894607404 [Eh]
	 Opposite-Spin Energy      =      -0.8835141108725795 [Eh]
	 Correlation Energy        =      -1.1610750003333199 [Eh]
	 Total Energy              =    -312.7537112585260388 [Eh]

	 ================> DF-SCS-MP2 Energies <==================
	-----------------------------------------------------------
	 SCS Same-Spin Scale       =       0.3333333333333333 [-]
	 SCS Opposite-Spin Scale   =       1.2000000000000000 [-]
	 SCS Same-Spin Energy      =      -0.0925202964869135 [Eh]
	 SCS Opposite-Spin Energy  =      -1.0602169330470954 [Eh]
	 SCS Correlation Energy    =      -1.1527372295340088 [Eh]
	 SCS Total Energy          =    -312.7453734877267379 [Eh]
	-----------------------------------------------------------

*** Psi4 exiting successfully. Buy a developer a beer!
