                               Psi4 1.8.2 release

  ==> Input File <==

--------------------------------------------------------------------------
MEMORY 60 GB

molecule dimer {
0 1
Gh(Li)     0.000000     0.000000     0.000000
Gh(O)     -0.716880     0.857356    -1.496201
Gh(H)     -0.733051     0.709649    -2.428935
Gh(H)     -1.633457     1.096310    -1.306862
Gh(O)     -0.384169     0.497773     1.852316
Gh(H)     -1.003665     1.020047     2.428236
Gh(H)      0.506112     0.522672     2.288627
Gh(O)      1.950571    -0.041794     0.161548
Gh(H)      2.264982    -0.901899     0.344035
Gh(H)      2.628264     0.655770     0.267660
O         -0.621593    -1.900324    -0.167785
H         -1.121968    -2.443415     0.395486
H          0.100099    -2.460018    -0.306883

units ang
no_reorient
no_com
symmetry c1
}

set {
basis        aug-cc-pVTZ
scf_type     df
}

energy("mp2")
--------------------------------------------------------------------------

    Molecular point group: c1

    Geometry (in Angstrom), charge = 0, multiplicity = 1:

       Center              X                  Y                   Z               Mass
    ------------   -----------------  -----------------  -----------------  -----------------
      Gh(LI)          0.000000000000     0.000000000000     0.000000000000     7.016003436600
      Gh(O)          -0.716880000000     0.857356000000    -1.496201000000    15.994914619570
      Gh(H)          -0.733051000000     0.709649000000    -2.428935000000     1.007825032230
      Gh(H)          -1.633457000000     1.096310000000    -1.306862000000     1.007825032230
      Gh(O)          -0.384169000000     0.497773000000     1.852316000000    15.994914619570
      Gh(H)          -1.003665000000     1.020047000000     2.428236000000     1.007825032230
      Gh(H)           0.506112000000     0.522672000000     2.288627000000     1.007825032230
      Gh(O)           1.950571000000    -0.041794000000     0.161548000000    15.994914619570
      Gh(H)           2.264982000000    -0.901899000000     0.344035000000     1.007825032230
      Gh(H)           2.628264000000     0.655770000000     0.267660000000     1.007825032230
         O           -0.621593000000    -1.900324000000    -0.167785000000    15.994914619570
         H           -1.121968000000    -2.443415000000     0.395486000000     1.007825032230
         H            0.100099000000    -2.460018000000    -0.306883000000     1.007825032230

  Charge       = 0
  Multiplicity = 1
  Basis Set: AUG-CC-PVTZ
    Blend: AUG-CC-PVTZ
  Basis Set: (AUG-CC-PVTZ AUX)
    Blend: AUG-CC-PVTZ-JKFIT + DEF2-UNIVERSAL-JKFIT

    Orbital Energies [Eh]
    ---------------------

    Doubly Occupied:

       1A    -20.563452     2A     -1.374510     3A     -0.723432
       4A     -0.601656     5A     -0.514482

  @DF-RHF Final Energy:   -76.05917058108447

   => Energetics <=

    Nuclear Repulsion Energy =              9.5160459915144511
    One-Electron Energy =                -123.5953648801780247
    Two-Electron Energy =                  38.0201483075790989
    Total Energy =                        -76.0591705810844871
 Dipole X            :         11.4766581          -11.3281768            0.1484813
 Dipole Y            :         37.2584151          -37.9948807           -0.7364656
 Dipole Z            :          2.6516803           -2.3691062            0.2825741
 Magnitude           :                                                    0.8026683
  Basis Set: (AUG-CC-PVTZ AUX)
    Blend: AUG-CC-PVTZ-RI + DEF2-QZVPP-RI
	 Reference Energy          =     -76.0591705810844729 [Eh]
	 Singles Energy            =      -0.0000000000000000 [Eh]
	 Same-Spin Energy          =      -0.0680182349500250 [Eh]
	 Opposite-Spin Energy      =      -0.2146582652717720 [Eh]
	 Correlation Energy        =      -0.2826765002217970 [Eh]
	 Total Energy              =     -76.3418470813062697 [Eh]

	 ================> DF-SCS-MP2 Energies <==================
	-----------------------------------------------------------
	 SCS Same-Spin Scale       =       0.3333333333333333 [-]
	 SCS Opposite-Spin Scale   =       1.2000000000000000 [-]
	 SCS Same-Spin Energy      =      -0.0226727449833417 [Eh]
	 SCS Opposite-Spin Energy  =      -0.2575899183261264 [Eh]
	 SCS Correlation Energy    =      -0.2802626633094681 [Eh]
	 SCS Total Energy          =     -76.3394332443939447 [Eh]
	-----------------------------------------------------------

*** Psi4 exiting successfully. Buy a developer a beer!
