                               Psi4 1.8.2 release

  ==> Input File <==

--------------------------------------------------------------------------
MEMORY 60 GB

molecule dimer {
0 1
Gh(Li)     0.000000     0.000000     0.000000
Gh(O)     -1.513363     0.722143    -0.727441
Gh(H)     -2.027594     0.178981    -1.343150
Gh(H)     -1.819754     1.661892    -0.823652
Gh(O)     -0.252767    -2.026350    -0.783049
Gh(H)      0.479598    -2.628908    -0.595592
Gh(H)     -1.049144    -2.293358    -0.295986
Gh(O)      0.516511     0.763586     1.671608
Gh(H)      0.437421     1.575636     1.228955
Gh(H)     -0.235072     0.629634     2.234292
O          1.457213     0.460443    -1.122910
H          1.677956    -0.213540    -1.788812
H          2.254305     0.527812    -0.514055

units ang
no_reorient
no_com
symmetry c1
}

set {
basis        aug-cc-pVTZ
scf_type     df
}

energy("mp2")
--------------------------------------------------------------------------

    Molecular point group: c1

    Geometry (in Angstrom), charge = 0, multiplicity = 1:

       Center              X                  Y                   Z               Mass
    ------------   -----------------  -----------------  -----------------  -----------------
      Gh(LI)          0.000000000000     0.000000000000     0.000000000000     7.016003436600
      Gh(O)          -1.513363000000     0.722143000000    -0.727441000000    15.994914619570
      Gh(H)          -2.027594000000     0.178981000000    -1.343150000000     1.007825032230
      Gh(H)          -1.819754000000     1.661892000000    -0.823652000000     1.007825032230
      Gh(O)          -0.252767000000    -2.026350000000    -0.783049000000    15.994914619570
      Gh(H)           0.479598000000    -2.628908000000    -0.595592000000     1.007825032230
      Gh(H)          -1.049144000000    -2.293358000000    -0.295986000000     1.007825032230
      Gh(O)           0.516511000000     0.763586000000     1.671608000000    15.994914619570
      Gh(H)           0.437421000000     1.575636000000     1.228955000000     1.007825032230
      Gh(H)          -0.235072000000     0.629634000000     2.234292000000     1.007825032230
         O            1.457213000000     0.460443000000    -1.122910000000    15.994914619570
         H            1.677956000000    -0.213540000000    -1.788812000000     1.007825032230
         H            2.254305000000     0.527812000000    -0.514055000000     1.007825032230

  Charge       = 0
  Multiplicity = 1
  Basis Set: AUG-CC-PVTZ
    Blend: AUG-CC-PVTZ
  Basis Set: (AUG-CC-PVTZ AUX)
    Blend: AUG-CC-PVTZ-JKFIT + DEF2-UNIVERSAL-JKFIT

    Orbital Energies [Eh]
    ---------------------

    Doubly Occupied:

       1A    -20.571547     2A     -1.336652     3A     -0.703963
       4A     -0.575146     5A     -0.507250

  @DF-RHF Final Energy:   -76.05631825025678

   => Energetics <=

    Nuclear Repulsion Energy =              8.8970220135599778
    One-Electron Energy =                -122.5175621955636132
    Two-Electron Energy =                  37.5642219317468502
    Total Energy =                        -76.0563182502567940
 Dipole X            :        -28.7954561           29.4607642            0.6653081
 Dipole Y            :         -7.9546655            7.5547773           -0.3998882
 Dipole Z            :         21.2859010          -21.3277268           -0.0418259
 Magnitude           :                                                    0.7773640
  Basis Set: (AUG-CC-PVTZ AUX)
    Blend: AUG-CC-PVTZ-RI + DEF2-QZVPP-RI
	 Reference Energy          =     -76.0563182502567798 [Eh]
	 Singles Energy            =      -0.0000000000000000 [Eh]
	 Same-Spin Energy          =      -0.0689580124988041 [Eh]
	 Opposite-Spin Energy      =      -0.2177104403031254 [Eh]
	 Correlation Energy        =      -0.2866684528019294 [Eh]
	 Total Energy              =     -76.3429867030587133 [Eh]

	 ================> DF-SCS-MP2 Energies <==================
	-----------------------------------------------------------
	 SCS Same-Spin Scale       =       0.3333333333333333 [-]
	 SCS Opposite-Spin Scale   =       1.2000000000000000 [-]
	 SCS Same-Spin Energy      =      -0.0229860041662680 [Eh]
	 SCS Opposite-Spin Energy  =      -0.2612525283637504 [Eh]
	 SCS Correlation Energy    =      -0.2842385325300184 [Eh]
	 SCS Total Energy          =     -76.3405567827867912 [Eh]
	-----------------------------------------------------------

*** Psi4 exiting successfully. Buy a developer a beer!
