                               Psi4 1.9 release

  ==> Input File <==

--------------------------------------------------------------------------
MEMORY 60 GB

molecule dimer {
1 1
Li     0.000000     0.000000     0.000000
--
0 1
O      1.276765     0.545153     1.397121
H      1.439625    -0.293000     1.863141
H      1.756552     1.287598     1.849105
O      0.409922     1.229791    -1.545668
H      1.146667     1.129525    -2.203588
H     -0.234316     1.541034    -2.202116
O     -1.716144     0.282187     0.825118
H     -2.643062     0.455413     0.501701
H     -1.848891    -0.348811     1.525324
O      0.520377    -1.745389    -0.656277
H     -0.250082    -2.060907    -1.141392
H      0.808173    -2.502960    -0.080864

units ang
no_reorient
no_com
symmetry c1
}

set {
basis        aug-cc-pVTZ
scf_type     df
}

energy("mp2", bsse_type="cp")
--------------------------------------------------------------------------

                               Psi4 1.9 release
    Molecular point group: c1
  Charge       = 0
  Multiplicity = 1
  Basis Set: AUG-CC-PVTZ
    Blend: AUG-CC-PVTZ
  Basis Set: (AUG-CC-PVTZ AUX)
    Blend: AUG-CC-PVTZ-JKFIT + DEF2-UNIVERSAL-JKFIT
  @DF-RHF Final Energy:  -304.20550186862448
    Total Energy =                       -304.2055018686244807
 Dipole X            :         -8.2581117            7.7517057           -0.5064060
 Dipole Y            :         -4.0790794            3.2159888           -0.8630905
 Dipole Z            :         -0.4568148            0.5171481            0.0603334
 Magnitude           :                                                    1.0025031
  Basis Set: (AUG-CC-PVTZ AUX)
    Blend: AUG-CC-PVTZ-RI + DEF2-QZVPP-RI
	 Reference Energy          =    -304.2055018686244807 [Eh]
	 Singles Energy            =      -0.0000000000000000 [Eh]
	 Same-Spin Energy          =      -0.2785717203525189 [Eh]
	 Opposite-Spin Energy      =      -0.8736336150742542 [Eh]
	 Correlation Energy        =      -1.1522053354267732 [Eh]
	 Total Energy              =    -305.3577072040512803 [Eh]
	 SCS Total Energy          =    -305.3467194468311163 [Eh]
                               Psi4 1.9 release
    Molecular point group: c1
  Multiplicity = 1
  Basis Set: AUG-CC-PVTZ
    Blend: AUG-CC-PVTZ
  Basis Set: (AUG-CC-PVTZ AUX)
    Blend: AUG-CC-PVTZ-JKFIT + DEF2-UNIVERSAL-JKFIT
  @DF-RHF Final Energy:    -7.23638490801151
    Total Energy =                         -7.2363849080115106
  Basis Set: (AUG-CC-PVTZ AUX)
	 Singles Energy            =      -0.0000000000000000 [Eh]
	 Same-Spin Energy          =       0.0000000000000000 [Eh]
	 Opposite-Spin Energy      =      -0.0169724921245123 [Eh]
	 Correlation Energy        =      -0.0169724921245123 [Eh]
	 Total Energy              =      -7.2533574001360224 [Eh]
	 SCS Total Energy          =      -7.2567518985609247 [Eh]
                               Psi4 1.9 release
    Molecular point group: c1

    Geometry (in Bohr), charge = 1, multiplicity = 1:

       Center              X                  Y                   Z               Mass
    ------------   -----------------  -----------------  -----------------  -----------------
         LI           0.000000000000     0.000000000000     0.000000000000     7.016003436600
         O            2.412736176570     1.030189866472     2.640176054126    15.994914619570
         H            2.720496973362    -0.553689754759     3.520826223112     1.007825032230
         H            3.319402205125     2.433207579687     3.494302027215     1.007825032230
         O            0.774640312800     2.323968181553    -2.920889200884    15.994914619570
         H            2.166886587100     2.134492901858    -4.164177813345     1.007825032230
         H           -0.442793066813     2.912132210019    -4.161396136489     1.007825032230
         O           -3.243042151848     0.533256146165     1.559247041186    15.994914619570
         H           -4.994663312605     0.860605843973     0.948077486868     1.007825032230
         H           -3.493897625824    -0.659157259547     2.882444612588     1.007825032230
         O            0.983370011987    -3.298307192387    -1.240183792437    15.994914619570
         H           -0.472586488907    -3.894549800039    -2.156918281789     1.007825032230
         H            1.527225631990    -4.729908902976    -0.152810813409     1.007825032230

  Charge       = 1
  Multiplicity = 1
  Basis Set: AUG-CC-PVTZ
    Blend: AUG-CC-PVTZ
  Basis Set: (AUG-CC-PVTZ AUX)
    Blend: AUG-CC-PVTZ-JKFIT + DEF2-UNIVERSAL-JKFIT

    Orbital Energies [Eh]
    ---------------------

    Doubly Occupied:

       1A    -20.757748     2A    -20.752573     3A    -20.738745
       4A    -20.737374     5A     -2.531442     6A     -1.536270
       7A     -1.534589     8A     -1.516611     9A     -1.511711
      10A     -0.900474    11A     -0.891972    12A     -0.886004
      13A     -0.850645    14A     -0.796056    15A     -0.788365
      16A     -0.778246    17A     -0.756925    18A     -0.711157
      19A     -0.696698    20A     -0.681915    21A     -0.680247

  @DF-RHF Final Energy:  -311.61703543955377

   => Energetics <=

    Nuclear Repulsion Energy =            161.1387764616004290
    One-Electron Energy =                -743.4400843481961374
    Two-Electron Energy =                 270.6842724470419626
    Total Energy =                       -311.6170354395537743
 Dipole X            :         -8.2216981            7.7517057           -0.4699924
 Dipole Y            :         -4.0969270            3.2159888           -0.8809382
 Dipole Z            :         -0.4368809            0.5171481            0.0802672
 Magnitude           :                                                    1.0016924
  Basis Set: (AUG-CC-PVTZ AUX)
    Blend: AUG-CC-PVTZ-RI + DEF2-QZVPP-RI
	 Reference Energy          =    -311.6170354395537743 [Eh]
	 Singles Energy            =      -0.0000000000000000 [Eh]
	 Same-Spin Energy          =      -0.2767816666695293 [Eh]
	 Opposite-Spin Energy      =      -0.8823115297837495 [Eh]
	 Correlation Energy        =      -1.1590931964532789 [Eh]
	 Total Energy              =    -312.7761286360070585 [Eh]

	 ================> DF-SCS-MP2 Energies <==================
	-----------------------------------------------------------
	 SCS Same-Spin Scale       =       0.3333333333333333 [-]
	 SCS Opposite-Spin Scale   =       1.2000000000000000 [-]
	 SCS Same-Spin Energy      =      -0.0922605555565098 [Eh]
	 SCS Opposite-Spin Energy  =      -1.0587738357404994 [Eh]
	 SCS Correlation Energy    =      -1.1510343912970091 [Eh]
	 SCS Total Energy          =    -312.7680698308507772 [Eh]
	-----------------------------------------------------------

*** Psi4 exiting successfully. Buy a developer a beer!
