                               Psi4 1.9 release

  ==> Input File <==

--------------------------------------------------------------------------
MEMORY 60 GB

molecule dimer {
1 1
Li     0.000000     0.000000     0.000000
--
0 1
O      0.961071     1.351951     1.068468
H      0.543505     2.245666     1.123463
H      1.894820     1.439035     0.841481
O      1.418184    -0.868693    -1.271038
H      2.348027    -0.958677    -0.873231
H      1.382908    -1.525987    -1.963044
O     -1.084978    -1.202284     1.231747
H     -1.926492    -1.041220     1.657002
H     -0.514799    -1.668475     1.817292
O     -1.045399     0.614483    -1.372430
H     -0.839504     1.531726    -1.726197
H     -1.458688     0.162252    -2.113895

units ang
no_reorient
no_com
symmetry c1
}

set {
basis        aug-cc-pVTZ
scf_type     df
}

energy("mp2", bsse_type="cp")
--------------------------------------------------------------------------

                               Psi4 1.9 release
    Molecular point group: c1
  Charge       = 0
  Multiplicity = 1
  Basis Set: AUG-CC-PVTZ
    Blend: AUG-CC-PVTZ
  Basis Set: (AUG-CC-PVTZ AUX)
    Blend: AUG-CC-PVTZ-JKFIT + DEF2-UNIVERSAL-JKFIT
  @DF-RHF Final Energy:  -304.20895883895975
    Total Energy =                       -304.2089588389597452
 Dipole X            :         -5.8890890            6.4643770            0.5752881
 Dipole Y            :          1.4573792           -1.2321468            0.2252324
 Dipole Z            :          7.1979807           -7.5270683           -0.3290876
 Magnitude           :                                                    0.6999890
  Basis Set: (AUG-CC-PVTZ AUX)
    Blend: AUG-CC-PVTZ-RI + DEF2-QZVPP-RI
	 Reference Energy          =    -304.2089588389597452 [Eh]
	 Singles Energy            =      -0.0000000000000000 [Eh]
	 Same-Spin Energy          =      -0.2775537313454773 [Eh]
	 Opposite-Spin Energy      =      -0.8707816343999686 [Eh]
	 Correlation Energy        =      -1.1483353657454458 [Eh]
	 Total Energy              =    -305.3572942047051697 [Eh]
	 SCS Total Energy          =    -305.3464147106881796 [Eh]
                               Psi4 1.9 release
    Molecular point group: c1
  Multiplicity = 1
  Basis Set: AUG-CC-PVTZ
    Blend: AUG-CC-PVTZ
  Basis Set: (AUG-CC-PVTZ AUX)
    Blend: AUG-CC-PVTZ-JKFIT + DEF2-UNIVERSAL-JKFIT
  @DF-RHF Final Energy:    -7.23638481647058
    Total Energy =                         -7.2363848164705828
  Basis Set: (AUG-CC-PVTZ AUX)
	 Singles Energy            =      -0.0000000000000000 [Eh]
	 Same-Spin Energy          =      -0.0000000000000000 [Eh]
	 Opposite-Spin Energy      =      -0.0168076291009114 [Eh]
	 Correlation Energy        =      -0.0168076291009114 [Eh]
	 Total Energy              =      -7.2531924455714947 [Eh]
	 SCS Total Energy          =      -7.2565539713916767 [Eh]
                               Psi4 1.9 release
    Molecular point group: c1

    Geometry (in Bohr), charge = 1, multiplicity = 1:

       Center              X                  Y                   Z               Mass
    ------------   -----------------  -----------------  -----------------  -----------------
         LI           0.000000000000     0.000000000000     0.000000000000     7.016003436600
         O            1.816160977120     2.554817125039     2.019111893816    15.994914619570
         H            1.027075597817     4.243693709252     2.123037382085     1.007825032230
         H            3.580690857040     2.719382034948     1.590168629776     1.007825032230
         O            2.679979355506    -1.641591857102    -2.401913715050    15.994914619570
         H            4.437127965180    -1.811636972776    -1.650167434260     1.007825032230
         H            2.613317376705    -2.883697501009    -3.709615532223     1.007825032230
         O           -2.050311272147    -2.271987485020     2.327664485854    15.994914619570
         H           -3.640542262886    -1.967620636349     3.131279969336     1.007825032230
         H           -0.972829119660    -3.152960797173     3.434184169986     1.007825032230
         O           -1.975517801827     1.161204578750    -2.593516826362    15.994914619570
         H           -1.586432641226     2.894542639243    -3.262039568587     1.007825032230
         H           -2.756520822492     0.306611843308    -3.994682607975     1.007825032230

  Charge       = 1
  Multiplicity = 1
  Basis Set: AUG-CC-PVTZ
    Blend: AUG-CC-PVTZ
  Basis Set: (AUG-CC-PVTZ AUX)
    Blend: AUG-CC-PVTZ-JKFIT + DEF2-UNIVERSAL-JKFIT

    Orbital Energies [Eh]
    ---------------------

    Doubly Occupied:

       1A    -20.752058     2A    -20.747778     3A    -20.744162
       4A    -20.730274     5A     -2.530176     6A     -1.530257
       7A     -1.526918     8A     -1.524795     9A     -1.516626
      10A     -0.904303    11A     -0.901060    12A     -0.886865
      13A     -0.878844    14A     -0.793635    15A     -0.775519
      16A     -0.769861    17A     -0.760037    18A     -0.701080
      19A     -0.694041    20A     -0.685503    21A     -0.682004

  @DF-RHF Final Energy:  -311.62302808356696

   => Energetics <=

    Nuclear Repulsion Energy =            160.4520164038378027
    One-Electron Energy =                -742.0784912137256697
    Two-Electron Energy =                 270.0034467263209308
    Total Energy =                       -311.6230280835669646
 Dipole X            :         -5.8419117            6.4643770            0.6224653
 Dipole Y            :          1.5183823           -1.2321468            0.2862355
 Dipole Z            :          7.0818668           -7.5270683           -0.4452015
 Magnitude           :                                                    0.8170668
  Basis Set: (AUG-CC-PVTZ AUX)
    Blend: AUG-CC-PVTZ-RI + DEF2-QZVPP-RI
	 Reference Energy          =    -311.6230280835669646 [Eh]
	 Singles Energy            =      -0.0000000000000000 [Eh]
	 Same-Spin Energy          =      -0.2757298195637816 [Eh]
	 Opposite-Spin Energy      =      -0.8795320992638106 [Eh]
	 Correlation Energy        =      -1.1552619188275921 [Eh]
	 Total Energy              =    -312.7782900023945558 [Eh]

	 ================> DF-SCS-MP2 Energies <==================
	-----------------------------------------------------------
	 SCS Same-Spin Scale       =       0.3333333333333333 [-]
	 SCS Opposite-Spin Scale   =       1.2000000000000000 [-]
	 SCS Same-Spin Energy      =      -0.0919099398545939 [Eh]
	 SCS Opposite-Spin Energy  =      -1.0554385191165727 [Eh]
	 SCS Correlation Energy    =      -1.1473484589711667 [Eh]
	 SCS Total Energy          =    -312.7703765425381448 [Eh]
	-----------------------------------------------------------

*** Psi4 exiting successfully. Buy a developer a beer!
