                               Psi4 1.8.2 release

  ==> Input File <==

--------------------------------------------------------------------------
MEMORY 60 GB

molecule dimer {
1 1
Li         0.000000     0.000000     0.000000
Gh(O)     -1.599702    -0.834408    -0.032075
Gh(H)     -1.671490    -1.753336     0.164015
Gh(H)     -2.104307    -0.340925     0.605746
Gh(O)      0.005994     1.410873     1.210917
Gh(H)     -0.817348     1.609443     0.914181
Gh(H)     -0.067656     1.285409     2.156336
Gh(O)      0.490183     0.722640    -1.670961
Gh(H)      0.003584     0.447548    -2.436389
Gh(H)      1.403239     0.553948    -1.838663

units ang
no_reorient
no_com
symmetry c1
}

set {
basis        aug-cc-pVTZ
scf_type     df
}

energy("mp2")
--------------------------------------------------------------------------

    Molecular point group: c1

    Geometry (in Angstrom), charge = 1, multiplicity = 1:

       Center              X                  Y                   Z               Mass
    ------------   -----------------  -----------------  -----------------  -----------------
         LI           0.000000000000     0.000000000000     0.000000000000     7.016003436600
      Gh(O)          -1.599702000000    -0.834408000000    -0.032075000000    15.994914619570
      Gh(H)          -1.671490000000    -1.753336000000     0.164015000000     1.007825032230
      Gh(H)          -2.104307000000    -0.340925000000     0.605746000000     1.007825032230
      Gh(O)           0.005994000000     1.410873000000     1.210917000000    15.994914619570
      Gh(H)          -0.817348000000     1.609443000000     0.914181000000     1.007825032230
      Gh(H)          -0.067656000000     1.285409000000     2.156336000000     1.007825032230
      Gh(O)           0.490183000000     0.722640000000    -1.670961000000    15.994914619570
      Gh(H)           0.003584000000     0.447548000000    -2.436389000000     1.007825032230
      Gh(H)           1.403239000000     0.553948000000    -1.838663000000     1.007825032230

  Charge       = 1
  Multiplicity = 1
  Basis Set: AUG-CC-PVTZ
    Blend: AUG-CC-PVTZ
  Basis Set: (AUG-CC-PVTZ AUX)
    Blend: AUG-CC-PVTZ-JKFIT + DEF2-UNIVERSAL-JKFIT

    Orbital Energies [Eh]
    ---------------------

    Doubly Occupied:

       1A     -2.792357

  @DF-RHF Final Energy:    -7.23638458778055

   => Energetics <=

    Nuclear Repulsion Energy =              0.0000000000000000
    One-Electron Energy =                  -8.8880561068760464
    Two-Electron Energy =                   1.6516715190954936
    Total Energy =                         -7.2363845877805524
 Dipole X            :         -0.0000068            0.0000000           -0.0000068
 Dipole Y            :          0.0000107            0.0000000            0.0000107
 Dipole Z            :         -0.0000044            0.0000000           -0.0000044
 Magnitude           :                                                    0.0000134
  Basis Set: (AUG-CC-PVTZ AUX)
    Blend: AUG-CC-PVTZ-RI + DEF2-QZVPP-RI
	 Reference Energy          =      -7.2363845877805533 [Eh]
	 Singles Energy            =      -0.0000000000000000 [Eh]
	 Same-Spin Energy          =       0.0000000000000000 [Eh]
	 Opposite-Spin Energy      =      -0.0166843136589321 [Eh]
	 Correlation Energy        =      -0.0166843136589321 [Eh]
	 Total Energy              =      -7.2530689014394856 [Eh]

	 ================> DF-SCS-MP2 Energies <==================
	-----------------------------------------------------------
	 SCS Same-Spin Scale       =       0.3333333333333333 [-]
	 SCS Opposite-Spin Scale   =       1.2000000000000000 [-]
	 SCS Same-Spin Energy      =       0.0000000000000000 [Eh]
	 SCS Opposite-Spin Energy  =      -0.0200211763907186 [Eh]
	 SCS Correlation Energy    =      -0.0200211763907186 [Eh]
	 SCS Total Energy          =      -7.2564057641712720 [Eh]
	-----------------------------------------------------------

*** Psi4 exiting successfully. Buy a developer a beer!
