                               Psi4 1.8.2 release

  ==> Input File <==

--------------------------------------------------------------------------
MEMORY 60 GB

molecule dimer {
1 1
Li         0.000000     0.000000     0.000000
Gh(O)     -0.018395    -0.041580     1.983631
Gh(H)     -0.386092    -0.854160     2.162791
Gh(H)     -0.588807     0.602468     2.387195
Gh(O)      1.568867    -0.245466    -0.873446
Gh(H)      1.921565     0.450636    -1.498824
Gh(H)      1.715073    -1.117651    -1.298721
Gh(O)     -1.777084    -0.764231    -0.483763
Gh(H)     -1.639151    -1.700624    -0.297360
Gh(H)     -2.502232    -0.406567     0.104343

units ang
no_reorient
no_com
symmetry c1
}

set {
basis        aug-cc-pVTZ
scf_type     df
}

energy("mp2")
--------------------------------------------------------------------------

    Molecular point group: c1

    Geometry (in Angstrom), charge = 1, multiplicity = 1:

       Center              X                  Y                   Z               Mass
    ------------   -----------------  -----------------  -----------------  -----------------
         LI           0.000000000000     0.000000000000     0.000000000000     7.016003436600
      Gh(O)          -0.018395000000    -0.041580000000     1.983631000000    15.994914619570
      Gh(H)          -0.386092000000    -0.854160000000     2.162791000000     1.007825032230
      Gh(H)          -0.588807000000     0.602468000000     2.387195000000     1.007825032230
      Gh(O)           1.568867000000    -0.245466000000    -0.873446000000    15.994914619570
      Gh(H)           1.921565000000     0.450636000000    -1.498824000000     1.007825032230
      Gh(H)           1.715073000000    -1.117651000000    -1.298721000000     1.007825032230
      Gh(O)          -1.777084000000    -0.764231000000    -0.483763000000    15.994914619570
      Gh(H)          -1.639151000000    -1.700624000000    -0.297360000000     1.007825032230
      Gh(H)          -2.502232000000    -0.406567000000     0.104343000000     1.007825032230

  Charge       = 1
  Multiplicity = 1
  Basis Set: AUG-CC-PVTZ
    Blend: AUG-CC-PVTZ
  Basis Set: (AUG-CC-PVTZ AUX)
    Blend: AUG-CC-PVTZ-JKFIT + DEF2-UNIVERSAL-JKFIT

    Orbital Energies [Eh]
    ---------------------

    Doubly Occupied:

       1A     -2.792357

  @DF-RHF Final Energy:    -7.23638450168814

   => Energetics <=

    Nuclear Repulsion Energy =              0.0000000000000000
    One-Electron Energy =                  -8.8880546862596681
    Two-Electron Energy =                   1.6516701845715258
    Total Energy =                         -7.2363845016881427
 Dipole X            :         -0.0000052            0.0000000           -0.0000052
 Dipole Y            :         -0.0000169            0.0000000           -0.0000169
 Dipole Z            :          0.0000049            0.0000000            0.0000049
 Magnitude           :                                                    0.0000184
  Basis Set: (AUG-CC-PVTZ AUX)
    Blend: AUG-CC-PVTZ-RI + DEF2-QZVPP-RI
	 Reference Energy          =      -7.2363845016881427 [Eh]
	 Singles Energy            =      -0.0000000000000000 [Eh]
	 Same-Spin Energy          =       0.0000000000000000 [Eh]
	 Opposite-Spin Energy      =      -0.0158592982529746 [Eh]
	 Correlation Energy        =      -0.0158592982529746 [Eh]
	 Total Energy              =      -7.2522437999411169 [Eh]

	 ================> DF-SCS-MP2 Energies <==================
	-----------------------------------------------------------
	 SCS Same-Spin Scale       =       0.3333333333333333 [-]
	 SCS Opposite-Spin Scale   =       1.2000000000000000 [-]
	 SCS Same-Spin Energy      =       0.0000000000000000 [Eh]
	 SCS Opposite-Spin Energy  =      -0.0190311579035695 [Eh]
	 SCS Correlation Energy    =      -0.0190311579035695 [Eh]
	 SCS Total Energy          =      -7.2554156595917121 [Eh]
	-----------------------------------------------------------

*** Psi4 exiting successfully. Buy a developer a beer!
