                               Psi4 1.8.2 release

  ==> Input File <==

--------------------------------------------------------------------------
MEMORY 60 GB

molecule dimer {
0 1
Gh(Li)     0.000000     0.000000     0.000000
Gh(O)     -0.640365     1.689708    -0.437904
Gh(H)     -0.947848     2.436251     0.118257
Gh(H)     -0.375875     2.071206    -1.343003
Gh(O)     -0.938579    -0.924804    -1.558802
Gh(H)     -1.517519    -0.334733    -2.007314
Gh(H)     -0.339862    -1.423081    -2.166337
O          1.855579     0.005682    -0.344725
H          2.067217    -0.495737    -1.130002
H          2.498269    -0.321495     0.326646
Gh(O)     -0.731485    -1.139576     1.603199
Gh(H)     -0.628082    -0.542600     2.334045
Gh(H)     -1.652610    -1.061287     1.341316

units ang
no_reorient
no_com
symmetry c1
}

set {
basis        aug-cc-pVTZ
scf_type     df
}

energy("mp2")
--------------------------------------------------------------------------

    Molecular point group: c1

    Geometry (in Angstrom), charge = 0, multiplicity = 1:

       Center              X                  Y                   Z               Mass
    ------------   -----------------  -----------------  -----------------  -----------------
      Gh(LI)          0.000000000000     0.000000000000     0.000000000000     7.016003436600
      Gh(O)          -0.640365000000     1.689708000000    -0.437904000000    15.994914619570
      Gh(H)          -0.947848000000     2.436251000000     0.118257000000     1.007825032230
      Gh(H)          -0.375875000000     2.071206000000    -1.343003000000     1.007825032230
      Gh(O)          -0.938579000000    -0.924804000000    -1.558802000000    15.994914619570
      Gh(H)          -1.517519000000    -0.334733000000    -2.007314000000     1.007825032230
      Gh(H)          -0.339862000000    -1.423081000000    -2.166337000000     1.007825032230
         O            1.855579000000     0.005682000000    -0.344725000000    15.994914619570
         H            2.067217000000    -0.495737000000    -1.130002000000     1.007825032230
         H            2.498269000000    -0.321495000000     0.326646000000     1.007825032230
      Gh(O)          -0.731485000000    -1.139576000000     1.603199000000    15.994914619570
      Gh(H)          -0.628082000000    -0.542600000000     2.334045000000     1.007825032230
      Gh(H)          -1.652610000000    -1.061287000000     1.341316000000     1.007825032230

  Charge       = 0
  Multiplicity = 1
  Basis Set: AUG-CC-PVTZ
    Blend: AUG-CC-PVTZ
  Basis Set: (AUG-CC-PVTZ AUX)
    Blend: AUG-CC-PVTZ-JKFIT + DEF2-UNIVERSAL-JKFIT

    Orbital Energies [Eh]
    ---------------------

    Doubly Occupied:

       1A    -20.569447     2A     -1.347361     3A     -0.709588
       4A     -0.583298     5A     -0.509433

  @DF-RHF Final Energy:   -76.05912983013543

   => Energetics <=

    Nuclear Repulsion Energy =              9.0734618948372461
    One-Electron Energy =                -122.8269261822259182
    Two-Electron Energy =                  37.6943344572532339
    Total Energy =                        -76.0591298301354328
 Dipole X            :        -36.1184605           36.6798071            0.5613466
 Dipole Y            :          0.9123728           -1.4584453           -0.5460725
 Dipole Z            :          6.6495224           -6.7296095           -0.0800872
 Magnitude           :                                                    0.7872224
  Basis Set: (AUG-CC-PVTZ AUX)
    Blend: AUG-CC-PVTZ-RI + DEF2-QZVPP-RI
	 Reference Energy          =     -76.0591298301354328 [Eh]
	 Singles Energy            =      -0.0000000000000000 [Eh]
	 Same-Spin Energy          =      -0.0686713220978045 [Eh]
	 Opposite-Spin Energy      =      -0.2167495855309068 [Eh]
	 Correlation Energy        =      -0.2854209076287113 [Eh]
	 Total Energy              =     -76.3445507377641377 [Eh]

	 ================> DF-SCS-MP2 Energies <==================
	-----------------------------------------------------------
	 SCS Same-Spin Scale       =       0.3333333333333333 [-]
	 SCS Opposite-Spin Scale   =       1.2000000000000000 [-]
	 SCS Same-Spin Energy      =      -0.0228904406992682 [Eh]
	 SCS Opposite-Spin Energy  =      -0.2600995026370882 [Eh]
	 SCS Correlation Energy    =      -0.2829899433363564 [Eh]
	 SCS Total Energy          =     -76.3421197734717936 [Eh]
	-----------------------------------------------------------

*** Psi4 exiting successfully. Buy a developer a beer!
