                               Psi4 1.8.2 release

  ==> Input File <==

--------------------------------------------------------------------------
MEMORY 60 GB

molecule dimer {
0 1
Gh(Li)     0.000000     0.000000     0.000000
Gh(O)     -0.266443     1.938313    -0.248340
Gh(H)     -0.088316     2.610611    -0.926278
Gh(H)     -0.885622     2.402495     0.339436
Gh(O)     -1.305581    -1.041945    -1.192735
Gh(H)     -1.614892    -1.898100    -0.899961
Gh(H)     -0.845776    -1.154356    -2.000716
O          2.066109    -0.498860    -0.290542
H          2.623530    -0.650184     0.499648
H          2.518418    -0.862145    -1.036711
Gh(O)     -0.099893    -0.786188     1.651962
Gh(H)      0.363831    -1.589227     1.918952
Gh(H)     -1.018921    -0.908196     1.943922

units ang
no_reorient
no_com
symmetry c1
}

set {
basis        aug-cc-pVTZ
scf_type     df
}

energy("mp2")
--------------------------------------------------------------------------

    Molecular point group: c1

    Geometry (in Angstrom), charge = 0, multiplicity = 1:

       Center              X                  Y                   Z               Mass
    ------------   -----------------  -----------------  -----------------  -----------------
      Gh(LI)          0.000000000000     0.000000000000     0.000000000000     7.016003436600
      Gh(O)          -0.266443000000     1.938313000000    -0.248340000000    15.994914619570
      Gh(H)          -0.088316000000     2.610611000000    -0.926278000000     1.007825032230
      Gh(H)          -0.885622000000     2.402495000000     0.339436000000     1.007825032230
      Gh(O)          -1.305581000000    -1.041945000000    -1.192735000000    15.994914619570
      Gh(H)          -1.614892000000    -1.898100000000    -0.899961000000     1.007825032230
      Gh(H)          -0.845776000000    -1.154356000000    -2.000716000000     1.007825032230
         O            2.066109000000    -0.498860000000    -0.290542000000    15.994914619570
         H            2.623530000000    -0.650184000000     0.499648000000     1.007825032230
         H            2.518418000000    -0.862145000000    -1.036711000000     1.007825032230
      Gh(O)          -0.099893000000    -0.786188000000     1.651962000000    15.994914619570
      Gh(H)           0.363831000000    -1.589227000000     1.918952000000     1.007825032230
      Gh(H)          -1.018921000000    -0.908196000000     1.943922000000     1.007825032230

  Charge       = 0
  Multiplicity = 1
  Basis Set: AUG-CC-PVTZ
    Blend: AUG-CC-PVTZ
  Basis Set: (AUG-CC-PVTZ AUX)
    Blend: AUG-CC-PVTZ-JKFIT + DEF2-UNIVERSAL-JKFIT

    Orbital Energies [Eh]
    ---------------------

    Doubly Occupied:

       1A    -20.566273     2A     -1.349008     3A     -0.721364
       4A     -0.577499     5A     -0.508953

  @DF-RHF Final Energy:   -76.05972877069679

   => Energetics <=

    Nuclear Repulsion Energy =              9.1446537705566424
    One-Electron Energy =                -122.9625686496261352
    Two-Electron Energy =                  37.7581861083727119
    Total Energy =                        -76.0597287706967791
 Dipole X            :        -40.2760730           40.9519147            0.6758417
 Dipole Y            :         10.0542359          -10.3995578           -0.3453219
 Dipole Z            :          5.4315164           -5.4072604            0.0242560
 Magnitude           :                                                    0.7593403
  Basis Set: (AUG-CC-PVTZ AUX)
    Blend: AUG-CC-PVTZ-RI + DEF2-QZVPP-RI
	 Reference Energy          =     -76.0597287706967933 [Eh]
	 Singles Energy            =      -0.0000000000000000 [Eh]
	 Same-Spin Energy          =      -0.0684432942832724 [Eh]
	 Opposite-Spin Energy      =      -0.2159381311872572 [Eh]
	 Correlation Energy        =      -0.2843814254705295 [Eh]
	 Total Energy              =     -76.3441101961673212 [Eh]

	 ================> DF-SCS-MP2 Energies <==================
	-----------------------------------------------------------
	 SCS Same-Spin Scale       =       0.3333333333333333 [-]
	 SCS Opposite-Spin Scale   =       1.2000000000000000 [-]
	 SCS Same-Spin Energy      =      -0.0228144314277575 [Eh]
	 SCS Opposite-Spin Energy  =      -0.2591257574247086 [Eh]
	 SCS Correlation Energy    =      -0.2819401888524660 [Eh]
	 SCS Total Energy          =     -76.3416689595492528 [Eh]
	-----------------------------------------------------------

*** Psi4 exiting successfully. Buy a developer a beer!
