                               Psi4 1.8.2 release

  ==> Input File <==

--------------------------------------------------------------------------
MEMORY 60 GB

molecule dimer {
1 1
Li         0.000000     0.000000     0.000000
O          1.858934    -0.623976    -0.526781
H          1.848269    -1.539102    -0.846784
H          2.660861    -0.574173     0.041889
O         -0.075512     1.555018     1.114340
H         -0.140334     2.353388     0.602470
H          0.715955     1.755071     1.596003
O         -0.507566     0.606809    -1.968779
H         -0.605809    -0.214582    -2.524121
H         -0.969069     1.265079    -2.433698
O         -0.854187    -1.323968     1.103405
H         -1.682373    -1.653239     0.783875
H         -1.040480    -0.735892     1.855917

units ang
no_reorient
no_com
symmetry c1
}

set {
basis        aug-cc-pVTZ
scf_type     df
}

energy("mp2")
--------------------------------------------------------------------------

    Molecular point group: c1

    Geometry (in Angstrom), charge = 1, multiplicity = 1:

       Center              X                  Y                   Z               Mass
    ------------   -----------------  -----------------  -----------------  -----------------
         LI           0.000000000000     0.000000000000     0.000000000000     7.016003436600
         O            1.858934000000    -0.623976000000    -0.526781000000    15.994914619570
         H            1.848269000000    -1.539102000000    -0.846784000000     1.007825032230
         H            2.660861000000    -0.574173000000     0.041889000000     1.007825032230
         O           -0.075512000000     1.555018000000     1.114340000000    15.994914619570
         H           -0.140334000000     2.353388000000     0.602470000000     1.007825032230
         H            0.715955000000     1.755071000000     1.596003000000     1.007825032230
         O           -0.507566000000     0.606809000000    -1.968779000000    15.994914619570
         H           -0.605809000000    -0.214582000000    -2.524121000000     1.007825032230
         H           -0.969069000000     1.265079000000    -2.433698000000     1.007825032230
         O           -0.854187000000    -1.323968000000     1.103405000000    15.994914619570
         H           -1.682373000000    -1.653239000000     0.783875000000     1.007825032230
         H           -1.040480000000    -0.735892000000     1.855917000000     1.007825032230

  Charge       = 1
  Multiplicity = 1
  Basis Set: AUG-CC-PVTZ
    Blend: AUG-CC-PVTZ
  Basis Set: (AUG-CC-PVTZ AUX)
    Blend: AUG-CC-PVTZ-JKFIT + DEF2-UNIVERSAL-JKFIT

    Orbital Energies [Eh]
    ---------------------

    Doubly Occupied:

       1A    -20.759457     2A    -20.748213     3A    -20.744427
       4A    -20.742655     5A     -2.543329     6A     -1.560263
       7A     -1.539116     8A     -1.530028     9A     -1.522484
      10A     -0.910905    11A     -0.903890    12A     -0.894870
      13A     -0.882725    14A     -0.810645    15A     -0.785494
      16A     -0.776919    17A     -0.764605    18A     -0.717187
      19A     -0.705401    20A     -0.692045    21A     -0.687383

  @DF-RHF Final Energy:  -311.62265942187082

   => Energetics <=

    Nuclear Repulsion Energy =            160.9441649328967117
    One-Electron Energy =                -742.6895626173939036
    Two-Electron Energy =                 270.1227382626263989
    Total Energy =                       -311.6226594218708215
 Dipole X            :         -7.8392356            7.8619637            0.0227281
 Dipole Y            :         -4.2344661            4.4741420            0.2396759
 Dipole Z            :          5.6787832           -5.9469095           -0.2681263
 Magnitude           :                                                    0.3603510
  Basis Set: (AUG-CC-PVTZ AUX)
    Blend: AUG-CC-PVTZ-RI + DEF2-QZVPP-RI
	 Reference Energy          =    -311.6226594218708215 [Eh]
	 Singles Energy            =      -0.0000000000000000 [Eh]
	 Same-Spin Energy          =      -0.2753369191544648 [Eh]
	 Opposite-Spin Energy      =      -0.8782530476360718 [Eh]
	 Correlation Energy        =      -1.1535899667905367 [Eh]
	 Total Energy              =    -312.7762493886613697 [Eh]

	 ================> DF-SCS-MP2 Energies <==================
	-----------------------------------------------------------
	 SCS Same-Spin Scale       =       0.3333333333333333 [-]
	 SCS Opposite-Spin Scale   =       1.2000000000000000 [-]
	 SCS Same-Spin Energy      =      -0.0917789730514883 [Eh]
	 SCS Opposite-Spin Energy  =      -1.0539036571632860 [Eh]
	 SCS Correlation Energy    =      -1.1456826302147742 [Eh]
	 SCS Total Energy          =    -312.7683420520855861 [Eh]
	-----------------------------------------------------------

*** Psi4 exiting successfully. Buy a developer a beer!
