                               Psi4 1.8.2 release

  ==> Input File <==

--------------------------------------------------------------------------
MEMORY 60 GB

molecule dimer {
1 1
Li         0.000000     0.000000     0.000000
Gh(O)      1.559703    -0.841487     0.540327
Gh(H)      1.536049    -1.800076     0.875428
Gh(H)      2.332392    -0.765268    -0.044245
Gh(O)      0.510627     1.846312     0.670480
Gh(H)     -0.180696     2.157729     1.332101
Gh(H)      1.456462     2.205848     0.908097
Gh(O)     -0.805083    -0.528639    -1.542551
Gh(H)     -1.443239     0.055871    -2.007726
Gh(H)     -0.144858    -0.758380    -2.221599

units ang
no_reorient
no_com
symmetry c1
}

set {
basis        aug-cc-pVTZ
scf_type     df
}

energy("mp2")
--------------------------------------------------------------------------

    Molecular point group: c1

    Geometry (in Angstrom), charge = 1, multiplicity = 1:

       Center              X                  Y                   Z               Mass
    ------------   -----------------  -----------------  -----------------  -----------------
         LI           0.000000000000     0.000000000000     0.000000000000     7.016003436600
      Gh(O)           1.559703000000    -0.841487000000     0.540327000000    15.994914619570
      Gh(H)           1.536049000000    -1.800076000000     0.875428000000     1.007825032230
      Gh(H)           2.332392000000    -0.765268000000    -0.044245000000     1.007825032230
      Gh(O)           0.510627000000     1.846312000000     0.670480000000    15.994914619570
      Gh(H)          -0.180696000000     2.157729000000     1.332101000000     1.007825032230
      Gh(H)           1.456462000000     2.205848000000     0.908097000000     1.007825032230
      Gh(O)          -0.805083000000    -0.528639000000    -1.542551000000    15.994914619570
      Gh(H)          -1.443239000000     0.055871000000    -2.007726000000     1.007825032230
      Gh(H)          -0.144858000000    -0.758380000000    -2.221599000000     1.007825032230

  Charge       = 1
  Multiplicity = 1
  Basis Set: AUG-CC-PVTZ
    Blend: AUG-CC-PVTZ
  Basis Set: (AUG-CC-PVTZ AUX)
    Blend: AUG-CC-PVTZ-JKFIT + DEF2-UNIVERSAL-JKFIT

    Orbital Energies [Eh]
    ---------------------

    Doubly Occupied:

       1A     -2.792357

  @DF-RHF Final Energy:    -7.23638447129400

   => Energetics <=

    Nuclear Repulsion Energy =              0.0000000000000000
    One-Electron Energy =                  -8.8880540800799928
    Two-Electron Energy =                   1.6516696087859897
    Total Energy =                         -7.2363844712940031
 Dipole X            :          0.0000142            0.0000000            0.0000142
 Dipole Y            :          0.0000191            0.0000000            0.0000191
 Dipole Z            :         -0.0000142            0.0000000           -0.0000142
 Magnitude           :                                                    0.0000277
  Basis Set: (AUG-CC-PVTZ AUX)
    Blend: AUG-CC-PVTZ-RI + DEF2-QZVPP-RI
	 Reference Energy          =      -7.2363844712940022 [Eh]
	 Singles Energy            =      -0.0000000000000000 [Eh]
	 Same-Spin Energy          =       0.0000000000000000 [Eh]
	 Opposite-Spin Energy      =      -0.0160434993971142 [Eh]
	 Correlation Energy        =      -0.0160434993971142 [Eh]
	 Total Energy              =      -7.2524279706911168 [Eh]

	 ================> DF-SCS-MP2 Energies <==================
	-----------------------------------------------------------
	 SCS Same-Spin Scale       =       0.3333333333333333 [-]
	 SCS Opposite-Spin Scale   =       1.2000000000000000 [-]
	 SCS Same-Spin Energy      =       0.0000000000000000 [Eh]
	 SCS Opposite-Spin Energy  =      -0.0192521992765371 [Eh]
	 SCS Correlation Energy    =      -0.0192521992765371 [Eh]
	 SCS Total Energy          =      -7.2556366705705395 [Eh]
	-----------------------------------------------------------

*** Psi4 exiting successfully. Buy a developer a beer!
