                               Psi4 1.9 release

  ==> Input File <==

--------------------------------------------------------------------------
MEMORY 60 GB

molecule dimer {
1 1
Li     0.000000     0.000000     0.000000
--
0 1
O      0.390042    -1.160616     1.490585
H     -0.243993    -1.161479     2.265530
H      1.258902    -1.475505     1.814142
O      0.714006    -0.621924    -1.675532
H      0.563089    -1.496172    -2.023043
H      1.634528    -0.693713    -1.380365
O      0.007185     1.610878     0.603106
H      0.504155     1.802163     1.444361
H      0.266326     2.363747     0.036021
O     -2.100619    -0.120590     0.246977
H     -2.225502     0.165368     1.190818
H     -2.740583    -0.897791     0.115905

units ang
no_reorient
no_com
symmetry c1
}

set {
basis        aug-cc-pVTZ
scf_type     df
}

energy("mp2", bsse_type="cp")
--------------------------------------------------------------------------

                               Psi4 1.9 release
    Molecular point group: c1
  Charge       = 0
  Multiplicity = 1
  Basis Set: AUG-CC-PVTZ
    Blend: AUG-CC-PVTZ
  Basis Set: (AUG-CC-PVTZ AUX)
    Blend: AUG-CC-PVTZ-JKFIT + DEF2-UNIVERSAL-JKFIT
  @DF-RHF Final Energy:  -304.20156194171591
    Total Energy =                       -304.2015619417159087
 Dipole X            :         17.4644312          -16.8150968            0.6493344
 Dipole Y            :          6.5395499           -7.0513203           -0.5117704
 Dipole Z            :        -15.3331342           16.6002179            1.2670837
 Magnitude           :                                                    1.5129591
  Basis Set: (AUG-CC-PVTZ AUX)
    Blend: AUG-CC-PVTZ-RI + DEF2-QZVPP-RI
	 Reference Energy          =    -304.2015619417159087 [Eh]
	 Singles Energy            =      -0.0000000000000000 [Eh]
	 Same-Spin Energy          =      -0.2795766022089063 [Eh]
	 Opposite-Spin Energy      =      -0.8756862981463034 [Eh]
	 Correlation Energy        =      -1.1552629003552097 [Eh]
	 Total Energy              =    -305.3568248420710916 [Eh]
	 SCS Total Energy          =    -305.3455777002277500 [Eh]
                               Psi4 1.9 release
    Molecular point group: c1
  Multiplicity = 1
  Basis Set: AUG-CC-PVTZ
    Blend: AUG-CC-PVTZ
  Basis Set: (AUG-CC-PVTZ AUX)
    Blend: AUG-CC-PVTZ-JKFIT + DEF2-UNIVERSAL-JKFIT
  @DF-RHF Final Energy:    -7.23638489817049
    Total Energy =                         -7.2363848981704928
  Basis Set: (AUG-CC-PVTZ AUX)
	 Singles Energy            =      -0.0000000000000000 [Eh]
	 Same-Spin Energy          =       0.0000000000000000 [Eh]
	 Opposite-Spin Energy      =      -0.0173842491374004 [Eh]
	 Correlation Energy        =      -0.0173842491374004 [Eh]
	 Total Energy              =      -7.2537691473078940 [Eh]
	 SCS Total Energy          =      -7.2572459971353744 [Eh]
                               Psi4 1.9 release
    Molecular point group: c1

    Geometry (in Bohr), charge = 1, multiplicity = 1:

       Center              X                  Y                   Z               Mass
    ------------   -----------------  -----------------  -----------------  -----------------
         LI           0.000000000000     0.000000000000     0.000000000000     7.016003436600
         O            0.737072557426    -2.193246376824     2.816797416716    15.994914619570
         H           -0.461079946529    -2.194877210471     4.281231229008     1.007825032230
         H            2.378979998791    -2.788300346744     3.428231532690     1.007825032230
         O            1.349275791934    -1.175266030849    -3.166296594441    15.994914619570
         H            1.064083994258    -2.827355316578    -3.822997210025     1.007825032230
         H            3.088810264392    -1.310927579670    -2.608511803168     1.007825032230
         O            0.013577682211     3.044118241525     1.139705164620    15.994914619570
         H            0.952714874780     3.405594503433     2.729446716292     1.007825032230
         H            0.503283200089     4.466834459873     0.068069824765     1.007825032230
         O           -3.969594603933    -0.227882073469     0.466718889287    15.994914619570
         H           -4.205589271659     0.312500229915     2.250319885265     1.007825032230
         H           -5.178951294086    -1.696579107901     0.219028706571     1.007825032230

  Charge       = 1
  Multiplicity = 1
  Basis Set: AUG-CC-PVTZ
    Blend: AUG-CC-PVTZ
  Basis Set: (AUG-CC-PVTZ AUX)
    Blend: AUG-CC-PVTZ-JKFIT + DEF2-UNIVERSAL-JKFIT

    Orbital Energies [Eh]
    ---------------------

    Doubly Occupied:

       1A    -20.762185     2A    -20.762109     3A    -20.750481
       4A    -20.734009     5A     -2.525935     6A     -1.543139
       7A     -1.541605     8A     -1.533088     9A     -1.493979
      10A     -0.903392    11A     -0.894963    12A     -0.893883
      13A     -0.858275    14A     -0.807572    15A     -0.789817
      16A     -0.787076    17A     -0.745256    18A     -0.716941
      19A     -0.705735    20A     -0.701166    21A     -0.672188

  @DF-RHF Final Energy:  -311.60527942101515

   => Energetics <=

    Nuclear Repulsion Energy =            165.4638163355102165
    One-Electron Energy =                -751.8925972026462432
    Two-Electron Energy =                 274.8235014461209289
    Total Energy =                       -311.6052794210151546
 Dipole X            :         17.3988439          -16.8150968            0.5837471
 Dipole Y            :          6.4922109           -7.0513203           -0.5591094
 Dipole Z            :        -15.0993040           16.6002179            1.5009139
 Magnitude           :                                                    1.7047307
  Basis Set: (AUG-CC-PVTZ AUX)
    Blend: AUG-CC-PVTZ-RI + DEF2-QZVPP-RI
	 Reference Energy          =    -311.6052794210151546 [Eh]
	 Singles Energy            =      -0.0000000000000000 [Eh]
	 Same-Spin Energy          =      -0.2778142757447236 [Eh]
	 Opposite-Spin Energy      =      -0.8844586538081256 [Eh]
	 Correlation Energy        =      -1.1622729295528491 [Eh]
	 Total Energy              =    -312.7675523505679962 [Eh]

	 ================> DF-SCS-MP2 Energies <==================
	-----------------------------------------------------------
	 SCS Same-Spin Scale       =       0.3333333333333333 [-]
	 SCS Opposite-Spin Scale   =       1.2000000000000000 [-]
	 SCS Same-Spin Energy      =      -0.0926047585815745 [Eh]
	 SCS Opposite-Spin Energy  =      -1.0613503845697507 [Eh]
	 SCS Correlation Energy    =      -1.1539551431513253 [Eh]
	 SCS Total Energy          =    -312.7592345641664906 [Eh]
	-----------------------------------------------------------

*** Psi4 exiting successfully. Buy a developer a beer!
