                               Psi4 1.8.2 release

  ==> Input File <==

--------------------------------------------------------------------------
MEMORY 60 GB

molecule dimer {
0 1
Gh(Li)     0.000000     0.000000     0.000000
Gh(O)     -1.513363     0.722143    -0.727441
Gh(H)     -2.027594     0.178981    -1.343150
Gh(H)     -1.819754     1.661892    -0.823652
Gh(O)     -0.252767    -2.026350    -0.783049
Gh(H)      0.479598    -2.628908    -0.595592
Gh(H)     -1.049144    -2.293358    -0.295986
O          0.516511     0.763586     1.671608
H          0.437421     1.575636     1.228955
H         -0.235072     0.629634     2.234292
Gh(O)      1.457213     0.460443    -1.122910
Gh(H)      1.677956    -0.213540    -1.788812
Gh(H)      2.254305     0.527812    -0.514055

units ang
no_reorient
no_com
symmetry c1
}

set {
basis        aug-cc-pVTZ
scf_type     df
}

energy("mp2")
--------------------------------------------------------------------------

    Molecular point group: c1

    Geometry (in Angstrom), charge = 0, multiplicity = 1:

       Center              X                  Y                   Z               Mass
    ------------   -----------------  -----------------  -----------------  -----------------
      Gh(LI)          0.000000000000     0.000000000000     0.000000000000     7.016003436600
      Gh(O)          -1.513363000000     0.722143000000    -0.727441000000    15.994914619570
      Gh(H)          -2.027594000000     0.178981000000    -1.343150000000     1.007825032230
      Gh(H)          -1.819754000000     1.661892000000    -0.823652000000     1.007825032230
      Gh(O)          -0.252767000000    -2.026350000000    -0.783049000000    15.994914619570
      Gh(H)           0.479598000000    -2.628908000000    -0.595592000000     1.007825032230
      Gh(H)          -1.049144000000    -2.293358000000    -0.295986000000     1.007825032230
         O            0.516511000000     0.763586000000     1.671608000000    15.994914619570
         H            0.437421000000     1.575636000000     1.228955000000     1.007825032230
         H           -0.235072000000     0.629634000000     2.234292000000     1.007825032230
      Gh(O)           1.457213000000     0.460443000000    -1.122910000000    15.994914619570
      Gh(H)           1.677956000000    -0.213540000000    -1.788812000000     1.007825032230
      Gh(H)           2.254305000000     0.527812000000    -0.514055000000     1.007825032230

  Charge       = 0
  Multiplicity = 1
  Basis Set: AUG-CC-PVTZ
    Blend: AUG-CC-PVTZ
  Basis Set: (AUG-CC-PVTZ AUX)
    Blend: AUG-CC-PVTZ-JKFIT + DEF2-UNIVERSAL-JKFIT

    Orbital Energies [Eh]
    ---------------------

    Doubly Occupied:

       1A    -20.561232     2A     -1.359733     3A     -0.738623
       4A     -0.578025     5A     -0.510438

  @DF-RHF Final Energy:   -76.06079023212772

   => Energetics <=

    Nuclear Repulsion Energy =              9.3691525327881280
    One-Electron Energy =                -123.3637791960399142
    Two-Electron Energy =                  37.9338364311240639
    Total Energy =                        -76.0607902321277152
 Dipole X            :         -8.7579258            8.1908988           -0.5670269
 Dipole Y            :        -15.2451796           15.7111036            0.4659240
 Dipole Z            :        -31.7352824           31.8156388            0.0803564
 Magnitude           :                                                    0.7382830
  Basis Set: (AUG-CC-PVTZ AUX)
    Blend: AUG-CC-PVTZ-RI + DEF2-QZVPP-RI
	 Reference Energy          =     -76.0607902321277152 [Eh]
	 Singles Energy            =      -0.0000000000000000 [Eh]
	 Same-Spin Energy          =      -0.0680437761937690 [Eh]
	 Opposite-Spin Energy      =      -0.2149043729506024 [Eh]
	 Correlation Energy        =      -0.2829481491443714 [Eh]
	 Total Energy              =     -76.3437383812720896 [Eh]

	 ================> DF-SCS-MP2 Energies <==================
	-----------------------------------------------------------
	 SCS Same-Spin Scale       =       0.3333333333333333 [-]
	 SCS Opposite-Spin Scale   =       1.2000000000000000 [-]
	 SCS Same-Spin Energy      =      -0.0226812587312563 [Eh]
	 SCS Opposite-Spin Energy  =      -0.2578852475407228 [Eh]
	 SCS Correlation Energy    =      -0.2805665062719792 [Eh]
	 SCS Total Energy          =     -76.3413567383996963 [Eh]
	-----------------------------------------------------------

*** Psi4 exiting successfully. Buy a developer a beer!
