                               Psi4 1.8.2 release

  ==> Input File <==

--------------------------------------------------------------------------
MEMORY 60 GB

molecule dimer {
0 1
Gh(Li)     0.000000     0.000000     0.000000
Gh(O)      1.023000     0.620441     1.583861
Gh(H)      1.455219     0.253028     2.357655
Gh(H)      1.073738     1.617144     1.656624
O          0.990010    -1.210458    -1.226372
H          0.996585    -0.767777    -2.058657
H          0.892016    -2.180068    -1.332978
Gh(O)     -0.199397     1.811129    -0.706428
Gh(H)     -0.471302     2.120332    -1.569275
Gh(H)     -0.590440     2.361535    -0.067867

units ang
no_reorient
no_com
symmetry c1
}

set {
basis        aug-cc-pVTZ
scf_type     df
}

energy("mp2")
--------------------------------------------------------------------------

    Molecular point group: c1

    Geometry (in Angstrom), charge = 0, multiplicity = 1:

       Center              X                  Y                   Z               Mass
    ------------   -----------------  -----------------  -----------------  -----------------
      Gh(LI)          0.000000000000     0.000000000000     0.000000000000     7.016003436600
      Gh(O)           1.023000000000     0.620441000000     1.583861000000    15.994914619570
      Gh(H)           1.455219000000     0.253028000000     2.357655000000     1.007825032230
      Gh(H)           1.073738000000     1.617144000000     1.656624000000     1.007825032230
         O            0.990010000000    -1.210458000000    -1.226372000000    15.994914619570
         H            0.996585000000    -0.767777000000    -2.058657000000     1.007825032230
         H            0.892016000000    -2.180068000000    -1.332978000000     1.007825032230
      Gh(O)          -0.199397000000     1.811129000000    -0.706428000000    15.994914619570
      Gh(H)          -0.471302000000     2.120332000000    -1.569275000000     1.007825032230
      Gh(H)          -0.590440000000     2.361535000000    -0.067867000000     1.007825032230

  Charge       = 0
  Multiplicity = 1
  Basis Set: AUG-CC-PVTZ
    Blend: AUG-CC-PVTZ
  Basis Set: (AUG-CC-PVTZ AUX)
    Blend: AUG-CC-PVTZ-JKFIT + DEF2-UNIVERSAL-JKFIT

    Orbital Energies [Eh]
    ---------------------

    Doubly Occupied:

       1A    -20.564390     2A     -1.346688     3A     -0.728571
       4A     -0.570135     5A     -0.507821

  @DF-RHF Final Energy:   -76.05879202637750

   => Energetics <=

    Nuclear Repulsion Energy =              9.1414419638366073
    One-Electron Energy =                -122.9652527828122146
    Two-Electron Energy =                  37.7650187925980916
    Total Energy =                        -76.0587920263775175
 Dipole X            :        -18.5972030           18.5357207           -0.0614823
 Dipole Y            :         23.5170173          -23.8700926           -0.3530752
 Dipole Z            :         24.3100201          -24.9493189           -0.6392988
 Magnitude           :                                                    0.7329019
  Basis Set: (AUG-CC-PVTZ AUX)
    Blend: AUG-CC-PVTZ-RI + DEF2-QZVPP-RI
	 Reference Energy          =     -76.0587920263775032 [Eh]
	 Singles Energy            =      -0.0000000000000000 [Eh]
	 Same-Spin Energy          =      -0.0684001018726883 [Eh]
	 Opposite-Spin Energy      =      -0.2156928773923738 [Eh]
	 Correlation Energy        =      -0.2840929792650621 [Eh]
	 Total Energy              =     -76.3428850056425716 [Eh]

	 ================> DF-SCS-MP2 Energies <==================
	-----------------------------------------------------------
	 SCS Same-Spin Scale       =       0.3333333333333333 [-]
	 SCS Opposite-Spin Scale   =       1.2000000000000000 [-]
	 SCS Same-Spin Energy      =      -0.0228000339575628 [Eh]
	 SCS Opposite-Spin Energy  =      -0.2588314528708485 [Eh]
	 SCS Correlation Energy    =      -0.2816314868284113 [Eh]
	 SCS Total Energy          =     -76.3404235132059199 [Eh]
	-----------------------------------------------------------

*** Psi4 exiting successfully. Buy a developer a beer!
