                               Psi4 1.8.2 release

  ==> Input File <==

--------------------------------------------------------------------------
MEMORY 60 GB

molecule dimer {
1 1
Li         0.000000     0.000000     0.000000
O          0.181903     1.777450    -0.729930
H          0.593085     1.934525    -1.596672
H          0.280321     2.525539    -0.178489
O         -1.196907    -1.054425    -1.199409
H         -2.179947    -1.140973    -1.113703
H         -0.981597    -0.750434    -2.076686
O          1.630893    -0.829171     0.343299
H          1.796402    -1.357139     1.140948
H          2.284558    -1.180292    -0.243308

units ang
no_reorient
no_com
symmetry c1
}

set {
basis        aug-cc-pVTZ
scf_type     df
}

energy("mp2")
--------------------------------------------------------------------------

    Molecular point group: c1

    Geometry (in Angstrom), charge = 1, multiplicity = 1:

       Center              X                  Y                   Z               Mass
    ------------   -----------------  -----------------  -----------------  -----------------
         LI           0.000000000000     0.000000000000     0.000000000000     7.016003436600
         O            0.181903000000     1.777450000000    -0.729930000000    15.994914619570
         H            0.593085000000     1.934525000000    -1.596672000000     1.007825032230
         H            0.280321000000     2.525539000000    -0.178489000000     1.007825032230
         O           -1.196907000000    -1.054425000000    -1.199409000000    15.994914619570
         H           -2.179947000000    -1.140973000000    -1.113703000000     1.007825032230
         H           -0.981597000000    -0.750434000000    -2.076686000000     1.007825032230
         O            1.630893000000    -0.829171000000     0.343299000000    15.994914619570
         H            1.796402000000    -1.357139000000     1.140948000000     1.007825032230
         H            2.284558000000    -1.180292000000    -0.243308000000     1.007825032230

  Charge       = 1
  Multiplicity = 1
  Basis Set: AUG-CC-PVTZ
    Blend: AUG-CC-PVTZ
  Basis Set: (AUG-CC-PVTZ AUX)
    Blend: AUG-CC-PVTZ-JKFIT + DEF2-UNIVERSAL-JKFIT

    Orbital Energies [Eh]
    ---------------------

    Doubly Occupied:

       1A    -20.765795     2A    -20.762207     3A    -20.757124
       4A     -2.575541     5A     -1.559748     6A     -1.555609
       7A     -1.537994     8A     -0.933053     9A     -0.912096
      10A     -0.909965    11A     -0.822391    12A     -0.800099
      13A     -0.782276    14A     -0.720214    15A     -0.713826
      16A     -0.704307

  @DF-RHF Final Energy:  -235.54504643979308

   => Energetics <=

    Nuclear Repulsion Energy =             98.1487125057101224
    One-Electron Energy =                -513.7630220175741442
    Two-Electron Energy =                 180.0692630720709246
    Total Energy =                       -235.5450464397930830
 Dipole X            :        -12.1803453           12.6988348            0.5184896
 Dipole Y            :          1.7178495           -1.5456864            0.1721631
 Dipole Z            :         30.8068755          -31.6646856           -0.8578101
 Magnitude           :                                                    1.0170102
  Basis Set: (AUG-CC-PVTZ AUX)
    Blend: AUG-CC-PVTZ-RI + DEF2-QZVPP-RI
	 Reference Energy          =    -235.5450464397930830 [Eh]
	 Singles Energy            =      -0.0000000000000000 [Eh]
	 Same-Spin Energy          =      -0.2052844147774003 [Eh]
	 Opposite-Spin Energy      =      -0.6592292536567699 [Eh]
	 Correlation Energy        =      -0.8645136684341702 [Eh]
	 Total Energy              =    -236.4095601082272537 [Eh]

	 ================> DF-SCS-MP2 Energies <==================
	-----------------------------------------------------------
	 SCS Same-Spin Scale       =       0.3333333333333333 [-]
	 SCS Opposite-Spin Scale   =       1.2000000000000000 [-]
	 SCS Same-Spin Energy      =      -0.0684281382591334 [Eh]
	 SCS Opposite-Spin Energy  =      -0.7910751043881238 [Eh]
	 SCS Correlation Energy    =      -0.8595032426472572 [Eh]
	 SCS Total Energy          =    -236.4045496824403472 [Eh]
	-----------------------------------------------------------

*** Psi4 exiting successfully. Buy a developer a beer!
