                               Psi4 1.8.2 release

  ==> Input File <==

--------------------------------------------------------------------------
MEMORY 60 GB

molecule dimer {
0 1
Gh(Li)     0.000000     0.000000     0.000000
O          1.639321    -0.729901    -0.741028
H          2.317640    -0.292230    -0.190534
H          1.830515    -0.437536    -1.637740
Gh(O)     -1.213233    -0.784151    -1.126646
Gh(H)     -2.144486    -0.625012    -0.756992
Gh(H)     -1.331930    -0.459099    -2.088330
Gh(O)      0.356812     1.866213     0.273167
Gh(H)      0.727568     1.761017     1.166760
Gh(H)     -0.181844     2.672161     0.214819
Gh(O)     -0.385442    -0.624008     1.841742
Gh(H)     -1.072760     0.019128     2.225122
Gh(H)      0.268191    -0.695409     2.554002

units ang
no_reorient
no_com
symmetry c1
}

set {
basis        aug-cc-pVTZ
scf_type     df
}

energy("mp2")
--------------------------------------------------------------------------

    Molecular point group: c1

    Geometry (in Angstrom), charge = 0, multiplicity = 1:

       Center              X                  Y                   Z               Mass
    ------------   -----------------  -----------------  -----------------  -----------------
      Gh(LI)          0.000000000000     0.000000000000     0.000000000000     7.016003436600
         O            1.639321000000    -0.729901000000    -0.741028000000    15.994914619570
         H            2.317640000000    -0.292230000000    -0.190534000000     1.007825032230
         H            1.830515000000    -0.437536000000    -1.637740000000     1.007825032230
      Gh(O)          -1.213233000000    -0.784151000000    -1.126646000000    15.994914619570
      Gh(H)          -2.144486000000    -0.625012000000    -0.756992000000     1.007825032230
      Gh(H)          -1.331930000000    -0.459099000000    -2.088330000000     1.007825032230
      Gh(O)           0.356812000000     1.866213000000     0.273167000000    15.994914619570
      Gh(H)           0.727568000000     1.761017000000     1.166760000000     1.007825032230
      Gh(H)          -0.181844000000     2.672161000000     0.214819000000     1.007825032230
      Gh(O)          -0.385442000000    -0.624008000000     1.841742000000    15.994914619570
      Gh(H)          -1.072760000000     0.019128000000     2.225122000000     1.007825032230
      Gh(H)           0.268191000000    -0.695409000000     2.554002000000     1.007825032230

  Charge       = 0
  Multiplicity = 1
  Basis Set: AUG-CC-PVTZ
    Blend: AUG-CC-PVTZ
  Basis Set: (AUG-CC-PVTZ AUX)
    Blend: AUG-CC-PVTZ-JKFIT + DEF2-UNIVERSAL-JKFIT

    Orbital Energies [Eh]
    ---------------------

    Doubly Occupied:

       1A    -20.569136     2A     -1.347135     3A     -0.710971
       4A     -0.582374     5A     -0.509304

  @DF-RHF Final Energy:   -76.05953851249465

   => Energetics <=

    Nuclear Repulsion Energy =              9.0766687895997684
    One-Electron Energy =                -122.8345720492397817
    Two-Electron Energy =                  37.6983647471453622
    Total Energy =                        -76.0595385124946546
 Dipole X            :        -32.0487565           32.6218186            0.5730621
 Dipole Y            :         12.8948625          -12.4135618            0.4813007
 Dipole Z            :         14.4267775          -14.6576569           -0.2308794
 Magnitude           :                                                    0.7831704
  Basis Set: (AUG-CC-PVTZ AUX)
    Blend: AUG-CC-PVTZ-RI + DEF2-QZVPP-RI
	 Reference Energy          =     -76.0595385124946546 [Eh]
	 Singles Energy            =      -0.0000000000000000 [Eh]
	 Same-Spin Energy          =      -0.0686503105699428 [Eh]
	 Opposite-Spin Energy      =      -0.2167133702868834 [Eh]
	 Correlation Energy        =      -0.2853636808568263 [Eh]
	 Total Energy              =     -76.3449021933514871 [Eh]

	 ================> DF-SCS-MP2 Energies <==================
	-----------------------------------------------------------
	 SCS Same-Spin Scale       =       0.3333333333333333 [-]
	 SCS Opposite-Spin Scale   =       1.2000000000000000 [-]
	 SCS Same-Spin Energy      =      -0.0228834368566476 [Eh]
	 SCS Opposite-Spin Energy  =      -0.2600560443442601 [Eh]
	 SCS Correlation Energy    =      -0.2829394812009077 [Eh]
	 SCS Total Energy          =     -76.3424779936955673 [Eh]
	-----------------------------------------------------------

*** Psi4 exiting successfully. Buy a developer a beer!
