                               Psi4 1.9 release

  ==> Input File <==

--------------------------------------------------------------------------
MEMORY 60 GB

molecule dimer {
1 1
Li     0.000000     0.000000     0.000000
--
0 1
O     -0.156941     0.958467     1.896046
H     -1.044531     1.337985     1.806280
H      0.472478     1.694438     2.070088
O      1.878977    -0.036473    -0.312733
H      2.472733     0.679982    -0.021938
H      2.035110    -0.049355    -1.243801
O     -0.712229     1.599462    -0.924556
H     -0.973922     2.332904    -0.344616
H     -1.404245     1.668289    -1.576126
O     -0.193645    -1.095916    -1.492069
H     -1.073154    -1.433089    -1.520338
H      0.383632    -1.886412    -1.626908

units ang
no_reorient
no_com
symmetry c1
}

set {
basis        aug-cc-pVTZ
scf_type     df
}

energy("mp2", bsse_type="cp")
--------------------------------------------------------------------------

                               Psi4 1.9 release
    Molecular point group: c1
  Charge       = 0
  Multiplicity = 1
  Basis Set: AUG-CC-PVTZ
    Blend: AUG-CC-PVTZ
  Basis Set: (AUG-CC-PVTZ AUX)
    Blend: AUG-CC-PVTZ-JKFIT + DEF2-UNIVERSAL-JKFIT
  @DF-RHF Final Energy:  -304.20874129862835
    Total Energy =                       -304.2087412986283539
 Dipole X            :        -14.5114314           13.9790544           -0.5323770
 Dipole Y            :        -28.8785293           29.7614139            0.8828846
 Dipole Z            :         16.7334912          -17.2415872           -0.5080960
 Magnitude           :                                                    1.1493789
  Basis Set: (AUG-CC-PVTZ AUX)
    Blend: AUG-CC-PVTZ-RI + DEF2-QZVPP-RI
	 Reference Energy          =    -304.2087412986283539 [Eh]
	 Singles Energy            =      -0.0000000000000000 [Eh]
	 Same-Spin Energy          =      -0.2786405780890454 [Eh]
	 Opposite-Spin Energy      =      -0.8716406457714704 [Eh]
	 Correlation Energy        =      -1.1502812238605158 [Eh]
	 Total Energy              =    -305.3590225224888854 [Eh]
	 SCS Total Energy          =    -305.3475902662504495 [Eh]
                               Psi4 1.9 release
    Molecular point group: c1
  Multiplicity = 1
  Basis Set: AUG-CC-PVTZ
    Blend: AUG-CC-PVTZ
  Basis Set: (AUG-CC-PVTZ AUX)
    Blend: AUG-CC-PVTZ-JKFIT + DEF2-UNIVERSAL-JKFIT
  @DF-RHF Final Energy:    -7.23638486174646
    Total Energy =                         -7.2363848617464628
  Basis Set: (AUG-CC-PVTZ AUX)
	 Singles Energy            =      -0.0000000000000000 [Eh]
	 Same-Spin Energy          =       0.0000000000000000 [Eh]
	 Opposite-Spin Energy      =      -0.0170719935277314 [Eh]
	 Correlation Energy        =      -0.0170719935277314 [Eh]
	 Total Energy              =      -7.2534568552741945 [Eh]
	 SCS Total Energy          =      -7.2568712539797406 [Eh]
                               Psi4 1.9 release
    Molecular point group: c1

    Geometry (in Bohr), charge = 1, multiplicity = 1:

       Center              X                  Y                   Z               Mass
    ------------   -----------------  -----------------  -----------------  -----------------
         LI           0.000000000000     0.000000000000     0.000000000000     7.016003436600
         O           -0.296575507855     1.811240130289     3.583007661270    15.994914619570
         H           -1.973877519551     2.528425209971     3.413374505892     1.007825032230
         H            0.892854020304     3.202023756569     3.911899375597     1.007825032230
         O            3.550751926034    -0.068923980974    -0.590979720393    15.994914619570
         H            4.672788151382     1.284979750241    -0.041456811740     1.007825032230
         H            3.845800535180    -0.093267432922    -2.350443244571     1.007825032230
         O           -1.345917748609     3.022545128077    -1.747157627649    15.994914619570
         H           -1.840445847558     4.408549636985    -0.651229858451     1.007825032230
         H           -2.653638463044     3.152609308114    -2.978446479213     1.007825032230
         O           -0.365936015564    -2.070981096507    -2.819601770286    15.994914619570
         H           -2.027967150440    -2.708145723406    -2.873022438126     1.007825032230
         H            0.724959412962    -3.564802039777    -3.074410551316     1.007825032230

  Charge       = 1
  Multiplicity = 1
  Basis Set: AUG-CC-PVTZ
    Blend: AUG-CC-PVTZ
  Basis Set: (AUG-CC-PVTZ AUX)
    Blend: AUG-CC-PVTZ-JKFIT + DEF2-UNIVERSAL-JKFIT

    Orbital Energies [Eh]
    ---------------------

    Doubly Occupied:

       1A    -20.757300     2A    -20.757033     3A    -20.749731
       4A    -20.742519     5A     -2.542031     6A     -1.551867
       7A     -1.546745     8A     -1.534901     9A     -1.526231
      10A     -0.916640    11A     -0.900159    12A     -0.894023
      13A     -0.883838    14A     -0.817120    15A     -0.791412
      16A     -0.777629    17A     -0.763215    18A     -0.713527
      19A     -0.712395    20A     -0.699753    21A     -0.687461

  @DF-RHF Final Energy:  -311.61006272833998

   => Energetics <=

    Nuclear Repulsion Energy =            167.0346249081646874
    One-Electron Energy =                -754.7583099923333521
    Two-Electron Energy =                 276.1136223558286815
    Total Energy =                       -311.6100627283399831
 Dipole X            :        -14.3636678           13.9790544           -0.3846134
 Dipole Y            :        -28.6086117           29.7614139            1.1528022
 Dipole Z            :         16.4985848          -17.2415872           -0.7430023
 Magnitude           :                                                    1.4244061
  Basis Set: (AUG-CC-PVTZ AUX)
    Blend: AUG-CC-PVTZ-RI + DEF2-QZVPP-RI
	 Reference Energy          =    -311.6100627283399831 [Eh]
	 Singles Energy            =      -0.0000000000000000 [Eh]
	 Same-Spin Energy          =      -0.2770829127400858 [Eh]
	 Opposite-Spin Energy      =      -0.8814179014632518 [Eh]
	 Correlation Energy        =      -1.1585008142033377 [Eh]
	 Total Energy              =    -312.7685635425433475 [Eh]

	 ================> DF-SCS-MP2 Energies <==================
	-----------------------------------------------------------
	 SCS Same-Spin Scale       =       0.3333333333333333 [-]
	 SCS Opposite-Spin Scale   =       1.2000000000000000 [-]
	 SCS Same-Spin Energy      =      -0.0923609709133619 [Eh]
	 SCS Opposite-Spin Energy  =      -1.0577014817559021 [Eh]
	 SCS Correlation Energy    =      -1.1500624526692640 [Eh]
	 SCS Total Energy          =    -312.7601251810092435 [Eh]
	-----------------------------------------------------------

*** Psi4 exiting successfully. Buy a developer a beer!
