                               Psi4 1.8.2 release

  ==> Input File <==

--------------------------------------------------------------------------
MEMORY 60 GB

molecule dimer {
0 1
Gh(Li)     0.000000     0.000000     0.000000
Gh(O)      0.284917     1.873038     0.598396
Gh(H)     -0.265799     2.437262     1.203763
Gh(H)      0.312342     2.308963    -0.239182
O          1.375746    -1.157772    -0.584152
H          2.185946    -1.587349    -0.474694
H          0.789827    -1.882919    -1.039732
Gh(O)     -0.959321     0.359899    -1.687719
Gh(H)     -1.273101     1.273988    -1.980653
Gh(H)     -0.367583     0.108484    -2.390242
Gh(O)     -0.285954    -0.870627     1.731899
Gh(H)      0.387606    -1.563219     1.998960
Gh(H)     -1.094979    -1.130535     2.143406

units ang
no_reorient
no_com
symmetry c1
}

set {
basis        aug-cc-pVTZ
scf_type     df
}

energy("mp2")
--------------------------------------------------------------------------

    Molecular point group: c1

    Geometry (in Angstrom), charge = 0, multiplicity = 1:

       Center              X                  Y                   Z               Mass
    ------------   -----------------  -----------------  -----------------  -----------------
      Gh(LI)          0.000000000000     0.000000000000     0.000000000000     7.016003436600
      Gh(O)           0.284917000000     1.873038000000     0.598396000000    15.994914619570
      Gh(H)          -0.265799000000     2.437262000000     1.203763000000     1.007825032230
      Gh(H)           0.312342000000     2.308963000000    -0.239182000000     1.007825032230
         O            1.375746000000    -1.157772000000    -0.584152000000    15.994914619570
         H            2.185946000000    -1.587349000000    -0.474694000000     1.007825032230
         H            0.789827000000    -1.882919000000    -1.039732000000     1.007825032230
      Gh(O)          -0.959321000000     0.359899000000    -1.687719000000    15.994914619570
      Gh(H)          -1.273101000000     1.273988000000    -1.980653000000     1.007825032230
      Gh(H)          -0.367583000000     0.108484000000    -2.390242000000     1.007825032230
      Gh(O)          -0.285954000000    -0.870627000000     1.731899000000    15.994914619570
      Gh(H)           0.387606000000    -1.563219000000     1.998960000000     1.007825032230
      Gh(H)          -1.094979000000    -1.130535000000     2.143406000000     1.007825032230

  Charge       = 0
  Multiplicity = 1
  Basis Set: AUG-CC-PVTZ
    Blend: AUG-CC-PVTZ
  Basis Set: (AUG-CC-PVTZ AUX)
    Blend: AUG-CC-PVTZ-JKFIT + DEF2-UNIVERSAL-JKFIT

    Orbital Energies [Eh]
    ---------------------

    Doubly Occupied:

       1A    -20.571080     2A     -1.345854     3A     -0.703298
       4A     -0.582306     5A     -0.509214

  @DF-RHF Final Energy:   -76.05248427647672

   => Energetics <=

    Nuclear Repulsion Energy =              9.0084955612814870
    One-Electron Energy =                -122.6984517830410226
    Two-Electron Energy =                  37.6374719452828117
    Total Energy =                        -76.0524842764767186
 Dipole X            :        -26.2562018           26.4216612            0.1654594
 Dipole Y            :         23.3107122          -24.0608321           -0.7501199
 Dipole Z            :         11.4745050          -11.6929487           -0.2184437
 Magnitude           :                                                    0.7986077
  Basis Set: (AUG-CC-PVTZ AUX)
    Blend: AUG-CC-PVTZ-RI + DEF2-QZVPP-RI
	 Reference Energy          =     -76.0524842764767186 [Eh]
	 Singles Energy            =      -0.0000000000000000 [Eh]
	 Same-Spin Energy          =      -0.0688256527989527 [Eh]
	 Opposite-Spin Energy      =      -0.2174685199220542 [Eh]
	 Correlation Energy        =      -0.2862941727210069 [Eh]
	 Total Energy              =     -76.3387784491977186 [Eh]

	 ================> DF-SCS-MP2 Energies <==================
	-----------------------------------------------------------
	 SCS Same-Spin Scale       =       0.3333333333333333 [-]
	 SCS Opposite-Spin Scale   =       1.2000000000000000 [-]
	 SCS Same-Spin Energy      =      -0.0229418842663176 [Eh]
	 SCS Opposite-Spin Energy  =      -0.2609622239064651 [Eh]
	 SCS Correlation Energy    =      -0.2839041081727827 [Eh]
	 SCS Total Energy          =     -76.3363883846494957 [Eh]
	-----------------------------------------------------------

*** Psi4 exiting successfully. Buy a developer a beer!
