                               Psi4 1.9 release

  ==> Input File <==

--------------------------------------------------------------------------
MEMORY 60 GB

molecule dimer {
1 1
Li     0.000000     0.000000     0.000000
--
0 1
O     -1.781604    -0.308774     0.672957
H     -2.416149    -0.940715     1.042678
H     -2.210738     0.488272     0.415933
O      1.567111     0.207798     1.466968
H      1.921405    -0.551822     1.871146
H      1.660695     0.824584     2.244772
O     -0.361356     1.821734    -0.682767
H     -0.637570     2.716843    -0.478202
H     -0.758879     1.674910    -1.588356
O      0.457511    -1.012211    -1.602176
H     -0.028832    -1.739527    -1.960288
H      1.106696    -0.664268    -2.216768

units ang
no_reorient
no_com
symmetry c1
}

set {
basis        aug-cc-pVTZ
scf_type     df
}

energy("mp2", bsse_type="cp")
--------------------------------------------------------------------------

                               Psi4 1.9 release
    Molecular point group: c1
  Charge       = 0
  Multiplicity = 1
  Basis Set: AUG-CC-PVTZ
    Blend: AUG-CC-PVTZ
  Basis Set: (AUG-CC-PVTZ AUX)
    Blend: AUG-CC-PVTZ-JKFIT + DEF2-UNIVERSAL-JKFIT
  @DF-RHF Final Energy:  -304.21605261917176
    Total Energy =                       -304.2160526191717622
 Dipole X            :          3.6946770           -4.3654110           -0.6707339
 Dipole Y            :        -13.9072720           14.1288265            0.2215545
 Dipole Z            :          3.1880696           -3.4567418           -0.2686723
 Magnitude           :                                                    0.7557481
  Basis Set: (AUG-CC-PVTZ AUX)
    Blend: AUG-CC-PVTZ-RI + DEF2-QZVPP-RI
	 Reference Energy          =    -304.2160526191717622 [Eh]
	 Singles Energy            =      -0.0000000000000000 [Eh]
	 Same-Spin Energy          =      -0.2771990033769032 [Eh]
	 Opposite-Spin Energy      =      -0.8691392560489408 [Eh]
	 Correlation Energy        =      -1.1463382594258440 [Eh]
	 Total Energy              =    -305.3623908785975800 [Eh]
	 SCS Total Energy          =    -305.3514193942227735 [Eh]
                               Psi4 1.9 release
    Molecular point group: c1
  Multiplicity = 1
  Basis Set: AUG-CC-PVTZ
    Blend: AUG-CC-PVTZ
  Basis Set: (AUG-CC-PVTZ AUX)
    Blend: AUG-CC-PVTZ-JKFIT + DEF2-UNIVERSAL-JKFIT
  @DF-RHF Final Energy:    -7.23638485123087
    Total Energy =                         -7.2363848512308682
  Basis Set: (AUG-CC-PVTZ AUX)
	 Singles Energy            =      -0.0000000000000000 [Eh]
	 Same-Spin Energy          =       0.0000000000000000 [Eh]
	 Opposite-Spin Energy      =      -0.0166599735774148 [Eh]
	 Correlation Energy        =      -0.0166599735774148 [Eh]
	 Total Energy              =      -7.2530448248082839 [Eh]
	 SCS Total Energy          =      -7.2563768195237666 [Eh]
                               Psi4 1.9 release
    Molecular point group: c1

    Geometry (in Bohr), charge = 1, multiplicity = 1:

       Center              X                  Y                   Z               Mass
    ------------   -----------------  -----------------  -----------------  -----------------
         LI           0.000000000000     0.000000000000     0.000000000000     7.016003436600
         O           -3.366743624020    -0.583498294662     1.271704424210    15.994914619570
         H           -4.565859888299    -1.777693712110     1.970375857040     1.007825032230
         H           -4.177689355142     0.922700354730     0.785999456540     1.007825032230
         O            2.961410598192     0.392681309418     2.772167754811    15.994914619570
         H            3.630929226085    -1.042792450002     3.535953480746     1.007825032230
         H            3.138258727917     1.558237927435     4.242004294096     1.007825032230
         O           -0.682863873791     3.442578333435    -1.290242637500    15.994914619570
         H           -1.204832685808     5.134089195867    -0.903670812646     1.007825032230
         H           -1.434073472361     3.165121184791    -3.001557829728     1.007825032230
         O            0.864570489384    -1.912801571176    -3.027673844782    15.994914619570
         H           -0.054484583649    -3.287229617839    -3.704407447021     1.007825032230
         H            2.091352344140    -1.255284593906    -4.189084403679     1.007825032230

  Charge       = 1
  Multiplicity = 1
  Basis Set: AUG-CC-PVTZ
    Blend: AUG-CC-PVTZ
  Basis Set: (AUG-CC-PVTZ AUX)
    Blend: AUG-CC-PVTZ-JKFIT + DEF2-UNIVERSAL-JKFIT

    Orbital Energies [Eh]
    ---------------------

    Doubly Occupied:

       1A    -20.755188     2A    -20.745823     3A    -20.741718
       4A    -20.730140     5A     -2.539364     6A     -1.539022
       7A     -1.536314     8A     -1.531301     9A     -1.518188
      10A     -0.920343    11A     -0.914409    12A     -0.890649
      13A     -0.860928    14A     -0.794324    15A     -0.779450
      16A     -0.774041    17A     -0.770911    18A     -0.700653
      19A     -0.699609    20A     -0.692392    21A     -0.675892

  @DF-RHF Final Energy:  -311.62677107488412

   => Energetics <=

    Nuclear Repulsion Energy =            160.0335303704671617
    One-Electron Energy =                -741.0992824156866163
    Two-Electron Energy =                 269.4389809703353649
    Total Energy =                       -311.6267710748841182
 Dipole X            :          3.5577398           -4.3654110           -0.8076711
 Dipole Y            :        -13.7799771           14.1288265            0.3488494
 Dipole Z            :          3.1196335           -3.4567418           -0.3371083
 Magnitude           :                                                    0.9421627
  Basis Set: (AUG-CC-PVTZ AUX)
    Blend: AUG-CC-PVTZ-RI + DEF2-QZVPP-RI
	 Reference Energy          =    -311.6267710748841182 [Eh]
	 Singles Energy            =      -0.0000000000000000 [Eh]
	 Same-Spin Energy          =      -0.2753579336826400 [Eh]
	 Opposite-Spin Energy      =      -0.8779732452621573 [Eh]
	 Correlation Energy        =      -1.1533311789447973 [Eh]
	 Total Energy              =    -312.7801022538289430 [Eh]

	 ================> DF-SCS-MP2 Energies <==================
	-----------------------------------------------------------
	 SCS Same-Spin Scale       =       0.3333333333333333 [-]
	 SCS Opposite-Spin Scale   =       1.2000000000000000 [-]
	 SCS Same-Spin Energy      =      -0.0917859778942133 [Eh]
	 SCS Opposite-Spin Energy  =      -1.0535678943145887 [Eh]
	 SCS Correlation Energy    =      -1.1453538722088021 [Eh]
	 SCS Total Energy          =    -312.7721249470929479 [Eh]
	-----------------------------------------------------------

*** Psi4 exiting successfully. Buy a developer a beer!
