                               Psi4 1.8.2 release

  ==> Input File <==

--------------------------------------------------------------------------
MEMORY 60 GB

molecule dimer {
0 1
Gh(Li)     0.000000     0.000000     0.000000
O          0.219560    -0.265810     2.012776
H          0.521880    -0.931016     2.699863
H         -0.159480     0.513072     2.429735
Gh(O)      1.524244     0.531832    -0.864764
Gh(H)      2.438492     0.209908    -0.974378
Gh(H)      1.411270     1.193130    -1.596493
Gh(O)     -0.434713    -1.802003    -0.583452
Gh(H)     -1.078675    -2.086057     0.124510
Gh(H)      0.349421    -2.345056    -0.533103
Gh(O)     -1.896730     0.843373    -0.137028
Gh(H)     -2.188506     0.658287    -0.989367
Gh(H)     -2.580292     0.611598     0.561824

units ang
no_reorient
no_com
symmetry c1
}

set {
basis        aug-cc-pVTZ
scf_type     df
}

energy("mp2")
--------------------------------------------------------------------------

    Molecular point group: c1

    Geometry (in Angstrom), charge = 0, multiplicity = 1:

       Center              X                  Y                   Z               Mass
    ------------   -----------------  -----------------  -----------------  -----------------
      Gh(LI)          0.000000000000     0.000000000000     0.000000000000     7.016003436600
         O            0.219560000000    -0.265810000000     2.012776000000    15.994914619570
         H            0.521880000000    -0.931016000000     2.699863000000     1.007825032230
         H           -0.159480000000     0.513072000000     2.429735000000     1.007825032230
      Gh(O)           1.524244000000     0.531832000000    -0.864764000000    15.994914619570
      Gh(H)           2.438492000000     0.209908000000    -0.974378000000     1.007825032230
      Gh(H)           1.411270000000     1.193130000000    -1.596493000000     1.007825032230
      Gh(O)          -0.434713000000    -1.802003000000    -0.583452000000    15.994914619570
      Gh(H)          -1.078675000000    -2.086057000000     0.124510000000     1.007825032230
      Gh(H)           0.349421000000    -2.345056000000    -0.533103000000     1.007825032230
      Gh(O)          -1.896730000000     0.843373000000    -0.137028000000    15.994914619570
      Gh(H)          -2.188506000000     0.658287000000    -0.989367000000     1.007825032230
      Gh(H)          -2.580292000000     0.611598000000     0.561824000000     1.007825032230

  Charge       = 0
  Multiplicity = 1
  Basis Set: AUG-CC-PVTZ
    Blend: AUG-CC-PVTZ
  Basis Set: (AUG-CC-PVTZ AUX)
    Blend: AUG-CC-PVTZ-JKFIT + DEF2-UNIVERSAL-JKFIT

    Orbital Energies [Eh]
    ---------------------

    Doubly Occupied:

       1A    -20.568066     2A     -1.337004     3A     -0.715878
       4A     -0.567455     5A     -0.506255

  @DF-RHF Final Energy:   -76.05625601519201

   => Energetics <=

    Nuclear Repulsion Energy =              8.9512124520848868
    One-Electron Energy =                -122.6256175219029103
    Two-Electron Energy =                  37.6181490546260093
    Total Energy =                        -76.0562560151920195
 Dipole X            :         -4.0577954            4.0041029           -0.0536925
 Dipole Y            :          4.8891142           -4.8082645            0.0808497
 Dipole Z            :        -39.3857645           40.1222985            0.7365339
 Magnitude           :                                                    0.7429009
  Basis Set: (AUG-CC-PVTZ AUX)
    Blend: AUG-CC-PVTZ-RI + DEF2-QZVPP-RI
	 Reference Energy          =     -76.0562560151920053 [Eh]
	 Singles Energy            =      -0.0000000000000000 [Eh]
	 Same-Spin Energy          =      -0.0687718758952148 [Eh]
	 Opposite-Spin Energy      =      -0.2169875360418728 [Eh]
	 Correlation Energy        =      -0.2857594119370876 [Eh]
	 Total Energy              =     -76.3420154271290983 [Eh]

	 ================> DF-SCS-MP2 Energies <==================
	-----------------------------------------------------------
	 SCS Same-Spin Scale       =       0.3333333333333333 [-]
	 SCS Opposite-Spin Scale   =       1.2000000000000000 [-]
	 SCS Same-Spin Energy      =      -0.0229239586317383 [Eh]
	 SCS Opposite-Spin Energy  =      -0.2603850432502474 [Eh]
	 SCS Correlation Energy    =      -0.2833090018819857 [Eh]
	 SCS Total Energy          =     -76.3395650170739941 [Eh]
	-----------------------------------------------------------

*** Psi4 exiting successfully. Buy a developer a beer!
