                               Psi4 1.8.2 release

  ==> Input File <==

--------------------------------------------------------------------------
MEMORY 60 GB

molecule dimer {
1 1
Li         0.000000     0.000000     0.000000
O          1.698581     0.435696     0.558593
H          2.237527    -0.300337     0.974783
H          2.088861     0.477432    -0.359968
O         -0.602134     1.603987    -1.055512
H         -0.019972     1.873754    -1.758661
H         -1.470926     1.622158    -1.464541
O          0.090460    -1.221032    -1.273457
H          0.943707    -1.644678    -1.158743
H         -0.580198    -1.847887    -1.056551
O         -1.504258    -0.347888     1.383059
H         -1.261637    -0.488613     2.322452
H         -1.997552    -1.132669     1.067802

units ang
no_reorient
no_com
symmetry c1
}

set {
basis        aug-cc-pVTZ
scf_type     df
}

energy("mp2")
--------------------------------------------------------------------------

    Molecular point group: c1

    Geometry (in Angstrom), charge = 1, multiplicity = 1:

       Center              X                  Y                   Z               Mass
    ------------   -----------------  -----------------  -----------------  -----------------
         LI           0.000000000000     0.000000000000     0.000000000000     7.016003436600
         O            1.698581000000     0.435696000000     0.558593000000    15.994914619570
         H            2.237527000000    -0.300337000000     0.974783000000     1.007825032230
         H            2.088861000000     0.477432000000    -0.359968000000     1.007825032230
         O           -0.602134000000     1.603987000000    -1.055512000000    15.994914619570
         H           -0.019972000000     1.873754000000    -1.758661000000     1.007825032230
         H           -1.470926000000     1.622158000000    -1.464541000000     1.007825032230
         O            0.090460000000    -1.221032000000    -1.273457000000    15.994914619570
         H            0.943707000000    -1.644678000000    -1.158743000000     1.007825032230
         H           -0.580198000000    -1.847887000000    -1.056551000000     1.007825032230
         O           -1.504258000000    -0.347888000000     1.383059000000    15.994914619570
         H           -1.261637000000    -0.488613000000     2.322452000000     1.007825032230
         H           -1.997552000000    -1.132669000000     1.067802000000     1.007825032230

  Charge       = 1
  Multiplicity = 1
  Basis Set: AUG-CC-PVTZ
    Blend: AUG-CC-PVTZ
  Basis Set: (AUG-CC-PVTZ AUX)
    Blend: AUG-CC-PVTZ-JKFIT + DEF2-UNIVERSAL-JKFIT

    Orbital Energies [Eh]
    ---------------------

    Doubly Occupied:

       1A    -20.773116     2A    -20.772460     3A    -20.752709
       4A    -20.733966     5A     -2.534342     6A     -1.575136
       7A     -1.540768     8A     -1.527237     9A     -1.526195
      10A     -0.945524    11A     -0.897523    12A     -0.894447
      13A     -0.883266    14A     -0.810630    15A     -0.796390
      16A     -0.774810    17A     -0.762955    18A     -0.745388
      19A     -0.715985    20A     -0.697762    21A     -0.684497

  @DF-RHF Final Energy:  -311.60239984691606

   => Energetics <=

    Nuclear Repulsion Energy =            165.7481608038217189
    One-Electron Energy =                -752.0109032085122180
    Two-Electron Energy =                 274.6603425577744133
    Total Energy =                       -311.6023998469160574
 Dipole X            :          5.2604642           -4.9113944            0.3490698
 Dipole Y            :         -5.9482398            4.3941121           -1.5541277
 Dipole Z            :          8.1062125           -8.5641689           -0.4579564
 Magnitude           :                                                    1.6573734
  Basis Set: (AUG-CC-PVTZ AUX)
    Blend: AUG-CC-PVTZ-RI + DEF2-QZVPP-RI
	 Reference Energy          =    -311.6023998469160574 [Eh]
	 Singles Energy            =      -0.0000000000000000 [Eh]
	 Same-Spin Energy          =      -0.2767565156842168 [Eh]
	 Opposite-Spin Energy      =      -0.8818990288894493 [Eh]
	 Correlation Energy        =      -1.1586555445736662 [Eh]
	 Total Energy              =    -312.7610553914897196 [Eh]

	 ================> DF-SCS-MP2 Energies <==================
	-----------------------------------------------------------
	 SCS Same-Spin Scale       =       0.3333333333333333 [-]
	 SCS Opposite-Spin Scale   =       1.2000000000000000 [-]
	 SCS Same-Spin Energy      =      -0.0922521718947389 [Eh]
	 SCS Opposite-Spin Energy  =      -1.0582788346673391 [Eh]
	 SCS Correlation Energy    =      -1.1505310065620780 [Eh]
	 SCS Total Energy          =    -312.7529308534781194 [Eh]
	-----------------------------------------------------------

*** Psi4 exiting successfully. Buy a developer a beer!
