                               Psi4 1.8.2 release

  ==> Input File <==

--------------------------------------------------------------------------
MEMORY 60 GB

molecule dimer {
0 1
Gh(Li)     0.000000     0.000000     0.000000
Gh(O)     -1.789506    -1.056934    -0.088662
Gh(H)     -2.270001    -1.416814     0.653930
Gh(H)     -2.363175    -1.218597    -0.863242
Gh(O)      0.279767     1.907371     0.284771
Gh(H)      0.476565     2.388574    -0.523007
Gh(H)      1.091074     1.967825     0.824365
O          0.700472    -0.401485    -1.683438
H          0.674482    -1.335976    -1.879120
H          0.103655     0.037381    -2.268641
Gh(O)      1.421464    -0.932024     0.947236
Gh(H)      1.436621    -1.871810     0.673333
Gh(H)      1.380837    -1.071578     1.956669

units ang
no_reorient
no_com
symmetry c1
}

set {
basis        aug-cc-pVTZ
scf_type     df
}

energy("mp2")
--------------------------------------------------------------------------

    Molecular point group: c1

    Geometry (in Angstrom), charge = 0, multiplicity = 1:

       Center              X                  Y                   Z               Mass
    ------------   -----------------  -----------------  -----------------  -----------------
      Gh(LI)          0.000000000000     0.000000000000     0.000000000000     7.016003436600
      Gh(O)          -1.789506000000    -1.056934000000    -0.088662000000    15.994914619570
      Gh(H)          -2.270001000000    -1.416814000000     0.653930000000     1.007825032230
      Gh(H)          -2.363175000000    -1.218597000000    -0.863242000000     1.007825032230
      Gh(O)           0.279767000000     1.907371000000     0.284771000000    15.994914619570
      Gh(H)           0.476565000000     2.388574000000    -0.523007000000     1.007825032230
      Gh(H)           1.091074000000     1.967825000000     0.824365000000     1.007825032230
         O            0.700472000000    -0.401485000000    -1.683438000000    15.994914619570
         H            0.674482000000    -1.335976000000    -1.879120000000     1.007825032230
         H            0.103655000000     0.037381000000    -2.268641000000     1.007825032230
      Gh(O)           1.421464000000    -0.932024000000     0.947236000000    15.994914619570
      Gh(H)           1.436621000000    -1.871810000000     0.673333000000     1.007825032230
      Gh(H)           1.380837000000    -1.071578000000     1.956669000000     1.007825032230

  Charge       = 0
  Multiplicity = 1
  Basis Set: AUG-CC-PVTZ
    Blend: AUG-CC-PVTZ
  Basis Set: (AUG-CC-PVTZ AUX)
    Blend: AUG-CC-PVTZ-JKFIT + DEF2-UNIVERSAL-JKFIT

    Orbital Energies [Eh]
    ---------------------

    Doubly Occupied:

       1A    -20.564006     2A     -1.354915     3A     -0.728862
       4A     -0.579275     5A     -0.509924

  @DF-RHF Final Energy:   -76.06101571585495

   => Energetics <=

    Nuclear Repulsion Energy =              9.2608212246121777
    One-Electron Energy =                -123.1697062322552512
    Two-Electron Energy =                  37.8478692917881290
    Total Energy =                        -76.0610157158549498
 Dipole X            :        -12.4813261           12.0600677           -0.4212583
 Dipole Y            :          8.1902621           -8.5235624           -0.3333003
 Dipole Z            :         32.7599355          -33.2880265           -0.5280910
 Magnitude           :                                                    0.7532780
  Basis Set: (AUG-CC-PVTZ AUX)
    Blend: AUG-CC-PVTZ-RI + DEF2-QZVPP-RI
	 Reference Energy          =     -76.0610157158549498 [Eh]
	 Singles Energy            =      -0.0000000000000000 [Eh]
	 Same-Spin Energy          =      -0.0682536229592609 [Eh]
	 Opposite-Spin Energy      =      -0.2154877764743340 [Eh]
	 Correlation Energy        =      -0.2837413994335949 [Eh]
	 Total Energy              =     -76.3447571152885445 [Eh]

	 ================> DF-SCS-MP2 Energies <==================
	-----------------------------------------------------------
	 SCS Same-Spin Scale       =       0.3333333333333333 [-]
	 SCS Opposite-Spin Scale   =       1.2000000000000000 [-]
	 SCS Same-Spin Energy      =      -0.0227512076530870 [Eh]
	 SCS Opposite-Spin Energy  =      -0.2585853317692008 [Eh]
	 SCS Correlation Energy    =      -0.2813365394222878 [Eh]
	 SCS Total Energy          =     -76.3423522552772340 [Eh]
	-----------------------------------------------------------

*** Psi4 exiting successfully. Buy a developer a beer!
