                               Psi4 1.9 release

  ==> Input File <==

--------------------------------------------------------------------------
MEMORY 60 GB

molecule dimer {
1 1
Li     0.000000     0.000000     0.000000
--
0 1
O      1.110215    -1.098530    -1.443038
H      1.598295    -1.954221    -1.278074
H      1.207274    -0.949489    -2.430059
O     -1.257824    -1.305400     0.453129
H     -2.221511    -1.279369     0.433411
H     -1.048101    -1.335662     1.390767
O     -0.051878     1.572965     1.008421
H      0.239274     2.445122     1.163302
H     -0.498900     1.346008     1.847540

units ang
no_reorient
no_com
symmetry c1
}

set {
basis        aug-cc-pVTZ
scf_type     df
}

energy("mp2", bsse_type="cp")
--------------------------------------------------------------------------

                               Psi4 1.9 release
    Molecular point group: c1
  Charge       = 0
  Multiplicity = 1
  Basis Set: AUG-CC-PVTZ
    Blend: AUG-CC-PVTZ
  Basis Set: (AUG-CC-PVTZ AUX)
    Blend: AUG-CC-PVTZ-JKFIT + DEF2-UNIVERSAL-JKFIT
  @DF-RHF Final Energy:  -228.16256218669821
    Total Energy =                       -228.1625621866982101
 Dipole X            :          4.1686684           -4.3833426           -0.2146741
 Dipole Y            :         15.8222825          -15.8270818           -0.0047993
 Dipole Z            :         -1.7378472            2.4093687            0.6715214
 Magnitude           :                                                    0.7050171
  Basis Set: (AUG-CC-PVTZ AUX)
    Blend: AUG-CC-PVTZ-RI + DEF2-QZVPP-RI
	 Reference Energy          =    -228.1625621866982101 [Eh]
	 Singles Energy            =      -0.0000000000000000 [Eh]
	 Same-Spin Energy          =      -0.2074950210228994 [Eh]
	 Opposite-Spin Energy      =      -0.6522514822858820 [Eh]
	 Correlation Energy        =      -0.8597465033087814 [Eh]
	 Total Energy              =    -229.0223086900069802 [Eh]
	 SCS Total Energy          =    -229.0144289724489113 [Eh]
                               Psi4 1.9 release
    Molecular point group: c1
  Multiplicity = 1
  Basis Set: AUG-CC-PVTZ
    Blend: AUG-CC-PVTZ
  Basis Set: (AUG-CC-PVTZ AUX)
    Blend: AUG-CC-PVTZ-JKFIT + DEF2-UNIVERSAL-JKFIT
  @DF-RHF Final Energy:    -7.23638453063927
    Total Energy =                         -7.2363845306392705
  Basis Set: (AUG-CC-PVTZ AUX)
	 Singles Energy            =      -0.0000000000000000 [Eh]
	 Same-Spin Energy          =      -0.0000000000000000 [Eh]
	 Opposite-Spin Energy      =      -0.0157952398985186 [Eh]
	 Correlation Energy        =      -0.0157952398985186 [Eh]
	 Total Energy              =      -7.2521797705377891 [Eh]
	 SCS Total Energy          =      -7.2553388185174930 [Eh]
                               Psi4 1.9 release
    Molecular point group: c1

    Geometry (in Bohr), charge = 1, multiplicity = 1:

       Center              X                  Y                   Z               Mass
    ------------   -----------------  -----------------  -----------------  -----------------
         LI           0.000000000000     0.000000000000     0.000000000000     7.016003436600
         O            2.098002290375    -2.075920840599    -2.726946608628    15.994914619570
         H            3.020339817689    -3.692942478618    -2.415209828068     1.007825032230
         H            2.281417218386    -1.794274169135    -4.592145978704     1.007825032230
         O           -2.376942874028    -2.466848484173     0.856289709503    15.994914619570
         H           -4.198047374692    -2.417657023401     0.819028089761     1.007825032230
         H           -1.980623841818    -2.524035376181     2.628168734325     1.007825032230
         O           -0.098035211937     2.972473054931     1.905639509160    15.994914619570
         H            0.452162328943     4.620610923332     2.198322181197     1.007825032230
         H           -0.942784363991     2.543586482675     3.491344605828     1.007825032230

  Charge       = 1
  Multiplicity = 1
  Basis Set: AUG-CC-PVTZ
    Blend: AUG-CC-PVTZ
  Basis Set: (AUG-CC-PVTZ AUX)
    Blend: AUG-CC-PVTZ-JKFIT + DEF2-UNIVERSAL-JKFIT

    Orbital Energies [Eh]
    ---------------------

    Doubly Occupied:

       1A    -20.777461     2A    -20.774117     3A    -20.748555
       4A     -2.585321     5A     -1.572516     6A     -1.564764
       7A     -1.510328     8A     -0.932879     9A     -0.922853
      10A     -0.869636    11A     -0.827803    12A     -0.813409
      13A     -0.771797    14A     -0.731406    15A     -0.726067
      16A     -0.685711

  @DF-RHF Final Energy:  -235.53420092974960

   => Energetics <=

    Nuclear Repulsion Energy =             96.0423767864617304
    One-Electron Energy =                -509.5239050417662270
    Two-Electron Energy =                 177.9473273255549088
    Total Energy =                       -235.5342009297496020
 Dipole X            :          4.0640345           -4.3833426           -0.3193081
 Dipole Y            :         15.7013167          -15.8270818           -0.1257651
 Dipole Z            :         -1.6381295            2.4093687            0.7712392
 Magnitude           :                                                    0.8441471
  Basis Set: (AUG-CC-PVTZ AUX)
    Blend: AUG-CC-PVTZ-RI + DEF2-QZVPP-RI
	 Reference Energy          =    -235.5342009297496020 [Eh]
	 Singles Energy            =      -0.0000000000000000 [Eh]
	 Same-Spin Energy          =      -0.2061003250319317 [Eh]
	 Opposite-Spin Energy      =      -0.6617185769432787 [Eh]
	 Correlation Energy        =      -0.8678189019752104 [Eh]
	 Total Energy              =    -236.4020198317248003 [Eh]

	 ================> DF-SCS-MP2 Energies <==================
	-----------------------------------------------------------
	 SCS Same-Spin Scale       =       0.3333333333333333 [-]
	 SCS Opposite-Spin Scale   =       1.2000000000000000 [-]
	 SCS Same-Spin Energy      =      -0.0687001083439772 [Eh]
	 SCS Opposite-Spin Energy  =      -0.7940622923319345 [Eh]
	 SCS Correlation Energy    =      -0.8627624006759117 [Eh]
	 SCS Total Energy          =    -236.3969633304255069 [Eh]
	-----------------------------------------------------------

*** Psi4 exiting successfully. Buy a developer a beer!
