                               Psi4 1.8.2 release

  ==> Input File <==

--------------------------------------------------------------------------
MEMORY 60 GB

molecule dimer {
0 1
Gh(Li)     0.000000     0.000000     0.000000
Gh(O)     -1.250276    -0.767961    -1.527750
Gh(H)     -0.774486    -1.486835    -1.895383
Gh(H)     -2.179176    -0.820415    -1.767325
Gh(O)     -1.166798    -0.535753     1.661617
Gh(H)     -0.741108    -0.764670     2.507558
Gh(H)     -1.879153    -1.203534     1.673004
O          0.410563     1.717860     0.405025
H          0.955455     1.673867     1.174611
H          1.000185     2.068463    -0.282656
Gh(O)      1.643875    -1.072325    -0.704594
Gh(H)      1.714216    -1.974251    -0.225525
Gh(H)      2.114756    -1.224097    -1.564307

units ang
no_reorient
no_com
symmetry c1
}

set {
basis        aug-cc-pVTZ
scf_type     df
}

energy("mp2")
--------------------------------------------------------------------------

    Molecular point group: c1

    Geometry (in Angstrom), charge = 0, multiplicity = 1:

       Center              X                  Y                   Z               Mass
    ------------   -----------------  -----------------  -----------------  -----------------
      Gh(LI)          0.000000000000     0.000000000000     0.000000000000     7.016003436600
      Gh(O)          -1.250276000000    -0.767961000000    -1.527750000000    15.994914619570
      Gh(H)          -0.774486000000    -1.486835000000    -1.895383000000     1.007825032230
      Gh(H)          -2.179176000000    -0.820415000000    -1.767325000000     1.007825032230
      Gh(O)          -1.166798000000    -0.535753000000     1.661617000000    15.994914619570
      Gh(H)          -0.741108000000    -0.764670000000     2.507558000000     1.007825032230
      Gh(H)          -1.879153000000    -1.203534000000     1.673004000000     1.007825032230
         O            0.410563000000     1.717860000000     0.405025000000    15.994914619570
         H            0.955455000000     1.673867000000     1.174611000000     1.007825032230
         H            1.000185000000     2.068463000000    -0.282656000000     1.007825032230
      Gh(O)           1.643875000000    -1.072325000000    -0.704594000000    15.994914619570
      Gh(H)           1.714216000000    -1.974251000000    -0.225525000000     1.007825032230
      Gh(H)           2.114756000000    -1.224097000000    -1.564307000000     1.007825032230

  Charge       = 0
  Multiplicity = 1
  Basis Set: AUG-CC-PVTZ
    Blend: AUG-CC-PVTZ
  Basis Set: (AUG-CC-PVTZ AUX)
    Blend: AUG-CC-PVTZ-JKFIT + DEF2-UNIVERSAL-JKFIT

    Orbital Energies [Eh]
    ---------------------

    Doubly Occupied:

       1A    -20.567182     2A     -1.353736     3A     -0.716746
       4A     -0.585498     5A     -0.510431

  @DF-RHF Final Energy:   -76.06030887874783

   => Energetics <=

    Nuclear Repulsion Energy =              9.1933563954925024
    One-Electron Energy =                -123.0401431127210685
    Two-Electron Energy =                  37.7864778384807352
    Total Energy =                        -76.0603088787478328
 Dipole X            :         -9.1492497            9.9024370            0.7531873
 Dipole Y            :        -32.8396821           33.0422581            0.2025761
 Dipole Z            :         -7.7495808            7.8086413            0.0590605
 Magnitude           :                                                    0.7821869
  Basis Set: (AUG-CC-PVTZ AUX)
    Blend: AUG-CC-PVTZ-RI + DEF2-QZVPP-RI
	 Reference Energy          =     -76.0603088787478328 [Eh]
	 Singles Energy            =      -0.0000000000000000 [Eh]
	 Same-Spin Energy          =      -0.0684458380614218 [Eh]
	 Opposite-Spin Energy      =      -0.2160669258123215 [Eh]
	 Correlation Energy        =      -0.2845127638737433 [Eh]
	 Total Energy              =     -76.3448216426215822 [Eh]

	 ================> DF-SCS-MP2 Energies <==================
	-----------------------------------------------------------
	 SCS Same-Spin Scale       =       0.3333333333333333 [-]
	 SCS Opposite-Spin Scale   =       1.2000000000000000 [-]
	 SCS Same-Spin Energy      =      -0.0228152793538073 [Eh]
	 SCS Opposite-Spin Energy  =      -0.2592803109747858 [Eh]
	 SCS Correlation Energy    =      -0.2820955903285931 [Eh]
	 SCS Total Energy          =     -76.3424044690764276 [Eh]
	-----------------------------------------------------------

*** Psi4 exiting successfully. Buy a developer a beer!
