                               Psi4 1.8.2 release

  ==> Input File <==

--------------------------------------------------------------------------
MEMORY 60 GB

molecule dimer {
1 1
Li         0.000000     0.000000     0.000000
O          1.624602    -0.599215     0.407332
H          1.779901    -1.053384     1.285034
H          1.968336    -1.288296    -0.194457
O          0.015130     0.160288    -2.112000
H         -0.400199    -0.626732    -2.426521
H         -0.526316     0.911430    -2.400797
O         -0.104266     2.062866     0.061524
H          0.705352     2.549678    -0.205842
H         -0.844368     2.633268     0.033918
O         -1.648907    -0.748215     0.007261
H         -1.595409    -1.659784    -0.142717
H         -2.314959    -0.624781     0.666327

units ang
no_reorient
no_com
symmetry c1
}

set {
basis        aug-cc-pVTZ
scf_type     df
}

energy("mp2")
--------------------------------------------------------------------------

    Molecular point group: c1

    Geometry (in Angstrom), charge = 1, multiplicity = 1:

       Center              X                  Y                   Z               Mass
    ------------   -----------------  -----------------  -----------------  -----------------
         LI           0.000000000000     0.000000000000     0.000000000000     7.016003436600
         O            1.624602000000    -0.599215000000     0.407332000000    15.994914619570
         H            1.779901000000    -1.053384000000     1.285034000000     1.007825032230
         H            1.968336000000    -1.288296000000    -0.194457000000     1.007825032230
         O            0.015130000000     0.160288000000    -2.112000000000    15.994914619570
         H           -0.400199000000    -0.626732000000    -2.426521000000     1.007825032230
         H           -0.526316000000     0.911430000000    -2.400797000000     1.007825032230
         O           -0.104266000000     2.062866000000     0.061524000000    15.994914619570
         H            0.705352000000     2.549678000000    -0.205842000000     1.007825032230
         H           -0.844368000000     2.633268000000     0.033918000000     1.007825032230
         O           -1.648907000000    -0.748215000000     0.007261000000    15.994914619570
         H           -1.595409000000    -1.659784000000    -0.142717000000     1.007825032230
         H           -2.314959000000    -0.624781000000     0.666327000000     1.007825032230

  Charge       = 1
  Multiplicity = 1
  Basis Set: AUG-CC-PVTZ
    Blend: AUG-CC-PVTZ
  Basis Set: (AUG-CC-PVTZ AUX)
    Blend: AUG-CC-PVTZ-JKFIT + DEF2-UNIVERSAL-JKFIT

    Orbital Energies [Eh]
    ---------------------

    Doubly Occupied:

       1A    -20.764365     2A    -20.761002     3A    -20.732620
       4A    -20.726039     5A     -2.529247     6A     -1.571411
       7A     -1.541375     8A     -1.522983     9A     -1.516371
      10A     -0.938262    11A     -0.898079    12A     -0.888884
      13A     -0.885370    14A     -0.814782    15A     -0.805944
      16A     -0.763339    17A     -0.749927    18A     -0.727400
      19A     -0.713190    20A     -0.688471    21A     -0.669966

  @DF-RHF Final Energy:  -311.61715651097131

   => Energetics <=

    Nuclear Repulsion Energy =            166.3723016371825452
    One-Electron Energy =                -753.5608577917232651
    Two-Electron Energy =                 275.5713996435694071
    Total Energy =                       -311.6171565109713129
 Dipole X            :          3.3230127           -4.0349243           -0.7119116
 Dipole Y            :        -15.3442266           14.8290418           -0.5151848
 Dipole Z            :         30.9188633          -31.1277936           -0.2089303
 Magnitude           :                                                    0.9032637
  Basis Set: (AUG-CC-PVTZ AUX)
    Blend: AUG-CC-PVTZ-RI + DEF2-QZVPP-RI
	 Reference Energy          =    -311.6171565109713129 [Eh]
	 Singles Energy            =      -0.0000000000000000 [Eh]
	 Same-Spin Energy          =      -0.2757037468266623 [Eh]
	 Opposite-Spin Energy      =      -0.8783818541360089 [Eh]
	 Correlation Energy        =      -1.1540856009626712 [Eh]
	 Total Energy              =    -312.7712421119339865 [Eh]

	 ================> DF-SCS-MP2 Energies <==================
	-----------------------------------------------------------
	 SCS Same-Spin Scale       =       0.3333333333333333 [-]
	 SCS Opposite-Spin Scale   =       1.2000000000000000 [-]
	 SCS Same-Spin Energy      =      -0.0919012489422208 [Eh]
	 SCS Opposite-Spin Energy  =      -1.0540582249632107 [Eh]
	 SCS Correlation Energy    =      -1.1459594739054315 [Eh]
	 SCS Total Energy          =    -312.7631159848767197 [Eh]
	-----------------------------------------------------------

*** Psi4 exiting successfully. Buy a developer a beer!
