                               Psi4 1.8.2 release

  ==> Input File <==

--------------------------------------------------------------------------
MEMORY 60 GB

molecule dimer {
1 1
Li         0.000000     0.000000     0.000000
O          0.308611     1.799941     0.055027
H          1.189178     2.084602    -0.029819
H         -0.214343     2.315908    -0.579745
O         -1.239702    -0.176525     1.570107
H         -1.160882    -1.124504     1.682038
H         -1.287511     0.291488     2.423735
O         -1.080482    -0.705916    -1.358061
H         -1.739894    -0.042264    -1.524104
H         -1.505441    -1.545786    -1.482370
O          1.386436    -1.321672    -0.001936
H          1.809813    -1.499437     0.850115
H          2.170025    -1.008615    -0.549659

units ang
no_reorient
no_com
symmetry c1
}

set {
basis        aug-cc-pVTZ
scf_type     df
}

energy("mp2")
--------------------------------------------------------------------------

    Molecular point group: c1

    Geometry (in Angstrom), charge = 1, multiplicity = 1:

       Center              X                  Y                   Z               Mass
    ------------   -----------------  -----------------  -----------------  -----------------
         LI           0.000000000000     0.000000000000     0.000000000000     7.016003436600
         O            0.308611000000     1.799941000000     0.055027000000    15.994914619570
         H            1.189178000000     2.084602000000    -0.029819000000     1.007825032230
         H           -0.214343000000     2.315908000000    -0.579745000000     1.007825032230
         O           -1.239702000000    -0.176525000000     1.570107000000    15.994914619570
         H           -1.160882000000    -1.124504000000     1.682038000000     1.007825032230
         H           -1.287511000000     0.291488000000     2.423735000000     1.007825032230
         O           -1.080482000000    -0.705916000000    -1.358061000000    15.994914619570
         H           -1.739894000000    -0.042264000000    -1.524104000000     1.007825032230
         H           -1.505441000000    -1.545786000000    -1.482370000000     1.007825032230
         O            1.386436000000    -1.321672000000    -0.001936000000    15.994914619570
         H            1.809813000000    -1.499437000000     0.850115000000     1.007825032230
         H            2.170025000000    -1.008615000000    -0.549659000000     1.007825032230

  Charge       = 1
  Multiplicity = 1
  Basis Set: AUG-CC-PVTZ
    Blend: AUG-CC-PVTZ
  Basis Set: (AUG-CC-PVTZ AUX)
    Blend: AUG-CC-PVTZ-JKFIT + DEF2-UNIVERSAL-JKFIT

    Orbital Energies [Eh]
    ---------------------

    Doubly Occupied:

       1A    -20.759004     2A    -20.757089     3A    -20.742721
       4A    -20.736399     5A     -2.524809     6A     -1.556740
       7A     -1.541735     8A     -1.533810     9A     -1.520454
      10A     -0.924095    11A     -0.908343    12A     -0.901501
      13A     -0.885102    14A     -0.802480    15A     -0.801857
      16A     -0.772372    17A     -0.755945    18A     -0.717535
      19A     -0.707236    20A     -0.697303    21A     -0.685276

  @DF-RHF Final Energy:  -311.62006212302856

   => Energetics <=

    Nuclear Repulsion Energy =            166.4649127039222094
    One-Electron Energy =                -753.7063339939904836
    Two-Electron Energy =                 275.6213591670397136
    Total Energy =                       -311.6200621230285606
 Dipole X            :         11.1126744          -10.8473133            0.2653611
 Dipole Y            :          7.2635256           -7.1091194            0.1544061
 Dipole Z            :         -5.2982941            5.5015351            0.2032410
 Magnitude           :                                                    0.3681911
  Basis Set: (AUG-CC-PVTZ AUX)
    Blend: AUG-CC-PVTZ-RI + DEF2-QZVPP-RI
	 Reference Energy          =    -311.6200621230285606 [Eh]
	 Singles Energy            =      -0.0000000000000000 [Eh]
	 Same-Spin Energy          =      -0.2758822817414355 [Eh]
	 Opposite-Spin Energy      =      -0.8791655056000932 [Eh]
	 Correlation Energy        =      -1.1550477873415286 [Eh]
	 Total Energy              =    -312.7751099103700767 [Eh]

	 ================> DF-SCS-MP2 Energies <==================
	-----------------------------------------------------------
	 SCS Same-Spin Scale       =       0.3333333333333333 [-]
	 SCS Opposite-Spin Scale   =       1.2000000000000000 [-]
	 SCS Same-Spin Energy      =      -0.0919607605804785 [Eh]
	 SCS Opposite-Spin Energy  =      -1.0549986067201118 [Eh]
	 SCS Correlation Energy    =      -1.1469593673005902 [Eh]
	 SCS Total Energy          =    -312.7670214903291708 [Eh]
	-----------------------------------------------------------

*** Psi4 exiting successfully. Buy a developer a beer!
