                               Psi4 1.8.2 release

  ==> Input File <==

--------------------------------------------------------------------------
MEMORY 60 GB

molecule dimer {
1 1
Li         0.000000     0.000000     0.000000
O          0.974801    -1.457324    -0.803063
H          1.616648    -1.821333    -0.185071
H          0.543412    -2.209643    -1.228589
O         -1.022460    -0.705935     1.627113
H         -1.734123    -0.103167     1.913218
H         -1.500284    -1.468483     1.235082
O         -1.471986     0.365186    -1.104744
H         -1.395966     1.135543    -1.703561
H         -2.409858     0.169828    -1.010243
O          1.111405     1.672966    -0.206272
H          1.061116     2.268920     0.588148
H          1.217032     2.358049    -0.946568

units ang
no_reorient
no_com
symmetry c1
}

set {
basis        aug-cc-pVTZ
scf_type     df
}

energy("mp2")
--------------------------------------------------------------------------

    Molecular point group: c1

    Geometry (in Angstrom), charge = 1, multiplicity = 1:

       Center              X                  Y                   Z               Mass
    ------------   -----------------  -----------------  -----------------  -----------------
         LI           0.000000000000     0.000000000000     0.000000000000     7.016003436600
         O            0.974801000000    -1.457324000000    -0.803063000000    15.994914619570
         H            1.616648000000    -1.821333000000    -0.185071000000     1.007825032230
         H            0.543412000000    -2.209643000000    -1.228589000000     1.007825032230
         O           -1.022460000000    -0.705935000000     1.627113000000    15.994914619570
         H           -1.734123000000    -0.103167000000     1.913218000000     1.007825032230
         H           -1.500284000000    -1.468483000000     1.235082000000     1.007825032230
         O           -1.471986000000     0.365186000000    -1.104744000000    15.994914619570
         H           -1.395966000000     1.135543000000    -1.703561000000     1.007825032230
         H           -2.409858000000     0.169828000000    -1.010243000000     1.007825032230
         O            1.111405000000     1.672966000000    -0.206272000000    15.994914619570
         H            1.061116000000     2.268920000000     0.588148000000     1.007825032230
         H            1.217032000000     2.358049000000    -0.946568000000     1.007825032230

  Charge       = 1
  Multiplicity = 1
  Basis Set: AUG-CC-PVTZ
    Blend: AUG-CC-PVTZ
  Basis Set: (AUG-CC-PVTZ AUX)
    Blend: AUG-CC-PVTZ-JKFIT + DEF2-UNIVERSAL-JKFIT

    Orbital Energies [Eh]
    ---------------------

    Doubly Occupied:

       1A    -20.755642     2A    -20.752626     3A    -20.750988
       4A    -20.741823     5A     -2.533426     6A     -1.540664
       7A     -1.529214     8A     -1.527607     9A     -1.514834
      10A     -0.908679    11A     -0.895126    12A     -0.887459
      13A     -0.864763    14A     -0.799692    15A     -0.781568
      16A     -0.774057    17A     -0.769157    18A     -0.712515
      19A     -0.698565    20A     -0.691166    21A     -0.686534

  @DF-RHF Final Energy:  -311.61846237941916

   => Energetics <=

    Nuclear Repulsion Energy =            162.0646868357914911
    One-Electron Energy =                -745.1340858394559064
    Two-Electron Energy =                 271.4509366242452870
    Total Energy =                       -311.6184623794191566
 Dipole X            :          9.8384375          -11.0888052           -1.2503677
 Dipole Y            :          1.6577997           -1.2682746            0.3895251
 Dipole Z            :          9.5169339           -9.8895264           -0.3725926
 Magnitude           :                                                    1.3616073
  Basis Set: (AUG-CC-PVTZ AUX)
    Blend: AUG-CC-PVTZ-RI + DEF2-QZVPP-RI
	 Reference Energy          =    -311.6184623794191566 [Eh]
	 Singles Energy            =      -0.0000000000000000 [Eh]
	 Same-Spin Energy          =      -0.2767575679301328 [Eh]
	 Opposite-Spin Energy      =      -0.8821054586301745 [Eh]
	 Correlation Energy        =      -1.1588630265603073 [Eh]
	 Total Energy              =    -312.7773254059794681 [Eh]

	 ================> DF-SCS-MP2 Energies <==================
	-----------------------------------------------------------
	 SCS Same-Spin Scale       =       0.3333333333333333 [-]
	 SCS Opposite-Spin Scale   =       1.2000000000000000 [-]
	 SCS Same-Spin Energy      =      -0.0922525226433776 [Eh]
	 SCS Opposite-Spin Energy  =      -1.0585265503562094 [Eh]
	 SCS Correlation Energy    =      -1.1507790729995870 [Eh]
	 SCS Total Energy          =    -312.7692414524187257 [Eh]
	-----------------------------------------------------------

*** Psi4 exiting successfully. Buy a developer a beer!
