                               Psi4 1.8.2 release

  ==> Input File <==

--------------------------------------------------------------------------
MEMORY 60 GB

molecule dimer {
1 1
Li         0.000000     0.000000     0.000000
O         -0.018395    -0.041580     1.983631
H         -0.386092    -0.854160     2.162791
H         -0.588807     0.602468     2.387195
O          1.568867    -0.245466    -0.873446
H          1.921565     0.450636    -1.498824
H          1.715073    -1.117651    -1.298721
O         -1.777084    -0.764231    -0.483763
H         -1.639151    -1.700624    -0.297360
H         -2.502232    -0.406567     0.104343

units ang
no_reorient
no_com
symmetry c1
}

set {
basis        aug-cc-pVTZ
scf_type     df
}

energy("mp2")
--------------------------------------------------------------------------

    Molecular point group: c1

    Geometry (in Angstrom), charge = 1, multiplicity = 1:

       Center              X                  Y                   Z               Mass
    ------------   -----------------  -----------------  -----------------  -----------------
         LI           0.000000000000     0.000000000000     0.000000000000     7.016003436600
         O           -0.018395000000    -0.041580000000     1.983631000000    15.994914619570
         H           -0.386092000000    -0.854160000000     2.162791000000     1.007825032230
         H           -0.588807000000     0.602468000000     2.387195000000     1.007825032230
         O            1.568867000000    -0.245466000000    -0.873446000000    15.994914619570
         H            1.921565000000     0.450636000000    -1.498824000000     1.007825032230
         H            1.715073000000    -1.117651000000    -1.298721000000     1.007825032230
         O           -1.777084000000    -0.764231000000    -0.483763000000    15.994914619570
         H           -1.639151000000    -1.700624000000    -0.297360000000     1.007825032230
         H           -2.502232000000    -0.406567000000     0.104343000000     1.007825032230

  Charge       = 1
  Multiplicity = 1
  Basis Set: AUG-CC-PVTZ
    Blend: AUG-CC-PVTZ
  Basis Set: (AUG-CC-PVTZ AUX)
    Blend: AUG-CC-PVTZ-JKFIT + DEF2-UNIVERSAL-JKFIT

    Orbital Energies [Eh]
    ---------------------

    Doubly Occupied:

       1A    -20.777399     2A    -20.776504     3A    -20.764950
       4A     -2.582464     5A     -1.575709     6A     -1.551937
       7A     -1.549590     8A     -0.941487     9A     -0.923668
      10A     -0.914300    11A     -0.813018    12A     -0.799925
      13A     -0.792218    14A     -0.742384    15A     -0.724688
      16A     -0.712356

  @DF-RHF Final Energy:  -235.52899894250061

   => Energetics <=

    Nuclear Repulsion Energy =             97.8604395039619277
    One-Electron Energy =                -512.8936814500065111
    Two-Electron Energy =                 179.5042430035439907
    Total Energy =                       -235.5289989425006070
 Dipole X            :          5.5229952           -6.2219989           -0.6990036
 Dipole Y            :         20.8229896          -21.6111234           -0.7881338
 Dipole Z            :        -12.1494442           12.4170124            0.2675683
 Magnitude           :                                                    1.0869010
  Basis Set: (AUG-CC-PVTZ AUX)
    Blend: AUG-CC-PVTZ-RI + DEF2-QZVPP-RI
	 Reference Energy          =    -235.5289989425006070 [Eh]
	 Singles Energy            =      -0.0000000000000000 [Eh]
	 Same-Spin Energy          =      -0.2058580575405956 [Eh]
	 Opposite-Spin Energy      =      -0.6610021828263221 [Eh]
	 Correlation Energy        =      -0.8668602403669177 [Eh]
	 Total Energy              =    -236.3958591828675253 [Eh]

	 ================> DF-SCS-MP2 Energies <==================
	-----------------------------------------------------------
	 SCS Same-Spin Scale       =       0.3333333333333333 [-]
	 SCS Opposite-Spin Scale   =       1.2000000000000000 [-]
	 SCS Same-Spin Energy      =      -0.0686193525135319 [Eh]
	 SCS Opposite-Spin Energy  =      -0.7932026193915864 [Eh]
	 SCS Correlation Energy    =      -0.8618219719051183 [Eh]
	 SCS Total Energy          =    -236.3908209144057366 [Eh]
	-----------------------------------------------------------

*** Psi4 exiting successfully. Buy a developer a beer!
