                               Psi4 1.8.2 release

  ==> Input File <==

--------------------------------------------------------------------------
MEMORY 60 GB

molecule dimer {
1 1
Li         0.000000     0.000000     0.000000
O          1.023000     0.620441     1.583861
H          1.455219     0.253028     2.357655
H          1.073738     1.617144     1.656624
O          0.990010    -1.210458    -1.226372
H          0.996585    -0.767777    -2.058657
H          0.892016    -2.180068    -1.332978
O         -0.199397     1.811129    -0.706428
H         -0.471302     2.120332    -1.569275
H         -0.590440     2.361535    -0.067867

units ang
no_reorient
no_com
symmetry c1
}

set {
basis        aug-cc-pVTZ
scf_type     df
}

energy("mp2")
--------------------------------------------------------------------------

    Molecular point group: c1

    Geometry (in Angstrom), charge = 1, multiplicity = 1:

       Center              X                  Y                   Z               Mass
    ------------   -----------------  -----------------  -----------------  -----------------
         LI           0.000000000000     0.000000000000     0.000000000000     7.016003436600
         O            1.023000000000     0.620441000000     1.583861000000    15.994914619570
         H            1.455219000000     0.253028000000     2.357655000000     1.007825032230
         H            1.073738000000     1.617144000000     1.656624000000     1.007825032230
         O            0.990010000000    -1.210458000000    -1.226372000000    15.994914619570
         H            0.996585000000    -0.767777000000    -2.058657000000     1.007825032230
         H            0.892016000000    -2.180068000000    -1.332978000000     1.007825032230
         O           -0.199397000000     1.811129000000    -0.706428000000    15.994914619570
         H           -0.471302000000     2.120332000000    -1.569275000000     1.007825032230
         H           -0.590440000000     2.361535000000    -0.067867000000     1.007825032230

  Charge       = 1
  Multiplicity = 1
  Basis Set: AUG-CC-PVTZ
    Blend: AUG-CC-PVTZ
  Basis Set: (AUG-CC-PVTZ AUX)
    Blend: AUG-CC-PVTZ-JKFIT + DEF2-UNIVERSAL-JKFIT

    Orbital Energies [Eh]
    ---------------------

    Doubly Occupied:

       1A    -20.771151     2A    -20.758797     3A    -20.757554
       4A     -2.585935     5A     -1.572231     6A     -1.543965
       7A     -1.534314     8A     -0.945447     9A     -0.922494
      10A     -0.902285    11A     -0.814922    12A     -0.789212
      13A     -0.780429    14A     -0.727979    15A     -0.708604
      16A     -0.702212

  @DF-RHF Final Energy:  -235.54128709699961

   => Energetics <=

    Nuclear Repulsion Energy =             98.3426342081062472
    One-Electron Energy =                -514.1327804613841863
    Two-Electron Energy =                 180.2488591562783427
    Total Energy =                       -235.5412870969996106
 Dipole X            :        -33.6380265           33.7594281            0.1214016
 Dipole Y            :        -24.0471223           24.8935323            0.8464100
 Dipole Z            :          6.8818999           -7.1923165           -0.3104166
 Magnitude           :                                                    0.9096739
  Basis Set: (AUG-CC-PVTZ AUX)
    Blend: AUG-CC-PVTZ-RI + DEF2-QZVPP-RI
	 Reference Energy          =    -235.5412870969996106 [Eh]
	 Singles Energy            =      -0.0000000000000000 [Eh]
	 Same-Spin Energy          =      -0.2055930367430213 [Eh]
	 Opposite-Spin Energy      =      -0.6596169821378627 [Eh]
	 Correlation Energy        =      -0.8652100188808840 [Eh]
	 Total Energy              =    -236.4064971158804838 [Eh]

	 ================> DF-SCS-MP2 Energies <==================
	-----------------------------------------------------------
	 SCS Same-Spin Scale       =       0.3333333333333333 [-]
	 SCS Opposite-Spin Scale   =       1.2000000000000000 [-]
	 SCS Same-Spin Energy      =      -0.0685310122476738 [Eh]
	 SCS Opposite-Spin Energy  =      -0.7915403785654352 [Eh]
	 SCS Correlation Energy    =      -0.8600713908131090 [Eh]
	 SCS Total Energy          =    -236.4013584878127290 [Eh]
	-----------------------------------------------------------

*** Psi4 exiting successfully. Buy a developer a beer!
