                               Psi4 1.8.2 release

  ==> Input File <==

--------------------------------------------------------------------------
MEMORY 60 GB

molecule dimer {
1 1
Li         0.000000     0.000000     0.000000
O          1.014907    -1.846591     0.065476
H          0.268180    -2.329649    -0.359526
H          1.399774    -2.433915     0.796256
O          1.462449     1.073689     0.580959
H          1.086336     1.782468     1.119353
H          2.002930     0.547479     1.110363
O         -0.252680     0.490401    -1.807295
H          0.113651     0.060304    -2.550227
H         -1.152599     0.460089    -2.081251
O         -1.692409     0.463443     0.935552
H         -2.421769     0.480840     0.338377
H         -1.923923    -0.014474     1.749577

units ang
no_reorient
no_com
symmetry c1
}

set {
basis        aug-cc-pVTZ
scf_type     df
}

energy("mp2")
--------------------------------------------------------------------------

    Molecular point group: c1

    Geometry (in Angstrom), charge = 1, multiplicity = 1:

       Center              X                  Y                   Z               Mass
    ------------   -----------------  -----------------  -----------------  -----------------
         LI           0.000000000000     0.000000000000     0.000000000000     7.016003436600
         O            1.014907000000    -1.846591000000     0.065476000000    15.994914619570
         H            0.268180000000    -2.329649000000    -0.359526000000     1.007825032230
         H            1.399774000000    -2.433915000000     0.796256000000     1.007825032230
         O            1.462449000000     1.073689000000     0.580959000000    15.994914619570
         H            1.086336000000     1.782468000000     1.119353000000     1.007825032230
         H            2.002930000000     0.547479000000     1.110363000000     1.007825032230
         O           -0.252680000000     0.490401000000    -1.807295000000    15.994914619570
         H            0.113651000000     0.060304000000    -2.550227000000     1.007825032230
         H           -1.152599000000     0.460089000000    -2.081251000000     1.007825032230
         O           -1.692409000000     0.463443000000     0.935552000000    15.994914619570
         H           -2.421769000000     0.480840000000     0.338377000000     1.007825032230
         H           -1.923923000000    -0.014474000000     1.749577000000     1.007825032230

  Charge       = 1
  Multiplicity = 1
  Basis Set: AUG-CC-PVTZ
    Blend: AUG-CC-PVTZ
  Basis Set: (AUG-CC-PVTZ AUX)
    Blend: AUG-CC-PVTZ-JKFIT + DEF2-UNIVERSAL-JKFIT

    Orbital Energies [Eh]
    ---------------------

    Doubly Occupied:

       1A    -20.761151     2A    -20.755338     3A    -20.753737
       4A    -20.731774     5A     -2.540274     6A     -1.563189
       7A     -1.550678     8A     -1.533943     9A     -1.518052
      10A     -0.928874    11A     -0.906818    12A     -0.903507
      13A     -0.887904    14A     -0.815389    15A     -0.787743
      16A     -0.769831    17A     -0.755895    18A     -0.717795
      19A     -0.709644    20A     -0.698786    21A     -0.688894

  @DF-RHF Final Energy:  -311.61342666154900

   => Energetics <=

    Nuclear Repulsion Energy =            162.7157893648342792
    One-Electron Energy =                -746.0999983248431136
    Two-Electron Energy =                 271.7707822984598920
    Total Energy =                       -311.6134266615489992
 Dipole X            :         -7.9332899            6.8610589           -1.0722310
 Dipole Y            :         -1.1820478            0.0012812           -1.1807665
 Dipole Z            :          3.5349088           -3.1738744            0.3610344
 Magnitude           :                                                    1.6353088
  Basis Set: (AUG-CC-PVTZ AUX)
    Blend: AUG-CC-PVTZ-RI + DEF2-QZVPP-RI
	 Reference Energy          =    -311.6134266615489992 [Eh]
	 Singles Energy            =      -0.0000000000000000 [Eh]
	 Same-Spin Energy          =      -0.2755171522971223 [Eh]
	 Opposite-Spin Energy      =      -0.8785176933123607 [Eh]
	 Correlation Energy        =      -1.1540348456094831 [Eh]
	 Total Energy              =    -312.7674615071584867 [Eh]

	 ================> DF-SCS-MP2 Energies <==================
	-----------------------------------------------------------
	 SCS Same-Spin Scale       =       0.3333333333333333 [-]
	 SCS Opposite-Spin Scale   =       1.2000000000000000 [-]
	 SCS Same-Spin Energy      =      -0.0918390507657074 [Eh]
	 SCS Opposite-Spin Energy  =      -1.0542212319748328 [Eh]
	 SCS Correlation Energy    =      -1.1460602827405402 [Eh]
	 SCS Total Energy          =    -312.7594869442895629 [Eh]
	-----------------------------------------------------------

*** Psi4 exiting successfully. Buy a developer a beer!
