                               Psi4 1.9 release

  ==> Input File <==

--------------------------------------------------------------------------
MEMORY 60 GB

molecule dimer {
1 1
Li     0.000000     0.000000     0.000000
--
0 1
O     -0.640365     1.689708    -0.437904
H     -0.947848     2.436251     0.118257
H     -0.375875     2.071206    -1.343003
O     -0.938579    -0.924804    -1.558802
H     -1.517519    -0.334733    -2.007314
H     -0.339862    -1.423081    -2.166337
O      1.855579     0.005682    -0.344725
H      2.067217    -0.495737    -1.130002
H      2.498269    -0.321495     0.326646
O     -0.731485    -1.139576     1.603199
H     -0.628082    -0.542600     2.334045
H     -1.652610    -1.061287     1.341316

units ang
no_reorient
no_com
symmetry c1
}

set {
basis        aug-cc-pVTZ
scf_type     df
}

energy("mp2", bsse_type="cp")
--------------------------------------------------------------------------

                               Psi4 1.9 release
    Molecular point group: c1
  Charge       = 0
  Multiplicity = 1
  Basis Set: AUG-CC-PVTZ
    Blend: AUG-CC-PVTZ
  Basis Set: (AUG-CC-PVTZ AUX)
    Blend: AUG-CC-PVTZ-JKFIT + DEF2-UNIVERSAL-JKFIT
  @DF-RHF Final Energy:  -304.21216193319003
    Total Energy =                       -304.2121619331900320
 Dipole X            :          8.5810946           -8.5701158            0.0109787
 Dipole Y            :          5.6680079           -4.9575000            0.7105080
 Dipole Z            :         15.2824320          -15.9346393           -0.6522074
 Magnitude           :                                                    0.9645292
  Basis Set: (AUG-CC-PVTZ AUX)
    Blend: AUG-CC-PVTZ-RI + DEF2-QZVPP-RI
	 Reference Energy          =    -304.2121619331900320 [Eh]
	 Singles Energy            =      -0.0000000000000000 [Eh]
	 Same-Spin Energy          =      -0.2776934416643124 [Eh]
	 Opposite-Spin Energy      =      -0.8706455995399698 [Eh]
	 Correlation Energy        =      -1.1483390412042822 [Eh]
	 Total Energy              =    -305.3605009743943128 [Eh]
	 SCS Total Energy          =    -305.3495011331927458 [Eh]
                               Psi4 1.9 release
    Molecular point group: c1
  Multiplicity = 1
  Basis Set: AUG-CC-PVTZ
    Blend: AUG-CC-PVTZ
  Basis Set: (AUG-CC-PVTZ AUX)
    Blend: AUG-CC-PVTZ-JKFIT + DEF2-UNIVERSAL-JKFIT
  @DF-RHF Final Energy:    -7.23638486518395
    Total Energy =                         -7.2363848651839451
  Basis Set: (AUG-CC-PVTZ AUX)
	 Singles Energy            =      -0.0000000000000000 [Eh]
	 Same-Spin Energy          =      -0.0000000000000000 [Eh]
	 Opposite-Spin Energy      =      -0.0169792837390832 [Eh]
	 Correlation Energy        =      -0.0169792837390832 [Eh]
	 Total Energy              =      -7.2533641489230281 [Eh]
	 SCS Total Energy          =      -7.2567600056708450 [Eh]
                               Psi4 1.9 release
    Molecular point group: c1

    Geometry (in Bohr), charge = 1, multiplicity = 1:

       Center              X                  Y                   Z               Mass
    ------------   -----------------  -----------------  -----------------  -----------------
         LI           0.000000000000     0.000000000000     0.000000000000     7.016003436600
         O           -1.210114470329     3.193085351995    -0.827518629242    15.994914619570
         H           -1.791173128563     4.603847162873     0.223473342418     1.007825032230
         H           -0.710300807406     3.914012089405    -2.537907855668     1.007825032230
         O           -1.773657257106    -1.747626279728    -2.945708863816    15.994914619570
         H           -2.867695300179    -0.632553695153    -3.793273707797     1.007825032230
         H           -0.642246100450    -2.689233344343    -4.093783625446     1.007825032230
         O            3.506536114151     0.010737423845    -0.651435838598    15.994914619570
         H            3.906473971891    -0.936807160256    -2.135394301220     1.007825032230
         H            4.721044197721    -0.607537500704     0.617271479976     1.007825032230
         O           -1.382306314881    -2.153486539145     3.029607034608    15.994914619570
         H           -1.186902964330    -1.025365395673     4.410705814494     1.007825032230
         H           -3.122980292193    -2.005541770509     2.534719887695     1.007825032230

  Charge       = 1
  Multiplicity = 1
  Basis Set: AUG-CC-PVTZ
    Blend: AUG-CC-PVTZ
  Basis Set: (AUG-CC-PVTZ AUX)
    Blend: AUG-CC-PVTZ-JKFIT + DEF2-UNIVERSAL-JKFIT

    Orbital Energies [Eh]
    ---------------------

    Doubly Occupied:

       1A    -20.763495     2A    -20.757068     3A    -20.745848
       4A    -20.739931     5A     -2.537963     6A     -1.542705
       7A     -1.534007     8A     -1.530977     9A     -1.528577
      10A     -0.915630    11A     -0.902403    12A     -0.895983
      13A     -0.893700    14A     -0.801683    15A     -0.788777
      16A     -0.768742    17A     -0.757916    18A     -0.713216
      19A     -0.705858    20A     -0.695020    21A     -0.691760

  @DF-RHF Final Energy:  -311.61473965475113

   => Energetics <=

    Nuclear Repulsion Energy =            162.8957219991129932
    One-Electron Energy =                -746.5984002618797604
    Two-Electron Energy =                 272.0879386080156337
    Total Energy =                       -311.6147396547511335
 Dipole X            :          8.5555001           -8.5701158           -0.0146158
 Dipole Y            :          5.7054640           -4.9575000            0.7479640
 Dipole Z            :         15.0903299          -15.9346393           -0.8443095
 Magnitude           :                                                    1.1280613
  Basis Set: (AUG-CC-PVTZ AUX)
    Blend: AUG-CC-PVTZ-RI + DEF2-QZVPP-RI
	 Reference Energy          =    -311.6147396547511335 [Eh]
	 Singles Energy            =      -0.0000000000000000 [Eh]
	 Same-Spin Energy          =      -0.2763141002148512 [Eh]
	 Opposite-Spin Energy      =      -0.8806198800795659 [Eh]
	 Correlation Energy        =      -1.1569339802944172 [Eh]
	 Total Energy              =    -312.7716736350455449 [Eh]

	 ================> DF-SCS-MP2 Energies <==================
	-----------------------------------------------------------
	 SCS Same-Spin Scale       =       0.3333333333333333 [-]
	 SCS Opposite-Spin Scale   =       1.2000000000000000 [-]
	 SCS Same-Spin Energy      =      -0.0921047000716171 [Eh]
	 SCS Opposite-Spin Energy  =      -1.0567438560954792 [Eh]
	 SCS Correlation Energy    =      -1.1488485561670962 [Eh]
	 SCS Total Energy          =    -312.7635882109182148 [Eh]
	-----------------------------------------------------------

*** Psi4 exiting successfully. Buy a developer a beer!
