                               Psi4 1.8.2 release

  ==> Input File <==

--------------------------------------------------------------------------
MEMORY 60 GB

molecule dimer {
0 1
Gh(Li)     0.000000     0.000000     0.000000
O         -0.266443     1.938313    -0.248340
H         -0.088316     2.610611    -0.926278
H         -0.885622     2.402495     0.339436
Gh(O)     -1.305581    -1.041945    -1.192735
Gh(H)     -1.614892    -1.898100    -0.899961
Gh(H)     -0.845776    -1.154356    -2.000716
Gh(O)      2.066109    -0.498860    -0.290542
Gh(H)      2.623530    -0.650184     0.499648
Gh(H)      2.518418    -0.862145    -1.036711
Gh(O)     -0.099893    -0.786188     1.651962
Gh(H)      0.363831    -1.589227     1.918952
Gh(H)     -1.018921    -0.908196     1.943922

units ang
no_reorient
no_com
symmetry c1
}

set {
basis        aug-cc-pVTZ
scf_type     df
}

energy("mp2")
--------------------------------------------------------------------------

    Molecular point group: c1

    Geometry (in Angstrom), charge = 0, multiplicity = 1:

       Center              X                  Y                   Z               Mass
    ------------   -----------------  -----------------  -----------------  -----------------
      Gh(LI)          0.000000000000     0.000000000000     0.000000000000     7.016003436600
         O           -0.266443000000     1.938313000000    -0.248340000000    15.994914619570
         H           -0.088316000000     2.610611000000    -0.926278000000     1.007825032230
         H           -0.885622000000     2.402495000000     0.339436000000     1.007825032230
      Gh(O)          -1.305581000000    -1.041945000000    -1.192735000000    15.994914619570
      Gh(H)          -1.614892000000    -1.898100000000    -0.899961000000     1.007825032230
      Gh(H)          -0.845776000000    -1.154356000000    -2.000716000000     1.007825032230
      Gh(O)           2.066109000000    -0.498860000000    -0.290542000000    15.994914619570
      Gh(H)           2.623530000000    -0.650184000000     0.499648000000     1.007825032230
      Gh(H)           2.518418000000    -0.862145000000    -1.036711000000     1.007825032230
      Gh(O)          -0.099893000000    -0.786188000000     1.651962000000    15.994914619570
      Gh(H)           0.363831000000    -1.589227000000     1.918952000000     1.007825032230
      Gh(H)          -1.018921000000    -0.908196000000     1.943922000000     1.007825032230

  Charge       = 0
  Multiplicity = 1
  Basis Set: AUG-CC-PVTZ
    Blend: AUG-CC-PVTZ
  Basis Set: (AUG-CC-PVTZ AUX)
    Blend: AUG-CC-PVTZ-JKFIT + DEF2-UNIVERSAL-JKFIT

    Orbital Energies [Eh]
    ---------------------

    Doubly Occupied:

       1A    -20.570552     2A     -1.347961     3A     -0.705175
       4A     -0.586954     5A     -0.509877

  @DF-RHF Final Energy:   -76.05916511743378

   => Energetics <=

    Nuclear Repulsion Energy =              9.0655559624392801
    One-Electron Energy =                -122.8083996653720220
    Two-Electron Energy =                  37.6836785854989671
    Total Energy =                        -76.0591651174337784
 Dipole X            :          5.5800144           -5.8685105           -0.2884961
 Dipole Y            :        -38.0327706           38.7764431            0.7436725
 Dipole Z            :          4.8042253           -4.8633273           -0.0591020
 Magnitude           :                                                    0.7998574
  Basis Set: (AUG-CC-PVTZ AUX)
    Blend: AUG-CC-PVTZ-RI + DEF2-QZVPP-RI
	 Reference Energy          =     -76.0591651174337784 [Eh]
	 Singles Energy            =      -0.0000000000000000 [Eh]
	 Same-Spin Energy          =      -0.0687259774025169 [Eh]
	 Opposite-Spin Energy      =      -0.2168032134911048 [Eh]
	 Correlation Energy        =      -0.2855291908936217 [Eh]
	 Total Energy              =     -76.3446943083274050 [Eh]

	 ================> DF-SCS-MP2 Energies <==================
	-----------------------------------------------------------
	 SCS Same-Spin Scale       =       0.3333333333333333 [-]
	 SCS Opposite-Spin Scale   =       1.2000000000000000 [-]
	 SCS Same-Spin Energy      =      -0.0229086591341723 [Eh]
	 SCS Opposite-Spin Energy  =      -0.2601638561893257 [Eh]
	 SCS Correlation Energy    =      -0.2830725153234980 [Eh]
	 SCS Total Energy          =     -76.3422376327572749 [Eh]
	-----------------------------------------------------------

*** Psi4 exiting successfully. Buy a developer a beer!
