                               Psi4 1.8.2 release

  ==> Input File <==

--------------------------------------------------------------------------
MEMORY 60 GB

molecule dimer {
1 1
Li         0.000000     0.000000     0.000000
Gh(O)      1.014907    -1.846591     0.065476
Gh(H)      0.268180    -2.329649    -0.359526
Gh(H)      1.399774    -2.433915     0.796256
Gh(O)      1.462449     1.073689     0.580959
Gh(H)      1.086336     1.782468     1.119353
Gh(H)      2.002930     0.547479     1.110363
Gh(O)     -0.252680     0.490401    -1.807295
Gh(H)      0.113651     0.060304    -2.550227
Gh(H)     -1.152599     0.460089    -2.081251
Gh(O)     -1.692409     0.463443     0.935552
Gh(H)     -2.421769     0.480840     0.338377
Gh(H)     -1.923923    -0.014474     1.749577

units ang
no_reorient
no_com
symmetry c1
}

set {
basis        aug-cc-pVTZ
scf_type     df
}

energy("mp2")
--------------------------------------------------------------------------

    Molecular point group: c1

    Geometry (in Angstrom), charge = 1, multiplicity = 1:

       Center              X                  Y                   Z               Mass
    ------------   -----------------  -----------------  -----------------  -----------------
         LI           0.000000000000     0.000000000000     0.000000000000     7.016003436600
      Gh(O)           1.014907000000    -1.846591000000     0.065476000000    15.994914619570
      Gh(H)           0.268180000000    -2.329649000000    -0.359526000000     1.007825032230
      Gh(H)           1.399774000000    -2.433915000000     0.796256000000     1.007825032230
      Gh(O)           1.462449000000     1.073689000000     0.580959000000    15.994914619570
      Gh(H)           1.086336000000     1.782468000000     1.119353000000     1.007825032230
      Gh(H)           2.002930000000     0.547479000000     1.110363000000     1.007825032230
      Gh(O)          -0.252680000000     0.490401000000    -1.807295000000    15.994914619570
      Gh(H)           0.113651000000     0.060304000000    -2.550227000000     1.007825032230
      Gh(H)          -1.152599000000     0.460089000000    -2.081251000000     1.007825032230
      Gh(O)          -1.692409000000     0.463443000000     0.935552000000    15.994914619570
      Gh(H)          -2.421769000000     0.480840000000     0.338377000000     1.007825032230
      Gh(H)          -1.923923000000    -0.014474000000     1.749577000000     1.007825032230

  Charge       = 1
  Multiplicity = 1
  Basis Set: AUG-CC-PVTZ
    Blend: AUG-CC-PVTZ
  Basis Set: (AUG-CC-PVTZ AUX)
    Blend: AUG-CC-PVTZ-JKFIT + DEF2-UNIVERSAL-JKFIT

    Orbital Energies [Eh]
    ---------------------

    Doubly Occupied:

       1A     -2.792353

  @DF-RHF Final Energy:    -7.23638489410558

   => Energetics <=

    Nuclear Repulsion Energy =              0.0000000000000000
    One-Electron Energy =                  -8.8880647613857260
    Two-Electron Energy =                   1.6516798672801429
    Total Energy =                         -7.2363848941055835
 Dipole X            :         -0.0000011            0.0000000           -0.0000011
 Dipole Y            :         -0.0000085            0.0000000           -0.0000085
 Dipole Z            :          0.0000017            0.0000000            0.0000017
 Magnitude           :                                                    0.0000087
  Basis Set: (AUG-CC-PVTZ AUX)
    Blend: AUG-CC-PVTZ-RI + DEF2-QZVPP-RI
	 Reference Energy          =      -7.2363848941055835 [Eh]
	 Singles Energy            =      -0.0000000000000000 [Eh]
	 Same-Spin Energy          =       0.0000000000000000 [Eh]
	 Opposite-Spin Energy      =      -0.0169378448980970 [Eh]
	 Correlation Energy        =      -0.0169378448980970 [Eh]
	 Total Energy              =      -7.2533227390036803 [Eh]

	 ================> DF-SCS-MP2 Energies <==================
	-----------------------------------------------------------
	 SCS Same-Spin Scale       =       0.3333333333333333 [-]
	 SCS Opposite-Spin Scale   =       1.2000000000000000 [-]
	 SCS Same-Spin Energy      =       0.0000000000000000 [Eh]
	 SCS Opposite-Spin Energy  =      -0.0203254138777163 [Eh]
	 SCS Correlation Energy    =      -0.0203254138777163 [Eh]
	 SCS Total Energy          =      -7.2567103079833002 [Eh]
	-----------------------------------------------------------

*** Psi4 exiting successfully. Buy a developer a beer!
