                               Psi4 1.8.2 release

  ==> Input File <==

--------------------------------------------------------------------------
MEMORY 60 GB

molecule dimer {
0 1
Gh(Li)     0.000000     0.000000     0.000000
O          1.276765     0.545153     1.397121
H          1.439625    -0.293000     1.863141
H          1.756552     1.287598     1.849105
Gh(O)      0.409922     1.229791    -1.545668
Gh(H)      1.146667     1.129525    -2.203588
Gh(H)     -0.234316     1.541034    -2.202116
Gh(O)     -1.716144     0.282187     0.825118
Gh(H)     -2.643062     0.455413     0.501701
Gh(H)     -1.848891    -0.348811     1.525324
Gh(O)      0.520377    -1.745389    -0.656277
Gh(H)     -0.250082    -2.060907    -1.141392
Gh(H)      0.808173    -2.502960    -0.080864

units ang
no_reorient
no_com
symmetry c1
}

set {
basis        aug-cc-pVTZ
scf_type     df
}

energy("mp2")
--------------------------------------------------------------------------

    Molecular point group: c1

    Geometry (in Angstrom), charge = 0, multiplicity = 1:

       Center              X                  Y                   Z               Mass
    ------------   -----------------  -----------------  -----------------  -----------------
      Gh(LI)          0.000000000000     0.000000000000     0.000000000000     7.016003436600
         O            1.276765000000     0.545153000000     1.397121000000    15.994914619570
         H            1.439625000000    -0.293000000000     1.863141000000     1.007825032230
         H            1.756552000000     1.287598000000     1.849105000000     1.007825032230
      Gh(O)           0.409922000000     1.229791000000    -1.545668000000    15.994914619570
      Gh(H)           1.146667000000     1.129525000000    -2.203588000000     1.007825032230
      Gh(H)          -0.234316000000     1.541034000000    -2.202116000000     1.007825032230
      Gh(O)          -1.716144000000     0.282187000000     0.825118000000    15.994914619570
      Gh(H)          -2.643062000000     0.455413000000     0.501701000000     1.007825032230
      Gh(H)          -1.848891000000    -0.348811000000     1.525324000000     1.007825032230
      Gh(O)           0.520377000000    -1.745389000000    -0.656277000000    15.994914619570
      Gh(H)          -0.250082000000    -2.060907000000    -1.141392000000     1.007825032230
      Gh(H)           0.808173000000    -2.502960000000    -0.080864000000     1.007825032230

  Charge       = 0
  Multiplicity = 1
  Basis Set: AUG-CC-PVTZ
    Blend: AUG-CC-PVTZ
  Basis Set: (AUG-CC-PVTZ AUX)
    Blend: AUG-CC-PVTZ-JKFIT + DEF2-UNIVERSAL-JKFIT

    Orbital Energies [Eh]
    ---------------------

    Doubly Occupied:

       1A    -20.568671     2A     -1.336958     3A     -0.714034
       4A     -0.569026     5A     -0.506458

  @DF-RHF Final Energy:   -76.05695684467148

   => Energetics <=

    Nuclear Repulsion Energy =              8.9443549301653391
    One-Electron Energy =                -122.6123236189318249
    Two-Electron Energy =                  37.6110118440950103
    Total Energy =                        -76.0569568446714754
 Dipole X            :        -24.9144460           25.3417886            0.4273426
 Dipole Y            :        -10.1874640           10.1210368           -0.0664273
 Dipole Z            :        -27.5252537           28.1365367            0.6112829
 Magnitude           :                                                    0.7487998
  Basis Set: (AUG-CC-PVTZ AUX)
    Blend: AUG-CC-PVTZ-RI + DEF2-QZVPP-RI
	 Reference Energy          =     -76.0569568446714754 [Eh]
	 Singles Energy            =      -0.0000000000000000 [Eh]
	 Same-Spin Energy          =      -0.0687915063627992 [Eh]
	 Opposite-Spin Energy      =      -0.2170499595682595 [Eh]
	 Correlation Energy        =      -0.2858414659310586 [Eh]
	 Total Energy              =     -76.3427983106025323 [Eh]

	 ================> DF-SCS-MP2 Energies <==================
	-----------------------------------------------------------
	 SCS Same-Spin Scale       =       0.3333333333333333 [-]
	 SCS Opposite-Spin Scale   =       1.2000000000000000 [-]
	 SCS Same-Spin Energy      =      -0.0229305021209331 [Eh]
	 SCS Opposite-Spin Energy  =      -0.2604599514819113 [Eh]
	 SCS Correlation Energy    =      -0.2833904536028444 [Eh]
	 SCS Total Energy          =     -76.3403472982743239 [Eh]
	-----------------------------------------------------------

*** Psi4 exiting successfully. Buy a developer a beer!
