                               Psi4 1.8.2 release

  ==> Input File <==

--------------------------------------------------------------------------
MEMORY 60 GB

molecule dimer {
0 1
Gh(Li)     0.000000     0.000000     0.000000
O         -1.513363     0.722143    -0.727441
H         -2.027594     0.178981    -1.343150
H         -1.819754     1.661892    -0.823652
Gh(O)     -0.252767    -2.026350    -0.783049
Gh(H)      0.479598    -2.628908    -0.595592
Gh(H)     -1.049144    -2.293358    -0.295986
Gh(O)      0.516511     0.763586     1.671608
Gh(H)      0.437421     1.575636     1.228955
Gh(H)     -0.235072     0.629634     2.234292
Gh(O)      1.457213     0.460443    -1.122910
Gh(H)      1.677956    -0.213540    -1.788812
Gh(H)      2.254305     0.527812    -0.514055

units ang
no_reorient
no_com
symmetry c1
}

set {
basis        aug-cc-pVTZ
scf_type     df
}

energy("mp2")
--------------------------------------------------------------------------

    Molecular point group: c1

    Geometry (in Angstrom), charge = 0, multiplicity = 1:

       Center              X                  Y                   Z               Mass
    ------------   -----------------  -----------------  -----------------  -----------------
      Gh(LI)          0.000000000000     0.000000000000     0.000000000000     7.016003436600
         O           -1.513363000000     0.722143000000    -0.727441000000    15.994914619570
         H           -2.027594000000     0.178981000000    -1.343150000000     1.007825032230
         H           -1.819754000000     1.661892000000    -0.823652000000     1.007825032230
      Gh(O)          -0.252767000000    -2.026350000000    -0.783049000000    15.994914619570
      Gh(H)           0.479598000000    -2.628908000000    -0.595592000000     1.007825032230
      Gh(H)          -1.049144000000    -2.293358000000    -0.295986000000     1.007825032230
      Gh(O)           0.516511000000     0.763586000000     1.671608000000    15.994914619570
      Gh(H)           0.437421000000     1.575636000000     1.228955000000     1.007825032230
      Gh(H)          -0.235072000000     0.629634000000     2.234292000000     1.007825032230
      Gh(O)           1.457213000000     0.460443000000    -1.122910000000    15.994914619570
      Gh(H)           1.677956000000    -0.213540000000    -1.788812000000     1.007825032230
      Gh(H)           2.254305000000     0.527812000000    -0.514055000000     1.007825032230

  Charge       = 0
  Multiplicity = 1
  Basis Set: AUG-CC-PVTZ
    Blend: AUG-CC-PVTZ
  Basis Set: (AUG-CC-PVTZ AUX)
    Blend: AUG-CC-PVTZ-JKFIT + DEF2-UNIVERSAL-JKFIT

    Orbital Energies [Eh]
    ---------------------

    Doubly Occupied:

       1A    -20.569524     2A     -1.339471     3A     -0.710837
       4A     -0.573977     5A     -0.507386

  @DF-RHF Final Energy:   -76.05769668023801

   => Energetics <=

    Nuclear Repulsion Energy =              8.9664725432005774
    One-Electron Energy =                -122.6459450871414134
    Two-Electron Energy =                  37.6217758637028226
    Total Energy =                        -76.0576966802380099
 Dipole X            :         29.6056983          -30.1491668           -0.5434686
 Dipole Y            :        -14.1370548           14.3959657            0.2589109
 Dipole Z            :         14.6197384          -15.0919764           -0.4722380
 Magnitude           :                                                    0.7651155
  Basis Set: (AUG-CC-PVTZ AUX)
    Blend: AUG-CC-PVTZ-RI + DEF2-QZVPP-RI
	 Reference Energy          =     -76.0576966802380099 [Eh]
	 Singles Energy            =      -0.0000000000000000 [Eh]
	 Same-Spin Energy          =      -0.0687892493903289 [Eh]
	 Opposite-Spin Energy      =      -0.2171115917923537 [Eh]
	 Correlation Energy        =      -0.2859008411826826 [Eh]
	 Total Energy              =     -76.3435975214206906 [Eh]

	 ================> DF-SCS-MP2 Energies <==================
	-----------------------------------------------------------
	 SCS Same-Spin Scale       =       0.3333333333333333 [-]
	 SCS Opposite-Spin Scale   =       1.2000000000000000 [-]
	 SCS Same-Spin Energy      =      -0.0229297497967763 [Eh]
	 SCS Opposite-Spin Energy  =      -0.2605339101508244 [Eh]
	 SCS Correlation Energy    =      -0.2834636599476007 [Eh]
	 SCS Total Energy          =     -76.3411603401856098 [Eh]
	-----------------------------------------------------------

*** Psi4 exiting successfully. Buy a developer a beer!
