                               Psi4 1.9 release

  ==> Input File <==

--------------------------------------------------------------------------
MEMORY 60 GB

molecule dimer {
1 1
Li     0.000000     0.000000     0.000000
--
0 1
O     -1.338879    -1.195158     0.469759
H     -2.206298    -0.841443     0.411118
H     -1.348766    -2.032418     0.013778
O     -0.934211     1.705753    -0.411991
H     -1.886530     1.902021    -0.625808
H     -0.587757     2.579575    -0.080228
O      1.030291     0.006627    -1.612348
H      1.063590    -0.834805    -1.968945
H      0.649284     0.567706    -2.305850
O      1.441199    -0.544489     1.384860
H      0.936835    -0.980818     2.110251
H      1.651553     0.325783     1.741433

units ang
no_reorient
no_com
symmetry c1
}

set {
basis        aug-cc-pVTZ
scf_type     df
}

energy("mp2", bsse_type="cp")
--------------------------------------------------------------------------

                               Psi4 1.9 release
    Molecular point group: c1
  Charge       = 0
  Multiplicity = 1
  Basis Set: AUG-CC-PVTZ
    Blend: AUG-CC-PVTZ
  Basis Set: (AUG-CC-PVTZ AUX)
    Blend: AUG-CC-PVTZ-JKFIT + DEF2-UNIVERSAL-JKFIT
  @DF-RHF Final Energy:  -304.21490502496823
    Total Energy =                       -304.2149050249682887
 Dipole X            :         -1.1264021           -0.2662416           -1.3926437
 Dipole Y            :         -0.4063452            0.8833808            0.4770357
 Dipole Z            :          3.6464875           -3.8966361           -0.2501486
 Magnitude           :                                                    1.4931825
  Basis Set: (AUG-CC-PVTZ AUX)
    Blend: AUG-CC-PVTZ-RI + DEF2-QZVPP-RI
	 Reference Energy          =    -304.2149050249682318 [Eh]
	 Singles Energy            =      -0.0000000000000000 [Eh]
	 Same-Spin Energy          =      -0.2774485344083571 [Eh]
	 Opposite-Spin Energy      =      -0.8697827344115698 [Eh]
	 Correlation Energy        =      -1.1472312688199269 [Eh]
	 Total Energy              =    -305.3621362937881827 [Eh]
	 SCS Total Energy          =    -305.3511271510649294 [Eh]
                               Psi4 1.9 release
    Molecular point group: c1
  Multiplicity = 1
  Basis Set: AUG-CC-PVTZ
    Blend: AUG-CC-PVTZ
  Basis Set: (AUG-CC-PVTZ AUX)
    Blend: AUG-CC-PVTZ-JKFIT + DEF2-UNIVERSAL-JKFIT
  @DF-RHF Final Energy:    -7.23638486997380
    Total Energy =                         -7.2363848699738025
  Basis Set: (AUG-CC-PVTZ AUX)
	 Singles Energy            =      -0.0000000000000000 [Eh]
	 Same-Spin Energy          =       0.0000000000000000 [Eh]
	 Opposite-Spin Energy      =      -0.0169550666276230 [Eh]
	 Correlation Energy        =      -0.0169550666276230 [Eh]
	 Total Energy              =      -7.2533399366014253 [Eh]
	 SCS Total Energy          =      -7.2567309499269497 [Eh]
                               Psi4 1.9 release
    Molecular point group: c1

    Geometry (in Bohr), charge = 1, multiplicity = 1:

       Center              X                  Y                   Z               Mass
    ------------   -----------------  -----------------  -----------------  -----------------
         LI           0.000000000000     0.000000000000     0.000000000000     7.016003436600
         O           -2.530114625127    -2.258521296650     0.887715854969    15.994914619570
         H           -4.169298971145    -1.590096820184     0.776900425246     1.007825032230
         H           -2.548798347329    -3.840713392451     0.026036646557     1.007825032230
         O           -1.765402933390     3.223406007678    -0.778550156153    15.994914619570
         H           -3.565025027460     3.594298774869    -1.182605727121     1.007825032230
         H           -1.110699758321     4.874690270078    -0.151608947593     1.007825032230
         O            1.946967819524     0.012523215033    -3.046896138930    15.994914619570
         H            2.009893809776    -1.577552818163    -3.720766806090     1.007825032230
         H            1.226968937642     1.072808859779    -4.357424986387     1.007825032230
         O            2.723471402284    -1.028935088324     2.617006122102    15.994914619570
         H            1.770361574743    -1.853477398919     3.987796445974     1.007825032230
         H            3.120982851678     0.615640646330     3.290831435834     1.007825032230

  Charge       = 1
  Multiplicity = 1
  Basis Set: AUG-CC-PVTZ
    Blend: AUG-CC-PVTZ
  Basis Set: (AUG-CC-PVTZ AUX)
    Blend: AUG-CC-PVTZ-JKFIT + DEF2-UNIVERSAL-JKFIT

    Orbital Energies [Eh]
    ---------------------

    Doubly Occupied:

       1A    -20.765999     2A    -20.760458     3A    -20.738547
       4A    -20.736997     5A     -2.535688     6A     -1.561802
       7A     -1.543243     8A     -1.532992     9A     -1.516563
      10A     -0.929396    11A     -0.906835    12A     -0.890528
      13A     -0.875596    14A     -0.805821    15A     -0.797688
      16A     -0.780542    17A     -0.752666    18A     -0.721219
      19A     -0.711027    20A     -0.694022    21A     -0.685551

  @DF-RHF Final Energy:  -311.61844755203816

   => Energetics <=

    Nuclear Repulsion Energy =            163.6965387334014110
    One-Electron Energy =                -748.1436098164824671
    Two-Electron Energy =                 272.8286235310428651
    Total Energy =                       -311.6184475520381625
 Dipole X            :         -1.2265864           -0.2662416           -1.4928280
 Dipole Y            :         -0.3840354            0.8833808            0.4993454
 Dipole Z            :          3.5787713           -3.8966361           -0.3178648
 Magnitude           :                                                    1.6059014
  Basis Set: (AUG-CC-PVTZ AUX)
    Blend: AUG-CC-PVTZ-RI + DEF2-QZVPP-RI
	 Reference Energy          =    -311.6184475520381625 [Eh]
	 Singles Energy            =      -0.0000000000000000 [Eh]
	 Same-Spin Energy          =      -0.2760002727731342 [Eh]
	 Opposite-Spin Energy      =      -0.8795984484733521 [Eh]
	 Correlation Energy        =      -1.1555987212464864 [Eh]
	 Total Energy              =    -312.7740462732846254 [Eh]

	 ================> DF-SCS-MP2 Energies <==================
	-----------------------------------------------------------
	 SCS Same-Spin Scale       =       0.3333333333333333 [-]
	 SCS Opposite-Spin Scale   =       1.2000000000000000 [-]
	 SCS Same-Spin Energy      =      -0.0920000909243781 [Eh]
	 SCS Opposite-Spin Energy  =      -1.0555181381680225 [Eh]
	 SCS Correlation Energy    =      -1.1475182290924006 [Eh]
	 SCS Total Energy          =    -312.7659657811305465 [Eh]
	-----------------------------------------------------------

*** Psi4 exiting successfully. Buy a developer a beer!
