                               Psi4 1.8.2 release

  ==> Input File <==

--------------------------------------------------------------------------
MEMORY 60 GB

molecule dimer {
1 1
Li         0.000000     0.000000     0.000000
Gh(O)      0.093466     1.102529     1.398467
Gh(H)     -0.286264     0.781074     2.237075
Gh(H)      1.062890     1.237794     1.569113
Gh(O)     -0.817145    -1.577921     0.295809
Gh(H)     -0.126605    -2.261842     0.420003
Gh(H)     -1.199869    -1.626482    -0.594808

units ang
no_reorient
no_com
symmetry c1
}

set {
basis        aug-cc-pVTZ
scf_type     df
}

energy("mp2")
--------------------------------------------------------------------------

    Molecular point group: c1

    Geometry (in Angstrom), charge = 1, multiplicity = 1:

       Center              X                  Y                   Z               Mass
    ------------   -----------------  -----------------  -----------------  -----------------
         LI           0.000000000000     0.000000000000     0.000000000000     7.016003436600
      Gh(O)           0.093466000000     1.102529000000     1.398467000000    15.994914619570
      Gh(H)          -0.286264000000     0.781074000000     2.237075000000     1.007825032230
      Gh(H)           1.062890000000     1.237794000000     1.569113000000     1.007825032230
      Gh(O)          -0.817145000000    -1.577921000000     0.295809000000    15.994914619570
      Gh(H)          -0.126605000000    -2.261842000000     0.420003000000     1.007825032230
      Gh(H)          -1.199869000000    -1.626482000000    -0.594808000000     1.007825032230

  Charge       = 1
  Multiplicity = 1
  Basis Set: AUG-CC-PVTZ
    Blend: AUG-CC-PVTZ
  Basis Set: (AUG-CC-PVTZ AUX)
    Blend: AUG-CC-PVTZ-JKFIT + DEF2-UNIVERSAL-JKFIT

    Orbital Energies [Eh]
    ---------------------

    Doubly Occupied:

       1A     -2.792361

  @DF-RHF Final Energy:    -7.23638416173198

   => Energetics <=

    Nuclear Repulsion Energy =              0.0000000000000000
    One-Electron Energy =                  -8.8880471413352922
    Two-Electron Energy =                   1.6516629796033095
    Total Energy =                         -7.2363841617319826
 Dipole X            :          0.0000054            0.0000000            0.0000054
 Dipole Y            :         -0.0000090            0.0000000           -0.0000090
 Dipole Z            :          0.0000091            0.0000000            0.0000091
 Magnitude           :                                                    0.0000139
  Basis Set: (AUG-CC-PVTZ AUX)
    Blend: AUG-CC-PVTZ-RI + DEF2-QZVPP-RI
	 Reference Energy          =      -7.2363841617319826 [Eh]
	 Singles Energy            =      -0.0000000000000000 [Eh]
	 Same-Spin Energy          =       0.0000000000000000 [Eh]
	 Opposite-Spin Energy      =      -0.0154377028317695 [Eh]
	 Correlation Energy        =      -0.0154377028317695 [Eh]
	 Total Energy              =      -7.2518218645637518 [Eh]

	 ================> DF-SCS-MP2 Energies <==================
	-----------------------------------------------------------
	 SCS Same-Spin Scale       =       0.3333333333333333 [-]
	 SCS Opposite-Spin Scale   =       1.2000000000000000 [-]
	 SCS Same-Spin Energy      =       0.0000000000000000 [Eh]
	 SCS Opposite-Spin Energy  =      -0.0185252433981234 [Eh]
	 SCS Correlation Energy    =      -0.0185252433981234 [Eh]
	 SCS Total Energy          =      -7.2549094051301060 [Eh]
	-----------------------------------------------------------

*** Psi4 exiting successfully. Buy a developer a beer!
