                               Psi4 1.9 release

  ==> Input File <==

--------------------------------------------------------------------------
MEMORY 60 GB

molecule dimer {
1 1
Li     0.000000     0.000000     0.000000
--
0 1
O      0.430496    -1.782940     0.114535
H     -0.122461    -2.196776     0.778018
H      0.095863    -2.257410    -0.608199
O     -0.871002     0.606188     1.579229
H     -1.261790     1.443134     1.764322
H     -0.325521     0.477508     2.360804
O     -1.263445     0.240469    -1.487618
H     -1.400715    -0.414623    -2.199240
H     -1.655584     1.079449    -1.825628
O      1.839475     0.772754    -0.481884
H      2.223970     0.990559     0.396906
H      1.766020     1.624400    -0.919013

units ang
no_reorient
no_com
symmetry c1
}

set {
basis        aug-cc-pVTZ
scf_type     df
}

energy("mp2", bsse_type="cp")
--------------------------------------------------------------------------

                               Psi4 1.9 release
    Molecular point group: c1
  Charge       = 0
  Multiplicity = 1
  Basis Set: AUG-CC-PVTZ
    Blend: AUG-CC-PVTZ
  Basis Set: (AUG-CC-PVTZ AUX)
    Blend: AUG-CC-PVTZ-JKFIT + DEF2-UNIVERSAL-JKFIT
  @DF-RHF Final Energy:  -304.21340951781605
    Total Energy =                       -304.2134095178160464
 Dipole X            :         -1.4035931            0.7634002           -0.6401929
 Dipole Y            :          1.7669005           -1.0620091            0.7048914
 Dipole Z            :          4.8189504           -4.6448221            0.1741283
 Magnitude           :                                                    0.9680080
  Basis Set: (AUG-CC-PVTZ AUX)
    Blend: AUG-CC-PVTZ-RI + DEF2-QZVPP-RI
	 Reference Energy          =    -304.2134095178160464 [Eh]
	 Singles Energy            =      -0.0000000000000000 [Eh]
	 Same-Spin Energy          =      -0.2773735677135717 [Eh]
	 Opposite-Spin Energy      =      -0.8698187315380400 [Eh]
	 Correlation Energy        =      -1.1471922992516117 [Eh]
	 Total Energy              =    -305.3606018170676748 [Eh]
	 SCS Total Energy          =    -305.3496498515661983 [Eh]
                               Psi4 1.9 release
    Molecular point group: c1
  Multiplicity = 1
  Basis Set: AUG-CC-PVTZ
    Blend: AUG-CC-PVTZ
  Basis Set: (AUG-CC-PVTZ AUX)
    Blend: AUG-CC-PVTZ-JKFIT + DEF2-UNIVERSAL-JKFIT
  @DF-RHF Final Energy:    -7.23638490693748
    Total Energy =                         -7.2363849069374826
  Basis Set: (AUG-CC-PVTZ AUX)
	 Singles Energy            =      -0.0000000000000000 [Eh]
	 Same-Spin Energy          =      -0.0000000000000000 [Eh]
	 Opposite-Spin Energy      =      -0.0172196185810223 [Eh]
	 Correlation Energy        =      -0.0172196185810223 [Eh]
	 Total Energy              =      -7.2536045255185035 [Eh]
	 SCS Total Energy          =      -7.2570484492347083 [Eh]
                               Psi4 1.9 release
    Molecular point group: c1

    Geometry (in Bohr), charge = 1, multiplicity = 1:

       Center              X                  Y                   Z               Mass
    ------------   -----------------  -----------------  -----------------  -----------------
         LI           0.000000000000     0.000000000000     0.000000000000     7.016003436600
         O            0.813519538105    -3.369268298124     0.216439781779    15.994914619570
         H           -0.231417751050    -4.151304998979     1.470240940676     1.007825032230
         H            0.181154815565    -4.265886652870    -1.149329539777     1.007825032230
         O           -1.645955234726     1.145529300539     2.984310299381    15.994914619570
         H           -2.384437527841     2.727128022336     3.334085377120     1.007825032230
         H           -0.615145538085     0.902359342715     4.461272995885     1.007825032230
         O           -2.387565024579     0.454420551663    -2.811190599301    15.994914619570
         H           -2.646967729821    -0.783523915316    -4.155961284152     1.007825032230
         H           -3.128600337690     2.039862976399    -3.449936926967     1.007825032230
         O            3.476103964627     1.460293422352    -0.910628784240    15.994914619570
         H            4.202694211234     1.871885221107     0.750043637551     1.007825032230
         H            3.337294132081     3.069671118194    -1.736682875735     1.007825032230

  Charge       = 1
  Multiplicity = 1
  Basis Set: AUG-CC-PVTZ
    Blend: AUG-CC-PVTZ
  Basis Set: (AUG-CC-PVTZ AUX)
    Blend: AUG-CC-PVTZ-JKFIT + DEF2-UNIVERSAL-JKFIT

    Orbital Energies [Eh]
    ---------------------

    Doubly Occupied:

       1A    -20.760233     2A    -20.753669     3A    -20.749363
       4A    -20.741546     5A     -2.530171     6A     -1.558905
       7A     -1.557069     8A     -1.529455     9A     -1.522576
      10A     -0.911815    11A     -0.897762    12A     -0.890142
      13A     -0.881783    14A     -0.811864    15A     -0.807496
      16A     -0.784842    17A     -0.761061    18A     -0.718157
      19A     -0.710472    20A     -0.699315    21A     -0.687694

  @DF-RHF Final Energy:  -311.62002696896786

   => Energetics <=

    Nuclear Repulsion Energy =            163.8574100644963778
    One-Electron Energy =                -748.4240903730659511
    Two-Electron Energy =                 272.9466533396017667
    Total Energy =                       -311.6200269689678635
 Dipole X            :         -1.4498171            0.7634002           -0.6864169
 Dipole Y            :          1.7653959           -1.0620091            0.7033868
 Dipole Z            :          4.7986015           -4.6448221            0.1537794
 Magnitude           :                                                    0.9947709
  Basis Set: (AUG-CC-PVTZ AUX)
    Blend: AUG-CC-PVTZ-RI + DEF2-QZVPP-RI
	 Reference Energy          =    -311.6200269689678635 [Eh]
	 Singles Energy            =      -0.0000000000000000 [Eh]
	 Same-Spin Energy          =      -0.2757917028135817 [Eh]
	 Opposite-Spin Energy      =      -0.8794626230413715 [Eh]
	 Correlation Energy        =      -1.1552543258549532 [Eh]
	 Total Energy              =    -312.7752812948228325 [Eh]

	 ================> DF-SCS-MP2 Energies <==================
	-----------------------------------------------------------
	 SCS Same-Spin Scale       =       0.3333333333333333 [-]
	 SCS Opposite-Spin Scale   =       1.2000000000000000 [-]
	 SCS Same-Spin Energy      =      -0.0919305676045272 [Eh]
	 SCS Opposite-Spin Energy  =      -1.0553551476496457 [Eh]
	 SCS Correlation Energy    =      -1.1472857152541729 [Eh]
	 SCS Total Energy          =    -312.7673126842220199 [Eh]
	-----------------------------------------------------------

*** Psi4 exiting successfully. Buy a developer a beer!
