                               Psi4 1.8.2 release

  ==> Input File <==

--------------------------------------------------------------------------
MEMORY 60 GB

molecule dimer {
0 1
Gh(Li)     0.000000     0.000000     0.000000
O          0.834436    -0.241329    -1.578276
H          1.191917    -1.111872    -1.723723
H          1.469698     0.437227    -1.857302
Gh(O)     -1.157150    -1.678256     0.354050
Gh(H)     -2.090219    -1.865260     0.521759
Gh(H)     -0.712408    -2.505514     0.115149
Gh(O)     -1.517712     1.412924    -0.255778
Gh(H)     -1.084382     2.261262    -0.283873
Gh(H)     -1.989995     1.420311     0.576573
Gh(O)      0.904310     1.187102     1.315687
Gh(H)      1.168203     0.886967     2.209891
Gh(H)      0.442074     1.996661     1.434603

units ang
no_reorient
no_com
symmetry c1
}

set {
basis        aug-cc-pVTZ
scf_type     df
}

energy("mp2")
--------------------------------------------------------------------------

    Molecular point group: c1

    Geometry (in Angstrom), charge = 0, multiplicity = 1:

       Center              X                  Y                   Z               Mass
    ------------   -----------------  -----------------  -----------------  -----------------
      Gh(LI)          0.000000000000     0.000000000000     0.000000000000     7.016003436600
         O            0.834436000000    -0.241329000000    -1.578276000000    15.994914619570
         H            1.191917000000    -1.111872000000    -1.723723000000     1.007825032230
         H            1.469698000000     0.437227000000    -1.857302000000     1.007825032230
      Gh(O)          -1.157150000000    -1.678256000000     0.354050000000    15.994914619570
      Gh(H)          -2.090219000000    -1.865260000000     0.521759000000     1.007825032230
      Gh(H)          -0.712408000000    -2.505514000000     0.115149000000     1.007825032230
      Gh(O)          -1.517712000000     1.412924000000    -0.255778000000    15.994914619570
      Gh(H)          -1.084382000000     2.261262000000    -0.283873000000     1.007825032230
      Gh(H)          -1.989995000000     1.420311000000     0.576573000000     1.007825032230
      Gh(O)           0.904310000000     1.187102000000     1.315687000000    15.994914619570
      Gh(H)           1.168203000000     0.886967000000     2.209891000000     1.007825032230
      Gh(H)           0.442074000000     1.996661000000     1.434603000000     1.007825032230

  Charge       = 0
  Multiplicity = 1
  Basis Set: AUG-CC-PVTZ
    Blend: AUG-CC-PVTZ
  Basis Set: (AUG-CC-PVTZ AUX)
    Blend: AUG-CC-PVTZ-JKFIT + DEF2-UNIVERSAL-JKFIT

    Orbital Energies [Eh]
    ---------------------

    Doubly Occupied:

       1A    -20.564945     2A     -1.347287     3A     -0.726470
       4A     -0.572506     5A     -0.508182

  @DF-RHF Final Energy:   -76.05970383492824

   => Energetics <=

    Nuclear Repulsion Energy =              9.1428474791968171
    One-Electron Energy =                -122.9663191604661563
    Two-Electron Energy =                  37.7637678463410964
    Total Energy =                        -76.0597038349282428
 Dipole X            :        -16.9742905           17.6445675            0.6702770
 Dipole Y            :          4.7910201           -4.9232600           -0.1322399
 Dipole Z            :         30.3404255          -30.6272316           -0.2868061
 Magnitude           :                                                    0.7409564
  Basis Set: (AUG-CC-PVTZ AUX)
    Blend: AUG-CC-PVTZ-RI + DEF2-QZVPP-RI
	 Reference Energy          =     -76.0597038349282428 [Eh]
	 Singles Energy            =      -0.0000000000000000 [Eh]
	 Same-Spin Energy          =      -0.0684307490655455 [Eh]
	 Opposite-Spin Energy      =      -0.2159329642437021 [Eh]
	 Correlation Energy        =      -0.2843637133092475 [Eh]
	 Total Energy              =     -76.3440675482374900 [Eh]

	 ================> DF-SCS-MP2 Energies <==================
	-----------------------------------------------------------
	 SCS Same-Spin Scale       =       0.3333333333333333 [-]
	 SCS Opposite-Spin Scale   =       1.2000000000000000 [-]
	 SCS Same-Spin Energy      =      -0.0228102496885152 [Eh]
	 SCS Opposite-Spin Energy  =      -0.2591195570924424 [Eh]
	 SCS Correlation Energy    =      -0.2819298067809576 [Eh]
	 SCS Total Energy          =     -76.3416336417091941 [Eh]
	-----------------------------------------------------------

*** Psi4 exiting successfully. Buy a developer a beer!
