                               Psi4 1.8.2 release

  ==> Input File <==

--------------------------------------------------------------------------
MEMORY 60 GB

molecule dimer {
0 1
Gh(Li)     0.000000     0.000000     0.000000
O         -1.720601    -0.454939     0.668843
H         -2.367035    -0.441477     1.379955
H         -2.112942    -1.235939     0.197061
Gh(O)      0.258055     1.761577     0.977628
Gh(H)     -0.298766     2.544675     1.027660
Gh(H)      0.877315     1.972477     1.753294
Gh(O)      0.341148     0.486488    -2.065997
Gh(H)      1.299138     0.518447    -2.285794
Gh(H)      0.121500     1.408985    -2.167791
Gh(O)      1.225061    -1.617859     0.341381
Gh(H)      0.889538    -2.345444     0.815641
Gh(H)      1.490168    -2.059704    -0.492452

units ang
no_reorient
no_com
symmetry c1
}

set {
basis        aug-cc-pVTZ
scf_type     df
}

energy("mp2")
--------------------------------------------------------------------------

    Molecular point group: c1

    Geometry (in Angstrom), charge = 0, multiplicity = 1:

       Center              X                  Y                   Z               Mass
    ------------   -----------------  -----------------  -----------------  -----------------
      Gh(LI)          0.000000000000     0.000000000000     0.000000000000     7.016003436600
         O           -1.720601000000    -0.454939000000     0.668843000000    15.994914619570
         H           -2.367035000000    -0.441477000000     1.379955000000     1.007825032230
         H           -2.112942000000    -1.235939000000     0.197061000000     1.007825032230
      Gh(O)           0.258055000000     1.761577000000     0.977628000000    15.994914619570
      Gh(H)          -0.298766000000     2.544675000000     1.027660000000     1.007825032230
      Gh(H)           0.877315000000     1.972477000000     1.753294000000     1.007825032230
      Gh(O)           0.341148000000     0.486488000000    -2.065997000000    15.994914619570
      Gh(H)           1.299138000000     0.518447000000    -2.285794000000     1.007825032230
      Gh(H)           0.121500000000     1.408985000000    -2.167791000000     1.007825032230
      Gh(O)           1.225061000000    -1.617859000000     0.341381000000    15.994914619570
      Gh(H)           0.889538000000    -2.345444000000     0.815641000000     1.007825032230
      Gh(H)           1.490168000000    -2.059704000000    -0.492452000000     1.007825032230

  Charge       = 0
  Multiplicity = 1
  Basis Set: AUG-CC-PVTZ
    Blend: AUG-CC-PVTZ
  Basis Set: (AUG-CC-PVTZ AUX)
    Blend: AUG-CC-PVTZ-JKFIT + DEF2-UNIVERSAL-JKFIT

    Orbital Energies [Eh]
    ---------------------

    Doubly Occupied:

       1A    -20.574181     2A     -1.350129     3A     -0.689338
       4A     -0.598460     5A     -0.511331

  @DF-RHF Final Energy:   -76.05580031538696

   => Energetics <=

    Nuclear Repulsion Energy =              9.0326569722216377
    One-Electron Energy =                -122.7300337218738377
    Two-Electron Energy =                  37.6415764342652395
    Total Energy =                        -76.0558003153869606
 Dipole X            :         33.8104248          -34.4776469           -0.6672221
 Dipole Y            :          9.5592871          -10.0475377           -0.4882506
 Dipole Z            :        -12.9324273           13.0915691            0.1591418
 Magnitude           :                                                    0.8419621
  Basis Set: (AUG-CC-PVTZ AUX)
    Blend: AUG-CC-PVTZ-RI + DEF2-QZVPP-RI
	 Reference Energy          =     -76.0558003153869606 [Eh]
	 Singles Energy            =      -0.0000000000000000 [Eh]
	 Same-Spin Energy          =      -0.0690408456665284 [Eh]
	 Opposite-Spin Energy      =      -0.2176072234123281 [Eh]
	 Correlation Energy        =      -0.2866480690788565 [Eh]
	 Total Energy              =     -76.3424483844658113 [Eh]

	 ================> DF-SCS-MP2 Energies <==================
	-----------------------------------------------------------
	 SCS Same-Spin Scale       =       0.3333333333333333 [-]
	 SCS Opposite-Spin Scale   =       1.2000000000000000 [-]
	 SCS Same-Spin Energy      =      -0.0230136152221761 [Eh]
	 SCS Opposite-Spin Energy  =      -0.2611286680947937 [Eh]
	 SCS Correlation Energy    =      -0.2841422833169699 [Eh]
	 SCS Total Energy          =     -76.3399425987039280 [Eh]
	-----------------------------------------------------------

*** Psi4 exiting successfully. Buy a developer a beer!
