                               Psi4 1.8.2 release

  ==> Input File <==

--------------------------------------------------------------------------
MEMORY 60 GB

molecule dimer {
0 1
Gh(Li)     0.000000     0.000000     0.000000
O          0.699917    -1.605590    -0.538374
H          0.331929    -2.479437    -0.070724
H          1.595037    -1.827290    -0.867616
Gh(O)     -0.415776     0.409880     1.974965
Gh(H)     -0.632469    -0.216349     2.683802
Gh(H)     -1.094302     1.112373     2.095595
Gh(O)      1.114874     1.438486    -0.655299
Gh(H)      2.041900     1.265101    -0.736658
Gh(H)      0.981857     2.289101    -0.189952
Gh(O)     -1.728885     0.283644    -1.130470
Gh(H)     -1.722627    -0.186960    -2.021005
Gh(H)     -2.497560    -0.024047    -0.644402

units ang
no_reorient
no_com
symmetry c1
}

set {
basis        aug-cc-pVTZ
scf_type     df
}

energy("mp2")
--------------------------------------------------------------------------

    Molecular point group: c1

    Geometry (in Angstrom), charge = 0, multiplicity = 1:

       Center              X                  Y                   Z               Mass
    ------------   -----------------  -----------------  -----------------  -----------------
      Gh(LI)          0.000000000000     0.000000000000     0.000000000000     7.016003436600
         O            0.699917000000    -1.605590000000    -0.538374000000    15.994914619570
         H            0.331929000000    -2.479437000000    -0.070724000000     1.007825032230
         H            1.595037000000    -1.827290000000    -0.867616000000     1.007825032230
      Gh(O)          -0.415776000000     0.409880000000     1.974965000000    15.994914619570
      Gh(H)          -0.632469000000    -0.216349000000     2.683802000000     1.007825032230
      Gh(H)          -1.094302000000     1.112373000000     2.095595000000     1.007825032230
      Gh(O)           1.114874000000     1.438486000000    -0.655299000000    15.994914619570
      Gh(H)           2.041900000000     1.265101000000    -0.736658000000     1.007825032230
      Gh(H)           0.981857000000     2.289101000000    -0.189952000000     1.007825032230
      Gh(O)          -1.728885000000     0.283644000000    -1.130470000000    15.994914619570
      Gh(H)          -1.722627000000    -0.186960000000    -2.021005000000     1.007825032230
      Gh(H)          -2.497560000000    -0.024047000000    -0.644402000000     1.007825032230

  Charge       = 0
  Multiplicity = 1
  Basis Set: AUG-CC-PVTZ
    Blend: AUG-CC-PVTZ
  Basis Set: (AUG-CC-PVTZ AUX)
    Blend: AUG-CC-PVTZ-JKFIT + DEF2-UNIVERSAL-JKFIT

    Orbital Energies [Eh]
    ---------------------

    Doubly Occupied:

       1A    -20.576070     2A     -1.324410     3A     -0.689215
       4A     -0.569264     5A     -0.505249

  @DF-RHF Final Energy:   -76.04817778870361

   => Energetics <=

    Nuclear Repulsion Energy =              8.6524355839216973
    One-Electron Energy =                -122.0728046965714100
    Two-Electron Energy =                  37.3721913239460974
    Total Energy =                        -76.0481777887036117
 Dipole X            :        -13.8733831           14.2226495            0.3492665
 Dipole Y            :         31.7112516          -32.4115375           -0.7002859
 Dipole Z            :          9.9950062           -9.9122409            0.0827653
 Magnitude           :                                                    0.7869164
  Basis Set: (AUG-CC-PVTZ AUX)
    Blend: AUG-CC-PVTZ-RI + DEF2-QZVPP-RI
	 Reference Energy          =     -76.0481777887036117 [Eh]
	 Singles Energy            =      -0.0000000000000000 [Eh]
	 Same-Spin Energy          =      -0.0694341804469755 [Eh]
	 Opposite-Spin Energy      =      -0.2192961748945812 [Eh]
	 Correlation Energy        =      -0.2887303553415567 [Eh]
	 Total Energy              =     -76.3369081440451680 [Eh]

	 ================> DF-SCS-MP2 Energies <==================
	-----------------------------------------------------------
	 SCS Same-Spin Scale       =       0.3333333333333333 [-]
	 SCS Opposite-Spin Scale   =       1.2000000000000000 [-]
	 SCS Same-Spin Energy      =      -0.0231447268156585 [Eh]
	 SCS Opposite-Spin Energy  =      -0.2631554098734974 [Eh]
	 SCS Correlation Energy    =      -0.2863001366891559 [Eh]
	 SCS Total Energy          =     -76.3344779253927612 [Eh]
	-----------------------------------------------------------

*** Psi4 exiting successfully. Buy a developer a beer!
