                               Psi4 1.8.2 release

  ==> Input File <==

--------------------------------------------------------------------------
MEMORY 60 GB

molecule dimer {
0 1
Gh(Li)     0.000000     0.000000     0.000000
Gh(O)      1.466760     0.450408    -1.235185
Gh(H)      2.148328     1.001972    -0.849832
Gh(H)      1.104955     0.850723    -2.035762
Gh(O)     -0.000372    -1.923700     0.069063
Gh(H)     -0.093103    -2.125757    -0.874898
Gh(H)     -0.820918    -2.233311     0.458196
Gh(O)     -2.075430     0.042768    -0.218320
Gh(H)     -2.709974    -0.583971    -0.554856
Gh(H)     -2.436149     0.294869     0.600464
O          0.553120     0.728764     1.842899
H          1.471289     1.060141     1.753587
H          0.252809     1.353718     2.508178

units ang
no_reorient
no_com
symmetry c1
}

set {
basis        aug-cc-pVTZ
scf_type     df
}

energy("mp2")
--------------------------------------------------------------------------

    Molecular point group: c1

    Geometry (in Angstrom), charge = 0, multiplicity = 1:

       Center              X                  Y                   Z               Mass
    ------------   -----------------  -----------------  -----------------  -----------------
      Gh(LI)          0.000000000000     0.000000000000     0.000000000000     7.016003436600
      Gh(O)           1.466760000000     0.450408000000    -1.235185000000    15.994914619570
      Gh(H)           2.148328000000     1.001972000000    -0.849832000000     1.007825032230
      Gh(H)           1.104955000000     0.850723000000    -2.035762000000     1.007825032230
      Gh(O)          -0.000372000000    -1.923700000000     0.069063000000    15.994914619570
      Gh(H)          -0.093103000000    -2.125757000000    -0.874898000000     1.007825032230
      Gh(H)          -0.820918000000    -2.233311000000     0.458196000000     1.007825032230
      Gh(O)          -2.075430000000     0.042768000000    -0.218320000000    15.994914619570
      Gh(H)          -2.709974000000    -0.583971000000    -0.554856000000     1.007825032230
      Gh(H)          -2.436149000000     0.294869000000     0.600464000000     1.007825032230
         O            0.553120000000     0.728764000000     1.842899000000    15.994914619570
         H            1.471289000000     1.060141000000     1.753587000000     1.007825032230
         H            0.252809000000     1.353718000000     2.508178000000     1.007825032230

  Charge       = 0
  Multiplicity = 1
  Basis Set: AUG-CC-PVTZ
    Blend: AUG-CC-PVTZ
  Basis Set: (AUG-CC-PVTZ AUX)
    Blend: AUG-CC-PVTZ-JKFIT + DEF2-UNIVERSAL-JKFIT

    Orbital Energies [Eh]
    ---------------------

    Doubly Occupied:

       1A    -20.572139     2A     -1.351632     3A     -0.697254
       4A     -0.595400     5A     -0.511181

  @DF-RHF Final Energy:   -76.05787015172419

   => Energetics <=

    Nuclear Repulsion Energy =              9.0862080663915705
    One-Electron Energy =                -122.8329423255942743
    Two-Electron Energy =                  37.6888641074785085
    Total Energy =                        -76.0578701517241882
 Dipole X            :        -11.2233579           11.6200355            0.3966777
 Dipole Y            :        -14.9590563           15.5788474            0.6197910
 Dipole Z            :        -35.5390971           35.9141638            0.3750667
 Magnitude           :                                                    0.8259353
  Basis Set: (AUG-CC-PVTZ AUX)
    Blend: AUG-CC-PVTZ-RI + DEF2-QZVPP-RI
	 Reference Energy          =     -76.0578701517241882 [Eh]
	 Singles Energy            =      -0.0000000000000000 [Eh]
	 Same-Spin Energy          =      -0.0688349511228118 [Eh]
	 Opposite-Spin Energy      =      -0.2170562456599670 [Eh]
	 Correlation Energy        =      -0.2858911967827788 [Eh]
	 Total Energy              =     -76.3437613485069733 [Eh]

	 ================> DF-SCS-MP2 Energies <==================
	-----------------------------------------------------------
	 SCS Same-Spin Scale       =       0.3333333333333333 [-]
	 SCS Opposite-Spin Scale   =       1.2000000000000000 [-]
	 SCS Same-Spin Energy      =      -0.0229449837076039 [Eh]
	 SCS Opposite-Spin Energy  =      -0.2604674947919604 [Eh]
	 SCS Correlation Energy    =      -0.2834124784995643 [Eh]
	 SCS Total Energy          =     -76.3412826302237590 [Eh]
	-----------------------------------------------------------

*** Psi4 exiting successfully. Buy a developer a beer!
