                               Psi4 1.9 release

  ==> Input File <==

--------------------------------------------------------------------------
MEMORY 60 GB

molecule dimer {
1 1
Li     0.000000     0.000000     0.000000
--
0 1
O      1.401258    -0.552767    -1.148847
H      2.222717    -0.099344    -1.190559
H      1.562451    -1.490832    -1.304563
O     -0.330704     1.780111     0.510752
H     -0.929458     1.795993     1.257868
H     -0.397182     2.647959     0.120718
O      0.494746    -0.773349     1.790483
H      1.287530    -0.312464     2.047423
H     -0.132202    -0.417194     2.419929
O     -1.664275    -0.879300    -0.710838
H     -2.365985    -1.429029    -0.223341
H     -2.197362    -0.354210    -1.323729

units ang
no_reorient
no_com
symmetry c1
}

set {
basis        aug-cc-pVTZ
scf_type     df
}

energy("mp2", bsse_type="cp")
--------------------------------------------------------------------------

                               Psi4 1.9 release
    Molecular point group: c1
  Charge       = 0
  Multiplicity = 1
  Basis Set: AUG-CC-PVTZ
    Blend: AUG-CC-PVTZ
  Basis Set: (AUG-CC-PVTZ AUX)
    Blend: AUG-CC-PVTZ-JKFIT + DEF2-UNIVERSAL-JKFIT
  @DF-RHF Final Energy:  -304.21582896676017
    Total Energy =                       -304.2158289667601707
 Dipole X            :          2.8489251           -3.2905631           -0.4416380
 Dipole Y            :          6.5639785           -5.7855118            0.7784667
 Dipole Z            :         -9.5693403           10.0838545            0.5145142
 Magnitude           :                                                    1.0323659
  Basis Set: (AUG-CC-PVTZ AUX)
    Blend: AUG-CC-PVTZ-RI + DEF2-QZVPP-RI
	 Reference Energy          =    -304.2158289667601707 [Eh]
	 Singles Energy            =      -0.0000000000000000 [Eh]
	 Same-Spin Energy          =      -0.2772450601775621 [Eh]
	 Opposite-Spin Energy      =      -0.8695239207396354 [Eh]
	 Correlation Energy        =      -1.1467689809171975 [Eh]
	 Total Energy              =    -305.3625979476773864 [Eh]
	 SCS Total Energy          =    -305.3516726917069377 [Eh]
                               Psi4 1.9 release
    Molecular point group: c1
  Multiplicity = 1
  Basis Set: AUG-CC-PVTZ
    Blend: AUG-CC-PVTZ
  Basis Set: (AUG-CC-PVTZ AUX)
    Blend: AUG-CC-PVTZ-JKFIT + DEF2-UNIVERSAL-JKFIT
  @DF-RHF Final Energy:    -7.23638487068115
    Total Energy =                         -7.2363848706811549
  Basis Set: (AUG-CC-PVTZ AUX)
	 Singles Energy            =      -0.0000000000000000 [Eh]
	 Same-Spin Energy          =       0.0000000000000000 [Eh]
	 Opposite-Spin Energy      =      -0.0171172768793180 [Eh]
	 Correlation Energy        =      -0.0171172768793180 [Eh]
	 Total Energy              =      -7.2535021475604733 [Eh]
	 SCS Total Energy          =      -7.2569256029363363 [Eh]
                               Psi4 1.9 release
    Molecular point group: c1

    Geometry (in Bohr), charge = 1, multiplicity = 1:

       Center              X                  Y                   Z               Mass
    ------------   -----------------  -----------------  -----------------  -----------------
         LI           0.000000000000     0.000000000000     0.000000000000     7.016003436600
         O            2.647993851107    -1.044578241191    -2.171006190054    15.994914619570
         H            4.200326384399    -0.187732952207    -2.249830446199     1.007825032230
         H            2.952604474448    -2.817264179069    -2.465266783406     1.007825032230
         O           -0.624939988593     3.363922262915     0.965181398030    15.994914619570
         H           -1.756421065116     3.393934893239     2.377026021977     1.007825032230
         H           -0.750565201962     5.003917301441     0.228123958413     1.007825032230
         O            0.934934441666    -1.461417809397     3.383522502288    15.994914619570
         H            2.433079078311    -0.590471384065     3.869068732963     1.007825032230
         H           -0.249825573238    -0.788382401184     4.573003053053     1.007825032230
         O           -3.145023947446    -1.661636182115    -1.343289139568    15.994914619570
         H           -4.471063666941    -2.700473435337    -0.422053322586     1.007825032230
         H           -4.152412378488    -0.669359890898    -2.501485274326     1.007825032230

  Charge       = 1
  Multiplicity = 1
  Basis Set: AUG-CC-PVTZ
    Blend: AUG-CC-PVTZ
  Basis Set: (AUG-CC-PVTZ AUX)
    Blend: AUG-CC-PVTZ-JKFIT + DEF2-UNIVERSAL-JKFIT

    Orbital Energies [Eh]
    ---------------------

    Doubly Occupied:

       1A    -20.761091     2A    -20.746563     3A    -20.746393
       4A    -20.739695     5A     -2.529907     6A     -1.555597
       7A     -1.541077     8A     -1.534988     9A     -1.516379
      10A     -0.919893    11A     -0.906401    12A     -0.892105
      13A     -0.871214    14A     -0.807462    15A     -0.790037
      16A     -0.778370    17A     -0.769841    18A     -0.718165
      19A     -0.702448    20A     -0.691005    21A     -0.686170

  @DF-RHF Final Energy:  -311.62623599452934

   => Energetics <=

    Nuclear Repulsion Energy =            163.2239399019003088
    One-Electron Energy =                -747.2907459691419945
    Two-Electron Energy =                 272.4405700727123758
    Total Energy =                       -311.6262359945293383
 Dipole X            :          2.7989421           -3.2905631           -0.4916210
 Dipole Y            :          6.5599010           -5.7855118            0.7743891
 Dipole Z            :         -9.4630920           10.0838545            0.6207625
 Magnitude           :                                                    1.1075721
  Basis Set: (AUG-CC-PVTZ AUX)
    Blend: AUG-CC-PVTZ-RI + DEF2-QZVPP-RI
	 Reference Energy          =    -311.6262359945293383 [Eh]
	 Singles Energy            =      -0.0000000000000000 [Eh]
	 Same-Spin Energy          =      -0.2755326474638739 [Eh]
	 Opposite-Spin Energy      =      -0.8788202165987556 [Eh]
	 Correlation Energy        =      -1.1543528640626295 [Eh]
	 Total Energy              =    -312.7805888585919547 [Eh]

	 ================> DF-SCS-MP2 Energies <==================
	-----------------------------------------------------------
	 SCS Same-Spin Scale       =       0.3333333333333333 [-]
	 SCS Opposite-Spin Scale   =       1.2000000000000000 [-]
	 SCS Same-Spin Energy      =      -0.0918442158212913 [Eh]
	 SCS Opposite-Spin Energy  =      -1.0545842599185067 [Eh]
	 SCS Correlation Energy    =      -1.1464284757397980 [Eh]
	 SCS Total Energy          =    -312.7726644702691488 [Eh]
	-----------------------------------------------------------

*** Psi4 exiting successfully. Buy a developer a beer!
