                               Psi4 1.8.2 release

  ==> Input File <==

--------------------------------------------------------------------------
MEMORY 60 GB

molecule dimer {
0 1
Gh(Li)     0.000000     0.000000     0.000000
Gh(O)      0.430496    -1.782940     0.114535
Gh(H)     -0.122461    -2.196776     0.778018
Gh(H)      0.095863    -2.257410    -0.608199
Gh(O)     -0.871002     0.606188     1.579229
Gh(H)     -1.261790     1.443134     1.764322
Gh(H)     -0.325521     0.477508     2.360804
O         -1.263445     0.240469    -1.487618
H         -1.400715    -0.414623    -2.199240
H         -1.655584     1.079449    -1.825628
Gh(O)      1.839475     0.772754    -0.481884
Gh(H)      2.223970     0.990559     0.396906
Gh(H)      1.766020     1.624400    -0.919013

units ang
no_reorient
no_com
symmetry c1
}

set {
basis        aug-cc-pVTZ
scf_type     df
}

energy("mp2")
--------------------------------------------------------------------------

    Molecular point group: c1

    Geometry (in Angstrom), charge = 0, multiplicity = 1:

       Center              X                  Y                   Z               Mass
    ------------   -----------------  -----------------  -----------------  -----------------
      Gh(LI)          0.000000000000     0.000000000000     0.000000000000     7.016003436600
      Gh(O)           0.430496000000    -1.782940000000     0.114535000000    15.994914619570
      Gh(H)          -0.122461000000    -2.196776000000     0.778018000000     1.007825032230
      Gh(H)           0.095863000000    -2.257410000000    -0.608199000000     1.007825032230
      Gh(O)          -0.871002000000     0.606188000000     1.579229000000    15.994914619570
      Gh(H)          -1.261790000000     1.443134000000     1.764322000000     1.007825032230
      Gh(H)          -0.325521000000     0.477508000000     2.360804000000     1.007825032230
         O           -1.263445000000     0.240469000000    -1.487618000000    15.994914619570
         H           -1.400715000000    -0.414623000000    -2.199240000000     1.007825032230
         H           -1.655584000000     1.079449000000    -1.825628000000     1.007825032230
      Gh(O)           1.839475000000     0.772754000000    -0.481884000000    15.994914619570
      Gh(H)           2.223970000000     0.990559000000     0.396906000000     1.007825032230
      Gh(H)           1.766020000000     1.624400000000    -0.919013000000     1.007825032230

  Charge       = 0
  Multiplicity = 1
  Basis Set: AUG-CC-PVTZ
    Blend: AUG-CC-PVTZ
  Basis Set: (AUG-CC-PVTZ AUX)
    Blend: AUG-CC-PVTZ-JKFIT + DEF2-UNIVERSAL-JKFIT

    Orbital Energies [Eh]
    ---------------------

    Doubly Occupied:

       1A    -20.570749     2A     -1.340751     3A     -0.706234
       4A     -0.578543     5A     -0.508095

  @DF-RHF Final Energy:   -76.05805021821310

   => Energetics <=

    Nuclear Repulsion Energy =              8.9665336949629282
    One-Electron Energy =                -122.6404206314643233
    Two-Electron Energy =                  37.6158367182882856
    Total Energy =                        -76.0580502182131113
 Dipole X            :         24.5286407          -24.8760883           -0.3474476
 Dipole Y            :         -4.7724063            4.8917035            0.1192972
 Dipole Z            :         29.4059722          -30.0954230           -0.6894508
 Magnitude           :                                                    0.7812132
  Basis Set: (AUG-CC-PVTZ AUX)
    Blend: AUG-CC-PVTZ-RI + DEF2-QZVPP-RI
	 Reference Energy          =     -76.0580502182130971 [Eh]
	 Singles Energy            =      -0.0000000000000000 [Eh]
	 Same-Spin Energy          =      -0.0688301382141309 [Eh]
	 Opposite-Spin Energy      =      -0.2172007507894926 [Eh]
	 Correlation Energy        =      -0.2860308890036234 [Eh]
	 Total Energy              =     -76.3440811072167236 [Eh]

	 ================> DF-SCS-MP2 Energies <==================
	-----------------------------------------------------------
	 SCS Same-Spin Scale       =       0.3333333333333333 [-]
	 SCS Opposite-Spin Scale   =       1.2000000000000000 [-]
	 SCS Same-Spin Energy      =      -0.0229433794047103 [Eh]
	 SCS Opposite-Spin Energy  =      -0.2606409009473911 [Eh]
	 SCS Correlation Energy    =      -0.2835842803521014 [Eh]
	 SCS Total Energy          =     -76.3416344985651989 [Eh]
	-----------------------------------------------------------

*** Psi4 exiting successfully. Buy a developer a beer!
