                               Psi4 1.8.2 release

  ==> Input File <==

--------------------------------------------------------------------------
MEMORY 60 GB

molecule dimer {
1 1
Li         0.000000     0.000000     0.000000
Gh(O)      0.778758    -0.677263     1.669262
Gh(H)      0.156902    -1.291452     2.063438
Gh(H)      1.726307    -1.001041     1.653786
Gh(O)     -0.201146     1.717887    -0.567701
Gh(H)     -0.877478     2.173081    -0.028194
Gh(H)     -0.676930     1.554022    -1.382573
Gh(O)      0.498720    -1.024337    -1.589394
Gh(H)      0.287247    -0.644818    -2.452001
Gh(H)      1.305141    -1.493530    -1.587149
Gh(O)     -1.985305    -0.778725    -0.196160
Gh(H)     -2.154204    -1.191439    -1.039674
Gh(H)     -2.698583    -0.134123    -0.133709

units ang
no_reorient
no_com
symmetry c1
}

set {
basis        aug-cc-pVTZ
scf_type     df
}

energy("mp2")
--------------------------------------------------------------------------

    Molecular point group: c1

    Geometry (in Angstrom), charge = 1, multiplicity = 1:

       Center              X                  Y                   Z               Mass
    ------------   -----------------  -----------------  -----------------  -----------------
         LI           0.000000000000     0.000000000000     0.000000000000     7.016003436600
      Gh(O)           0.778758000000    -0.677263000000     1.669262000000    15.994914619570
      Gh(H)           0.156902000000    -1.291452000000     2.063438000000     1.007825032230
      Gh(H)           1.726307000000    -1.001041000000     1.653786000000     1.007825032230
      Gh(O)          -0.201146000000     1.717887000000    -0.567701000000    15.994914619570
      Gh(H)          -0.877478000000     2.173081000000    -0.028194000000     1.007825032230
      Gh(H)          -0.676930000000     1.554022000000    -1.382573000000     1.007825032230
      Gh(O)           0.498720000000    -1.024337000000    -1.589394000000    15.994914619570
      Gh(H)           0.287247000000    -0.644818000000    -2.452001000000     1.007825032230
      Gh(H)           1.305141000000    -1.493530000000    -1.587149000000     1.007825032230
      Gh(O)          -1.985305000000    -0.778725000000    -0.196160000000    15.994914619570
      Gh(H)          -2.154204000000    -1.191439000000    -1.039674000000     1.007825032230
      Gh(H)          -2.698583000000    -0.134123000000    -0.133709000000     1.007825032230

  Charge       = 1
  Multiplicity = 1
  Basis Set: AUG-CC-PVTZ
    Blend: AUG-CC-PVTZ
  Basis Set: (AUG-CC-PVTZ AUX)
    Blend: AUG-CC-PVTZ-JKFIT + DEF2-UNIVERSAL-JKFIT

    Orbital Energies [Eh]
    ---------------------

    Doubly Occupied:

       1A     -2.792352

  @DF-RHF Final Energy:    -7.23638490036615

   => Energetics <=

    Nuclear Repulsion Energy =              0.0000000000000000
    One-Electron Energy =                  -8.8880650400060954
    Two-Electron Energy =                   1.6516801396399494
    Total Energy =                         -7.2363849003661462
 Dipole X            :         -0.0000038            0.0000000           -0.0000038
 Dipole Y            :         -0.0000064            0.0000000           -0.0000064
 Dipole Z            :          0.0000009            0.0000000            0.0000009
 Magnitude           :                                                    0.0000075
  Basis Set: (AUG-CC-PVTZ AUX)
    Blend: AUG-CC-PVTZ-RI + DEF2-QZVPP-RI
	 Reference Energy          =      -7.2363849003661462 [Eh]
	 Singles Energy            =      -0.0000000000000000 [Eh]
	 Same-Spin Energy          =       0.0000000000000000 [Eh]
	 Opposite-Spin Energy      =      -0.0171114174700389 [Eh]
	 Correlation Energy        =      -0.0171114174700389 [Eh]
	 Total Energy              =      -7.2534963178361851 [Eh]

	 ================> DF-SCS-MP2 Energies <==================
	-----------------------------------------------------------
	 SCS Same-Spin Scale       =       0.3333333333333333 [-]
	 SCS Opposite-Spin Scale   =       1.2000000000000000 [-]
	 SCS Same-Spin Energy      =       0.0000000000000000 [Eh]
	 SCS Opposite-Spin Energy  =      -0.0205337009640466 [Eh]
	 SCS Correlation Energy    =      -0.0205337009640466 [Eh]
	 SCS Total Energy          =      -7.2569186013301925 [Eh]
	-----------------------------------------------------------

*** Psi4 exiting successfully. Buy a developer a beer!
