                               Psi4 1.8.2 release

  ==> Input File <==

--------------------------------------------------------------------------
MEMORY 60 GB

molecule dimer {
0 1
Gh(Li)     0.000000     0.000000     0.000000
Gh(O)     -0.027221    -1.892341     0.156225
Gh(H)     -0.536148    -2.498417    -0.392860
Gh(H)      0.243138    -2.471152     0.849494
Gh(O)      1.738236     0.664366    -0.057323
Gh(H)      2.287094     0.955382     0.777655
Gh(H)      2.400736     0.107677    -0.493532
Gh(O)     -1.127047     0.764844     1.621688
Gh(H)     -0.642547     0.688602     2.513507
Gh(H)     -1.362795     1.713494     1.543215
O         -0.863269     0.264781    -1.728839
H         -0.881962     1.221250    -1.792891
H         -1.763154    -0.020104    -1.961724

units ang
no_reorient
no_com
symmetry c1
}

set {
basis        aug-cc-pVTZ
scf_type     df
}

energy("mp2")
--------------------------------------------------------------------------

    Molecular point group: c1

    Geometry (in Angstrom), charge = 0, multiplicity = 1:

       Center              X                  Y                   Z               Mass
    ------------   -----------------  -----------------  -----------------  -----------------
      Gh(LI)          0.000000000000     0.000000000000     0.000000000000     7.016003436600
      Gh(O)          -0.027221000000    -1.892341000000     0.156225000000    15.994914619570
      Gh(H)          -0.536148000000    -2.498417000000    -0.392860000000     1.007825032230
      Gh(H)           0.243138000000    -2.471152000000     0.849494000000     1.007825032230
      Gh(O)           1.738236000000     0.664366000000    -0.057323000000    15.994914619570
      Gh(H)           2.287094000000     0.955382000000     0.777655000000     1.007825032230
      Gh(H)           2.400736000000     0.107677000000    -0.493532000000     1.007825032230
      Gh(O)          -1.127047000000     0.764844000000     1.621688000000    15.994914619570
      Gh(H)          -0.642547000000     0.688602000000     2.513507000000     1.007825032230
      Gh(H)          -1.362795000000     1.713494000000     1.543215000000     1.007825032230
         O           -0.863269000000     0.264781000000    -1.728839000000    15.994914619570
         H           -0.881962000000     1.221250000000    -1.792891000000     1.007825032230
         H           -1.763154000000    -0.020104000000    -1.961724000000     1.007825032230

  Charge       = 0
  Multiplicity = 1
  Basis Set: AUG-CC-PVTZ
    Blend: AUG-CC-PVTZ
  Basis Set: (AUG-CC-PVTZ AUX)
    Blend: AUG-CC-PVTZ-JKFIT + DEF2-UNIVERSAL-JKFIT

    Orbital Energies [Eh]
    ---------------------

    Doubly Occupied:

       1A    -20.568204     2A     -1.348952     3A     -0.714081
       4A     -0.582349     5A     -0.509508

  @DF-RHF Final Energy:   -76.06000991231852

   => Energetics <=

    Nuclear Repulsion Energy =              9.1152903435813339
    One-Electron Energy =                -122.9044088952178555
    Two-Electron Energy =                  37.7291086393180066
    Total Energy =                        -76.0600099123185203
 Dipole X            :         17.4421243          -18.0492807           -0.6071564
 Dipole Y            :         -5.8260433            6.2727456            0.4467023
 Dipole Z            :         33.0348528          -33.2314519           -0.1965990
 Magnitude           :                                                    0.7789949
  Basis Set: (AUG-CC-PVTZ AUX)
    Blend: AUG-CC-PVTZ-RI + DEF2-QZVPP-RI
	 Reference Energy          =     -76.0600099123185203 [Eh]
	 Singles Energy            =      -0.0000000000000000 [Eh]
	 Same-Spin Energy          =      -0.0685607866946386 [Eh]
	 Opposite-Spin Energy      =      -0.2163774720992464 [Eh]
	 Correlation Energy        =      -0.2849382587938850 [Eh]
	 Total Energy              =     -76.3449481711124065 [Eh]

	 ================> DF-SCS-MP2 Energies <==================
	-----------------------------------------------------------
	 SCS Same-Spin Scale       =       0.3333333333333333 [-]
	 SCS Opposite-Spin Scale   =       1.2000000000000000 [-]
	 SCS Same-Spin Energy      =      -0.0228535955648795 [Eh]
	 SCS Opposite-Spin Energy  =      -0.2596529665190957 [Eh]
	 SCS Correlation Energy    =      -0.2825065620839752 [Eh]
	 SCS Total Energy          =     -76.3425164744025011 [Eh]
	-----------------------------------------------------------

*** Psi4 exiting successfully. Buy a developer a beer!
