                               Psi4 1.8.2 release

  ==> Input File <==

--------------------------------------------------------------------------
MEMORY 60 GB

molecule dimer {
0 1
Gh(Li)     0.000000     0.000000     0.000000
O          0.974801    -1.457324    -0.803063
H          1.616648    -1.821333    -0.185071
H          0.543412    -2.209643    -1.228589
Gh(O)     -1.022460    -0.705935     1.627113
Gh(H)     -1.734123    -0.103167     1.913218
Gh(H)     -1.500284    -1.468483     1.235082
Gh(O)     -1.471986     0.365186    -1.104744
Gh(H)     -1.395966     1.135543    -1.703561
Gh(H)     -2.409858     0.169828    -1.010243
Gh(O)      1.111405     1.672966    -0.206272
Gh(H)      1.061116     2.268920     0.588148
Gh(H)      1.217032     2.358049    -0.946568

units ang
no_reorient
no_com
symmetry c1
}

set {
basis        aug-cc-pVTZ
scf_type     df
}

energy("mp2")
--------------------------------------------------------------------------

    Molecular point group: c1

    Geometry (in Angstrom), charge = 0, multiplicity = 1:

       Center              X                  Y                   Z               Mass
    ------------   -----------------  -----------------  -----------------  -----------------
      Gh(LI)          0.000000000000     0.000000000000     0.000000000000     7.016003436600
         O            0.974801000000    -1.457324000000    -0.803063000000    15.994914619570
         H            1.616648000000    -1.821333000000    -0.185071000000     1.007825032230
         H            0.543412000000    -2.209643000000    -1.228589000000     1.007825032230
      Gh(O)          -1.022460000000    -0.705935000000     1.627113000000    15.994914619570
      Gh(H)          -1.734123000000    -0.103167000000     1.913218000000     1.007825032230
      Gh(H)          -1.500284000000    -1.468483000000     1.235082000000     1.007825032230
      Gh(O)          -1.471986000000     0.365186000000    -1.104744000000    15.994914619570
      Gh(H)          -1.395966000000     1.135543000000    -1.703561000000     1.007825032230
      Gh(H)          -2.409858000000     0.169828000000    -1.010243000000     1.007825032230
      Gh(O)           1.111405000000     1.672966000000    -0.206272000000    15.994914619570
      Gh(H)           1.061116000000     2.268920000000     0.588148000000     1.007825032230
      Gh(H)           1.217032000000     2.358049000000    -0.946568000000     1.007825032230

  Charge       = 0
  Multiplicity = 1
  Basis Set: AUG-CC-PVTZ
    Blend: AUG-CC-PVTZ
  Basis Set: (AUG-CC-PVTZ AUX)
    Blend: AUG-CC-PVTZ-JKFIT + DEF2-UNIVERSAL-JKFIT

    Orbital Energies [Eh]
    ---------------------

    Doubly Occupied:

       1A    -20.567238     2A     -1.348385     3A     -0.717873
       4A     -0.579384     5A     -0.509108

  @DF-RHF Final Energy:   -76.06018244539661

   => Energetics <=

    Nuclear Repulsion Energy =              9.1230212964400241
    One-Electron Energy =                -122.9224270969905604
    Two-Electron Energy =                  37.7392233551539320
    Total Energy =                        -76.0601824453966060
 Dipole X            :        -18.6780563           18.8187771            0.1407208
 Dipole Y            :         28.9053113          -29.6489865           -0.7436753
 Dipole Z            :         14.9404521          -14.8119833            0.1284688
 Magnitude           :                                                    0.7676975
  Basis Set: (AUG-CC-PVTZ AUX)
    Blend: AUG-CC-PVTZ-RI + DEF2-QZVPP-RI
	 Reference Energy          =     -76.0601824453966060 [Eh]
	 Singles Energy            =      -0.0000000000000000 [Eh]
	 Same-Spin Energy          =      -0.0685164506539006 [Eh]
	 Opposite-Spin Energy      =      -0.2162227013981173 [Eh]
	 Correlation Energy        =      -0.2847391520520179 [Eh]
	 Total Energy              =     -76.3449215974486179 [Eh]

	 ================> DF-SCS-MP2 Energies <==================
	-----------------------------------------------------------
	 SCS Same-Spin Scale       =       0.3333333333333333 [-]
	 SCS Opposite-Spin Scale   =       1.2000000000000000 [-]
	 SCS Same-Spin Energy      =      -0.0228388168846335 [Eh]
	 SCS Opposite-Spin Energy  =      -0.2594672416777408 [Eh]
	 SCS Correlation Energy    =      -0.2823060585623743 [Eh]
	 SCS Total Energy          =     -76.3424885039589753 [Eh]
	-----------------------------------------------------------

*** Psi4 exiting successfully. Buy a developer a beer!
