                               Psi4 1.8.2 release

  ==> Input File <==

--------------------------------------------------------------------------
MEMORY 60 GB

molecule dimer {
0 1
Gh(Li)     0.000000     0.000000     0.000000
Gh(O)     -1.666848    -0.230775    -0.571178
Gh(H)     -2.403845    -0.078846     0.061316
Gh(H)     -1.852157    -1.160914    -0.900576
Gh(O)      0.811830     1.681269     0.295015
Gh(H)      1.209914     1.723784     1.184017
Gh(H)      1.431522     2.147366    -0.312900
O          1.245948    -0.573251    -1.667623
H          0.710361    -0.536181    -2.500262
H          1.978230    -0.048153    -1.882404

units ang
no_reorient
no_com
symmetry c1
}

set {
basis        aug-cc-pVTZ
scf_type     df
}

energy("mp2")
--------------------------------------------------------------------------

    Molecular point group: c1

    Geometry (in Angstrom), charge = 0, multiplicity = 1:

       Center              X                  Y                   Z               Mass
    ------------   -----------------  -----------------  -----------------  -----------------
      Gh(LI)          0.000000000000     0.000000000000     0.000000000000     7.016003436600
      Gh(O)          -1.666848000000    -0.230775000000    -0.571178000000    15.994914619570
      Gh(H)          -2.403845000000    -0.078846000000     0.061316000000     1.007825032230
      Gh(H)          -1.852157000000    -1.160914000000    -0.900576000000     1.007825032230
      Gh(O)           0.811830000000     1.681269000000     0.295015000000    15.994914619570
      Gh(H)           1.209914000000     1.723784000000     1.184017000000     1.007825032230
      Gh(H)           1.431522000000     2.147366000000    -0.312900000000     1.007825032230
         O            1.245948000000    -0.573251000000    -1.667623000000    15.994914619570
         H            0.710361000000    -0.536181000000    -2.500262000000     1.007825032230
         H            1.978230000000    -0.048153000000    -1.882404000000     1.007825032230

  Charge       = 0
  Multiplicity = 1
  Basis Set: AUG-CC-PVTZ
    Blend: AUG-CC-PVTZ
  Basis Set: (AUG-CC-PVTZ AUX)
    Blend: AUG-CC-PVTZ-JKFIT + DEF2-UNIVERSAL-JKFIT

    Orbital Energies [Eh]
    ---------------------

    Doubly Occupied:

       1A    -20.567991     2A     -1.355517     3A     -0.712846
       4A     -0.588758     5A     -0.510989

  @DF-RHF Final Energy:   -76.05827637985517

   => Energetics <=

    Nuclear Repulsion Energy =              9.1977386117631781
    One-Electron Energy =                -123.0398247183338611
    Two-Electron Energy =                  37.7838097267155177
    Total Energy =                        -76.0582763798551724
 Dipole X            :        -23.7764390           23.9167045            0.1402656
 Dipole Y            :         10.1453784           -9.7705304            0.3748480
 Dipole Z            :         32.8059543          -33.4928444           -0.6868902
 Magnitude           :                                                    0.7949865
  Basis Set: (AUG-CC-PVTZ AUX)
    Blend: AUG-CC-PVTZ-RI + DEF2-QZVPP-RI
	 Reference Energy          =     -76.0582763798551724 [Eh]
	 Singles Energy            =      -0.0000000000000000 [Eh]
	 Same-Spin Energy          =      -0.0684627815130889 [Eh]
	 Opposite-Spin Energy      =      -0.2159893605591136 [Eh]
	 Correlation Energy        =      -0.2844521420722025 [Eh]
	 Total Energy              =     -76.3427285219273699 [Eh]

	 ================> DF-SCS-MP2 Energies <==================
	-----------------------------------------------------------
	 SCS Same-Spin Scale       =       0.3333333333333333 [-]
	 SCS Opposite-Spin Scale   =       1.2000000000000000 [-]
	 SCS Same-Spin Energy      =      -0.0228209271710296 [Eh]
	 SCS Opposite-Spin Energy  =      -0.2591872326709362 [Eh]
	 SCS Correlation Energy    =      -0.2820081598419659 [Eh]
	 SCS Total Energy          =     -76.3402845396971372 [Eh]
	-----------------------------------------------------------

*** Psi4 exiting successfully. Buy a developer a beer!
