                               Psi4 1.8.2 release

  ==> Input File <==

--------------------------------------------------------------------------
MEMORY 60 GB

molecule dimer {
1 1
Li         0.000000     0.000000     0.000000
Gh(O)     -1.511539    -0.373056     1.444335
Gh(H)     -2.171177    -0.773198     0.881789
Gh(H)     -1.822922     0.301399     2.156054
Gh(O)      1.489676     0.881894     1.248380
Gh(H)      2.269207     0.733811     0.702855
Gh(H)      1.792827     0.767859     2.219903
Gh(O)     -1.062894     1.282392    -0.795663
Gh(H)     -1.976557     1.447197    -0.506702
Gh(H)     -1.068516     1.674872    -1.716630
Gh(O)      0.712000    -1.014444    -1.465121
Gh(H)      0.958402    -1.983537    -1.419085
Gh(H)      0.828894    -0.834982    -2.421806

units ang
no_reorient
no_com
symmetry c1
}

set {
basis        aug-cc-pVTZ
scf_type     df
}

energy("mp2")
--------------------------------------------------------------------------

    Molecular point group: c1

    Geometry (in Angstrom), charge = 1, multiplicity = 1:

       Center              X                  Y                   Z               Mass
    ------------   -----------------  -----------------  -----------------  -----------------
         LI           0.000000000000     0.000000000000     0.000000000000     7.016003436600
      Gh(O)          -1.511539000000    -0.373056000000     1.444335000000    15.994914619570
      Gh(H)          -2.171177000000    -0.773198000000     0.881789000000     1.007825032230
      Gh(H)          -1.822922000000     0.301399000000     2.156054000000     1.007825032230
      Gh(O)           1.489676000000     0.881894000000     1.248380000000    15.994914619570
      Gh(H)           2.269207000000     0.733811000000     0.702855000000     1.007825032230
      Gh(H)           1.792827000000     0.767859000000     2.219903000000     1.007825032230
      Gh(O)          -1.062894000000     1.282392000000    -0.795663000000    15.994914619570
      Gh(H)          -1.976557000000     1.447197000000    -0.506702000000     1.007825032230
      Gh(H)          -1.068516000000     1.674872000000    -1.716630000000     1.007825032230
      Gh(O)           0.712000000000    -1.014444000000    -1.465121000000    15.994914619570
      Gh(H)           0.958402000000    -1.983537000000    -1.419085000000     1.007825032230
      Gh(H)           0.828894000000    -0.834982000000    -2.421806000000     1.007825032230

  Charge       = 1
  Multiplicity = 1
  Basis Set: AUG-CC-PVTZ
    Blend: AUG-CC-PVTZ
  Basis Set: (AUG-CC-PVTZ AUX)
    Blend: AUG-CC-PVTZ-JKFIT + DEF2-UNIVERSAL-JKFIT

    Orbital Energies [Eh]
    ---------------------

    Doubly Occupied:

       1A     -2.792354

  @DF-RHF Final Energy:    -7.23638476851481

   => Energetics <=

    Nuclear Repulsion Energy =              0.0000000000000000
    One-Electron Energy =                  -8.8880624190170892
    Two-Electron Energy =                   1.6516776505022792
    Total Energy =                         -7.2363847685148102
 Dipole X            :          0.0000013            0.0000000            0.0000013
 Dipole Y            :         -0.0000043            0.0000000           -0.0000043
 Dipole Z            :          0.0000076            0.0000000            0.0000076
 Magnitude           :                                                    0.0000088
  Basis Set: (AUG-CC-PVTZ AUX)
    Blend: AUG-CC-PVTZ-RI + DEF2-QZVPP-RI
	 Reference Energy          =      -7.2363847685148102 [Eh]
	 Singles Energy            =      -0.0000000000000000 [Eh]
	 Same-Spin Energy          =       0.0000000000000000 [Eh]
	 Opposite-Spin Energy      =      -0.0165550853967100 [Eh]
	 Correlation Energy        =      -0.0165550853967100 [Eh]
	 Total Energy              =      -7.2529398539115206 [Eh]

	 ================> DF-SCS-MP2 Energies <==================
	-----------------------------------------------------------
	 SCS Same-Spin Scale       =       0.3333333333333333 [-]
	 SCS Opposite-Spin Scale   =       1.2000000000000000 [-]
	 SCS Same-Spin Energy      =       0.0000000000000000 [Eh]
	 SCS Opposite-Spin Energy  =      -0.0198661024760521 [Eh]
	 SCS Correlation Energy    =      -0.0198661024760521 [Eh]
	 SCS Total Energy          =      -7.2562508709908622 [Eh]
	-----------------------------------------------------------

*** Psi4 exiting successfully. Buy a developer a beer!
