                               Psi4 1.8.2 release

  ==> Input File <==

--------------------------------------------------------------------------
MEMORY 60 GB

molecule dimer {
1 1
Li         0.000000     0.000000     0.000000
O          1.852804     0.610325     0.422366
H          2.273260     1.457225     0.600686
H          2.485926     0.051439    -0.025591
O         -1.159180     1.378186     0.408450
H         -1.049995     1.647269     1.320449
H         -1.096509     2.226849    -0.094508
O         -0.329423    -1.475069     1.145804
H         -0.434844    -2.362818     0.770701
H         -1.017858    -1.314900     1.802054
O          0.503397    -1.152424    -1.784085
H          0.322310    -0.760718    -2.631013
H          1.362436    -1.632825    -1.984484

units ang
no_reorient
no_com
symmetry c1
}

set {
basis        aug-cc-pVTZ
scf_type     df
}

energy("mp2")
--------------------------------------------------------------------------

    Molecular point group: c1

    Geometry (in Angstrom), charge = 1, multiplicity = 1:

       Center              X                  Y                   Z               Mass
    ------------   -----------------  -----------------  -----------------  -----------------
         LI           0.000000000000     0.000000000000     0.000000000000     7.016003436600
         O            1.852804000000     0.610325000000     0.422366000000    15.994914619570
         H            2.273260000000     1.457225000000     0.600686000000     1.007825032230
         H            2.485926000000     0.051439000000    -0.025591000000     1.007825032230
         O           -1.159180000000     1.378186000000     0.408450000000    15.994914619570
         H           -1.049995000000     1.647269000000     1.320449000000     1.007825032230
         H           -1.096509000000     2.226849000000    -0.094508000000     1.007825032230
         O           -0.329423000000    -1.475069000000     1.145804000000    15.994914619570
         H           -0.434844000000    -2.362818000000     0.770701000000     1.007825032230
         H           -1.017858000000    -1.314900000000     1.802054000000     1.007825032230
         O            0.503397000000    -1.152424000000    -1.784085000000    15.994914619570
         H            0.322310000000    -0.760718000000    -2.631013000000     1.007825032230
         H            1.362436000000    -1.632825000000    -1.984484000000     1.007825032230

  Charge       = 1
  Multiplicity = 1
  Basis Set: AUG-CC-PVTZ
    Blend: AUG-CC-PVTZ
  Basis Set: (AUG-CC-PVTZ AUX)
    Blend: AUG-CC-PVTZ-JKFIT + DEF2-UNIVERSAL-JKFIT

    Orbital Energies [Eh]
    ---------------------

    Doubly Occupied:

       1A    -20.758506     2A    -20.746954     3A    -20.741059
       4A    -20.738863     5A     -2.532167     6A     -1.543603
       7A     -1.530701     8A     -1.525568     9A     -1.523521
      10A     -0.904514    11A     -0.902264    12A     -0.896068
      13A     -0.875399    14A     -0.796979    15A     -0.786679
      16A     -0.775558    17A     -0.762488    18A     -0.711500
      19A     -0.698245    20A     -0.691043    21A     -0.682418

  @DF-RHF Final Energy:  -311.62361825738151

   => Energetics <=

    Nuclear Repulsion Energy =            162.0028937777111082
    One-Electron Energy =                -745.0048217273338196
    Two-Electron Energy =                 271.3783096922412597
    Total Energy =                       -311.6236182573815086
 Dipole X            :        -17.6671065           18.4919339            0.8248274
 Dipole Y            :         11.3094843          -10.9610446            0.3484397
 Dipole Z            :         -2.8182734            2.4539492           -0.3643242
 Magnitude           :                                                    0.9666864
  Basis Set: (AUG-CC-PVTZ AUX)
    Blend: AUG-CC-PVTZ-RI + DEF2-QZVPP-RI
	 Reference Energy          =    -311.6236182573815086 [Eh]
	 Singles Energy            =      -0.0000000000000000 [Eh]
	 Same-Spin Energy          =      -0.2757674560418046 [Eh]
	 Opposite-Spin Energy      =      -0.8792273485046322 [Eh]
	 Correlation Energy        =      -1.1549948045464369 [Eh]
	 Total Energy              =    -312.7786130619279561 [Eh]

	 ================> DF-SCS-MP2 Energies <==================
	-----------------------------------------------------------
	 SCS Same-Spin Scale       =       0.3333333333333333 [-]
	 SCS Opposite-Spin Scale   =       1.2000000000000000 [-]
	 SCS Same-Spin Energy      =      -0.0919224853472682 [Eh]
	 SCS Opposite-Spin Energy  =      -1.0550728182055586 [Eh]
	 SCS Correlation Energy    =      -1.1469953035528269 [Eh]
	 SCS Total Energy          =    -312.7706135609343505 [Eh]
	-----------------------------------------------------------

*** Psi4 exiting successfully. Buy a developer a beer!
