                               Psi4 1.8.2 release

  ==> Input File <==

--------------------------------------------------------------------------
MEMORY 60 GB

molecule dimer {
0 1
Gh(Li)     0.000000     0.000000     0.000000
O         -0.726839    -0.118102     1.911175
H         -0.115967    -0.212325     2.688357
H         -1.622471    -0.399297     2.175709
Gh(O)      0.992835     1.593091     0.218464
Gh(H)      0.702150     2.401769     0.685617
Gh(H)      1.134015     1.873018    -0.713415
Gh(O)      0.978893    -1.627265    -0.419354
Gh(H)      0.322428    -2.297315    -0.615808
Gh(H)      1.423814    -1.960308     0.436537
Gh(O)     -1.645151    -0.250685    -1.119639
Gh(H)     -1.834142     0.556153    -1.664355
Gh(H)     -2.442203    -0.433569    -0.617930

units ang
no_reorient
no_com
symmetry c1
}

set {
basis        aug-cc-pVTZ
scf_type     df
}

energy("mp2")
--------------------------------------------------------------------------

    Molecular point group: c1

    Geometry (in Angstrom), charge = 0, multiplicity = 1:

       Center              X                  Y                   Z               Mass
    ------------   -----------------  -----------------  -----------------  -----------------
      Gh(LI)          0.000000000000     0.000000000000     0.000000000000     7.016003436600
         O           -0.726839000000    -0.118102000000     1.911175000000    15.994914619570
         H           -0.115967000000    -0.212325000000     2.688357000000     1.007825032230
         H           -1.622471000000    -0.399297000000     2.175709000000     1.007825032230
      Gh(O)           0.992835000000     1.593091000000     0.218464000000    15.994914619570
      Gh(H)           0.702150000000     2.401769000000     0.685617000000     1.007825032230
      Gh(H)           1.134015000000     1.873018000000    -0.713415000000     1.007825032230
      Gh(O)           0.978893000000    -1.627265000000    -0.419354000000    15.994914619570
      Gh(H)           0.322428000000    -2.297315000000    -0.615808000000     1.007825032230
      Gh(H)           1.423814000000    -1.960308000000     0.436537000000     1.007825032230
      Gh(O)          -1.645151000000    -0.250685000000    -1.119639000000    15.994914619570
      Gh(H)          -1.834142000000     0.556153000000    -1.664355000000     1.007825032230
      Gh(H)          -2.442203000000    -0.433569000000    -0.617930000000     1.007825032230

  Charge       = 0
  Multiplicity = 1
  Basis Set: AUG-CC-PVTZ
    Blend: AUG-CC-PVTZ
  Basis Set: (AUG-CC-PVTZ AUX)
    Blend: AUG-CC-PVTZ-JKFIT + DEF2-UNIVERSAL-JKFIT

    Orbital Energies [Eh]
    ---------------------

    Doubly Occupied:

       1A    -20.569485     2A     -1.337069     3A     -0.711184
       4A     -0.571087     5A     -0.506743

  @DF-RHF Final Energy:   -76.05706900109260

   => Energetics <=

    Nuclear Repulsion Energy =              8.9341542759242341
    One-Electron Energy =                -122.5913069130730122
    Two-Electron Energy =                  37.6000836360561905
    Total Energy =                        -76.0570690010926000
 Dipole X            :         14.0821976          -14.2733849           -0.1911873
 Dipole Y            :          2.6921997           -2.9412416           -0.2490419
 Dipole Z            :        -37.3950842           38.0845312            0.6894470
 Magnitude           :                                                    0.7575696
  Basis Set: (AUG-CC-PVTZ AUX)
    Blend: AUG-CC-PVTZ-RI + DEF2-QZVPP-RI
	 Reference Energy          =     -76.0570690010926000 [Eh]
	 Singles Energy            =      -0.0000000000000000 [Eh]
	 Same-Spin Energy          =      -0.0688226141972980 [Eh]
	 Opposite-Spin Energy      =      -0.2171498934256807 [Eh]
	 Correlation Energy        =      -0.2859725076229788 [Eh]
	 Total Energy              =     -76.3430415087155723 [Eh]

	 ================> DF-SCS-MP2 Energies <==================
	-----------------------------------------------------------
	 SCS Same-Spin Scale       =       0.3333333333333333 [-]
	 SCS Opposite-Spin Scale   =       1.2000000000000000 [-]
	 SCS Same-Spin Energy      =      -0.0229408713990993 [Eh]
	 SCS Opposite-Spin Energy  =      -0.2605798721108168 [Eh]
	 SCS Correlation Energy    =      -0.2835207435099162 [Eh]
	 SCS Total Energy          =     -76.3405897446025108 [Eh]
	-----------------------------------------------------------

*** Psi4 exiting successfully. Buy a developer a beer!
