                               Psi4 1.8.2 release

  ==> Input File <==

--------------------------------------------------------------------------
MEMORY 60 GB

molecule dimer {
0 1
Gh(Li)     0.000000     0.000000     0.000000
Gh(O)     -0.027221    -1.892341     0.156225
Gh(H)     -0.536148    -2.498417    -0.392860
Gh(H)      0.243138    -2.471152     0.849494
Gh(O)      1.738236     0.664366    -0.057323
Gh(H)      2.287094     0.955382     0.777655
Gh(H)      2.400736     0.107677    -0.493532
O         -1.127047     0.764844     1.621688
H         -0.642547     0.688602     2.513507
H         -1.362795     1.713494     1.543215
Gh(O)     -0.863269     0.264781    -1.728839
Gh(H)     -0.881962     1.221250    -1.792891
Gh(H)     -1.763154    -0.020104    -1.961724

units ang
no_reorient
no_com
symmetry c1
}

set {
basis        aug-cc-pVTZ
scf_type     df
}

energy("mp2")
--------------------------------------------------------------------------

    Molecular point group: c1

    Geometry (in Angstrom), charge = 0, multiplicity = 1:

       Center              X                  Y                   Z               Mass
    ------------   -----------------  -----------------  -----------------  -----------------
      Gh(LI)          0.000000000000     0.000000000000     0.000000000000     7.016003436600
      Gh(O)          -0.027221000000    -1.892341000000     0.156225000000    15.994914619570
      Gh(H)          -0.536148000000    -2.498417000000    -0.392860000000     1.007825032230
      Gh(H)           0.243138000000    -2.471152000000     0.849494000000     1.007825032230
      Gh(O)           1.738236000000     0.664366000000    -0.057323000000    15.994914619570
      Gh(H)           2.287094000000     0.955382000000     0.777655000000     1.007825032230
      Gh(H)           2.400736000000     0.107677000000    -0.493532000000     1.007825032230
         O           -1.127047000000     0.764844000000     1.621688000000    15.994914619570
         H           -0.642547000000     0.688602000000     2.513507000000     1.007825032230
         H           -1.362795000000     1.713494000000     1.543215000000     1.007825032230
      Gh(O)          -0.863269000000     0.264781000000    -1.728839000000    15.994914619570
      Gh(H)          -0.881962000000     1.221250000000    -1.792891000000     1.007825032230
      Gh(H)          -1.763154000000    -0.020104000000    -1.961724000000     1.007825032230

  Charge       = 0
  Multiplicity = 1
  Basis Set: AUG-CC-PVTZ
    Blend: AUG-CC-PVTZ
  Basis Set: (AUG-CC-PVTZ AUX)
    Blend: AUG-CC-PVTZ-JKFIT + DEF2-UNIVERSAL-JKFIT

    Orbital Energies [Eh]
    ---------------------

    Doubly Occupied:

       1A    -20.573914     2A     -1.332902     3A     -0.696137
       4A     -0.575910     5A     -0.506957

  @DF-RHF Final Energy:   -76.05430388796604

   => Energetics <=

    Nuclear Repulsion Energy =              8.8103542997258266
    One-Electron Energy =                -122.3576732461688579
    Two-Electron Energy =                  37.4930150584769919
    Total Energy =                        -76.0543038879660287
 Dipole X            :         20.9862654          -20.8280285            0.1582369
 Dipole Y            :        -15.5321785           16.1020691            0.5698906
 Dipole Z            :        -31.6587182           32.1824630            0.5237448
 Magnitude           :                                                    0.7900144
  Basis Set: (AUG-CC-PVTZ AUX)
    Blend: AUG-CC-PVTZ-RI + DEF2-QZVPP-RI
	 Reference Energy          =     -76.0543038879660429 [Eh]
	 Singles Energy            =      -0.0000000000000000 [Eh]
	 Same-Spin Energy          =      -0.0691397572806016 [Eh]
	 Opposite-Spin Energy      =      -0.2181974223834809 [Eh]
	 Correlation Energy        =      -0.2873371796640826 [Eh]
	 Total Energy              =     -76.3416410676301211 [Eh]

	 ================> DF-SCS-MP2 Energies <==================
	-----------------------------------------------------------
	 SCS Same-Spin Scale       =       0.3333333333333333 [-]
	 SCS Opposite-Spin Scale   =       1.2000000000000000 [-]
	 SCS Same-Spin Energy      =      -0.0230465857602005 [Eh]
	 SCS Opposite-Spin Energy  =      -0.2618369068601771 [Eh]
	 SCS Correlation Energy    =      -0.2848834926203776 [Eh]
	 SCS Total Energy          =     -76.3391873805864236 [Eh]
	-----------------------------------------------------------

*** Psi4 exiting successfully. Buy a developer a beer!
