                               Psi4 1.8.2 release

  ==> Input File <==

--------------------------------------------------------------------------
MEMORY 60 GB

molecule dimer {
1 1
Li         0.000000     0.000000     0.000000
O          0.555055     1.756291    -0.173155
H          1.019401     2.013188    -0.983328
H          0.529311     2.536414     0.420306
O         -1.811688     0.111938    -0.737650
H         -2.603305     0.554410    -0.404862
H         -2.093361    -0.742220    -1.185759
O          0.926386    -1.366764    -1.203158
H          0.261493    -1.902613    -1.696554
H          1.278228    -0.703441    -1.798368
O         -0.610731    -0.311488     1.950183
H         -1.529573    -0.612056     1.947277
H         -0.415540     0.410401     2.511917

units ang
no_reorient
no_com
symmetry c1
}

set {
basis        aug-cc-pVTZ
scf_type     df
}

energy("mp2")
--------------------------------------------------------------------------

    Molecular point group: c1

    Geometry (in Angstrom), charge = 1, multiplicity = 1:

       Center              X                  Y                   Z               Mass
    ------------   -----------------  -----------------  -----------------  -----------------
         LI           0.000000000000     0.000000000000     0.000000000000     7.016003436600
         O            0.555055000000     1.756291000000    -0.173155000000    15.994914619570
         H            1.019401000000     2.013188000000    -0.983328000000     1.007825032230
         H            0.529311000000     2.536414000000     0.420306000000     1.007825032230
         O           -1.811688000000     0.111938000000    -0.737650000000    15.994914619570
         H           -2.603305000000     0.554410000000    -0.404862000000     1.007825032230
         H           -2.093361000000    -0.742220000000    -1.185759000000     1.007825032230
         O            0.926386000000    -1.366764000000    -1.203158000000    15.994914619570
         H            0.261493000000    -1.902613000000    -1.696554000000     1.007825032230
         H            1.278228000000    -0.703441000000    -1.798368000000     1.007825032230
         O           -0.610731000000    -0.311488000000     1.950183000000    15.994914619570
         H           -1.529573000000    -0.612056000000     1.947277000000     1.007825032230
         H           -0.415540000000     0.410401000000     2.511917000000     1.007825032230

  Charge       = 1
  Multiplicity = 1
  Basis Set: AUG-CC-PVTZ
    Blend: AUG-CC-PVTZ
  Basis Set: (AUG-CC-PVTZ AUX)
    Blend: AUG-CC-PVTZ-JKFIT + DEF2-UNIVERSAL-JKFIT

    Orbital Energies [Eh]
    ---------------------

    Doubly Occupied:

       1A    -20.759938     2A    -20.757486     3A    -20.752967
       4A    -20.733447     5A     -2.538939     6A     -1.542439
       7A     -1.533891     8A     -1.531363     9A     -1.525180
      10A     -0.917429    11A     -0.912375    12A     -0.905364
      13A     -0.898245    14A     -0.805355    15A     -0.778787
      16A     -0.768214    17A     -0.750670    18A     -0.711710
      19A     -0.706157    20A     -0.702031    21A     -0.680829

  @DF-RHF Final Energy:  -311.61209501050314

   => Energetics <=

    Nuclear Repulsion Energy =            162.6348028398822692
    One-Electron Energy =                -746.0681631143861523
    Two-Electron Energy =                 271.8212652640007718
    Total Energy =                       -311.6120950105031397
 Dipole X            :         19.6537822          -20.9403764           -1.2865943
 Dipole Y            :         -4.8704487            5.8088272            0.9383785
 Dipole Z            :          4.1074558           -4.7235802           -0.6161244
 Magnitude           :                                                    1.7074801
  Basis Set: (AUG-CC-PVTZ AUX)
    Blend: AUG-CC-PVTZ-RI + DEF2-QZVPP-RI
	 Reference Energy          =    -311.6120950105031397 [Eh]
	 Singles Energy            =      -0.0000000000000000 [Eh]
	 Same-Spin Energy          =      -0.2760484518406864 [Eh]
	 Opposite-Spin Energy      =      -0.8798110524605554 [Eh]
	 Correlation Energy        =      -1.1558595043012418 [Eh]
	 Total Energy              =    -312.7679545148043871 [Eh]

	 ================> DF-SCS-MP2 Energies <==================
	-----------------------------------------------------------
	 SCS Same-Spin Scale       =       0.3333333333333333 [-]
	 SCS Opposite-Spin Scale   =       1.2000000000000000 [-]
	 SCS Same-Spin Energy      =      -0.0920161506135621 [Eh]
	 SCS Opposite-Spin Energy  =      -1.0557732629526664 [Eh]
	 SCS Correlation Energy    =      -1.1477894135662285 [Eh]
	 SCS Total Energy          =    -312.7598844240693552 [Eh]
	-----------------------------------------------------------

*** Psi4 exiting successfully. Buy a developer a beer!
