                               Psi4 1.8.2 release

  ==> Input File <==

--------------------------------------------------------------------------
MEMORY 60 GB

molecule dimer {
0 1
Gh(Li)     0.000000     0.000000     0.000000
Gh(O)     -0.409388    -1.172788    -1.653677
Gh(H)     -0.592719    -0.863963    -2.571183
Gh(H)     -1.165044    -1.724467    -1.443699
Gh(O)      0.581959    -1.470160     1.232372
Gh(H)      0.948783    -1.556174     2.097776
Gh(H)      0.995278    -2.238232     0.765158
Gh(O)     -1.695527     0.711563    -0.176134
Gh(H)     -2.191824     1.057173    -0.930725
Gh(H)     -2.102533     1.149660     0.537971
O          1.307265     1.309986     0.356041
H          1.967290     1.087218     1.057477
H          1.846449     1.401655    -0.489010

units ang
no_reorient
no_com
symmetry c1
}

set {
basis        aug-cc-pVTZ
scf_type     df
}

energy("mp2")
--------------------------------------------------------------------------

    Molecular point group: c1

    Geometry (in Angstrom), charge = 0, multiplicity = 1:

       Center              X                  Y                   Z               Mass
    ------------   -----------------  -----------------  -----------------  -----------------
      Gh(LI)          0.000000000000     0.000000000000     0.000000000000     7.016003436600
      Gh(O)          -0.409388000000    -1.172788000000    -1.653677000000    15.994914619570
      Gh(H)          -0.592719000000    -0.863963000000    -2.571183000000     1.007825032230
      Gh(H)          -1.165044000000    -1.724467000000    -1.443699000000     1.007825032230
      Gh(O)           0.581959000000    -1.470160000000     1.232372000000    15.994914619570
      Gh(H)           0.948783000000    -1.556174000000     2.097776000000     1.007825032230
      Gh(H)           0.995278000000    -2.238232000000     0.765158000000     1.007825032230
      Gh(O)          -1.695527000000     0.711563000000    -0.176134000000    15.994914619570
      Gh(H)          -2.191824000000     1.057173000000    -0.930725000000     1.007825032230
      Gh(H)          -2.102533000000     1.149660000000     0.537971000000     1.007825032230
         O            1.307265000000     1.309986000000     0.356041000000    15.994914619570
         H            1.967290000000     1.087218000000     1.057477000000     1.007825032230
         H            1.846449000000     1.401655000000    -0.489010000000     1.007825032230

  Charge       = 0
  Multiplicity = 1
  Basis Set: AUG-CC-PVTZ
    Blend: AUG-CC-PVTZ
  Basis Set: (AUG-CC-PVTZ AUX)
    Blend: AUG-CC-PVTZ-JKFIT + DEF2-UNIVERSAL-JKFIT

    Orbital Energies [Eh]
    ---------------------

    Doubly Occupied:

       1A    -20.573638     2A     -1.333363     3A     -0.697032
       4A     -0.576139     5A     -0.507029

  @DF-RHF Final Energy:   -76.05504488584955

   => Energetics <=

    Nuclear Repulsion Energy =              8.8223853792767919
    One-Electron Energy =                -122.3804546934053690
    Two-Electron Energy =                  37.5030244282790193
    Total Energy =                        -76.0550448858495542
 Dipole X            :        -26.1908660           26.9699048            0.7790388
 Dipole Y            :        -24.5928378           24.5074065           -0.0854313
 Dipole Z            :         -6.5469576            6.4568068           -0.0901508
 Magnitude           :                                                    0.7888771
  Basis Set: (AUG-CC-PVTZ AUX)
    Blend: AUG-CC-PVTZ-RI + DEF2-QZVPP-RI
	 Reference Energy          =     -76.0550448858495542 [Eh]
	 Singles Energy            =      -0.0000000000000000 [Eh]
	 Same-Spin Energy          =      -0.0691335214400457 [Eh]
	 Opposite-Spin Energy      =      -0.2182268083053599 [Eh]
	 Correlation Energy        =      -0.2873603297454056 [Eh]
	 Total Energy              =     -76.3424052155949653 [Eh]

	 ================> DF-SCS-MP2 Energies <==================
	-----------------------------------------------------------
	 SCS Same-Spin Scale       =       0.3333333333333333 [-]
	 SCS Opposite-Spin Scale   =       1.2000000000000000 [-]
	 SCS Same-Spin Energy      =      -0.0230445071466819 [Eh]
	 SCS Opposite-Spin Energy  =      -0.2618721699664319 [Eh]
	 SCS Correlation Energy    =      -0.2849166771131137 [Eh]
	 SCS Total Energy          =     -76.3399615629626709 [Eh]
	-----------------------------------------------------------

*** Psi4 exiting successfully. Buy a developer a beer!
