                               Psi4 1.8.2 release

  ==> Input File <==

--------------------------------------------------------------------------
MEMORY 60 GB

molecule dimer {
1 1
Li         0.000000     0.000000     0.000000
Gh(O)      1.624676     0.930347    -0.687789
Gh(H)      1.665506     1.787976    -0.163954
Gh(H)      2.371292     0.410789    -0.401384
Gh(O)      1.173391    -1.680161    -0.212338
Gh(H)      2.036435    -1.610877    -0.690179
Gh(H)      0.993748    -2.598798    -0.378489
Gh(O)     -1.459926     0.080801    -0.837685
Gh(H)     -1.519684     0.169931    -1.784495
Gh(H)     -2.009970    -0.641099    -0.565310
Gh(O)     -0.236587    -0.097317     1.963066
Gh(H)      0.470180    -0.606954     2.365849
Gh(H)     -0.104803     0.790192     2.342656

units ang
no_reorient
no_com
symmetry c1
}

set {
basis        aug-cc-pVTZ
scf_type     df
}

energy("mp2")
--------------------------------------------------------------------------

    Molecular point group: c1

    Geometry (in Angstrom), charge = 1, multiplicity = 1:

       Center              X                  Y                   Z               Mass
    ------------   -----------------  -----------------  -----------------  -----------------
         LI           0.000000000000     0.000000000000     0.000000000000     7.016003436600
      Gh(O)           1.624676000000     0.930347000000    -0.687789000000    15.994914619570
      Gh(H)           1.665506000000     1.787976000000    -0.163954000000     1.007825032230
      Gh(H)           2.371292000000     0.410789000000    -0.401384000000     1.007825032230
      Gh(O)           1.173391000000    -1.680161000000    -0.212338000000    15.994914619570
      Gh(H)           2.036435000000    -1.610877000000    -0.690179000000     1.007825032230
      Gh(H)           0.993748000000    -2.598798000000    -0.378489000000     1.007825032230
      Gh(O)          -1.459926000000     0.080801000000    -0.837685000000    15.994914619570
      Gh(H)          -1.519684000000     0.169931000000    -1.784495000000     1.007825032230
      Gh(H)          -2.009970000000    -0.641099000000    -0.565310000000     1.007825032230
      Gh(O)          -0.236587000000    -0.097317000000     1.963066000000    15.994914619570
      Gh(H)           0.470180000000    -0.606954000000     2.365849000000     1.007825032230
      Gh(H)          -0.104803000000     0.790192000000     2.342656000000     1.007825032230

  Charge       = 1
  Multiplicity = 1
  Basis Set: AUG-CC-PVTZ
    Blend: AUG-CC-PVTZ
  Basis Set: (AUG-CC-PVTZ AUX)
    Blend: AUG-CC-PVTZ-JKFIT + DEF2-UNIVERSAL-JKFIT

    Orbital Energies [Eh]
    ---------------------

    Doubly Occupied:

       1A     -2.792352

  @DF-RHF Final Energy:    -7.23638488474401

   => Energetics <=

    Nuclear Repulsion Energy =              0.0000000000000000
    One-Electron Energy =                  -8.8880655402427031
    Two-Electron Energy =                   1.6516806554986958
    Total Energy =                         -7.2363848847440071
 Dipole X            :          0.0000113            0.0000000            0.0000113
 Dipole Y            :         -0.0000052            0.0000000           -0.0000052
 Dipole Z            :          0.0000022            0.0000000            0.0000022
 Magnitude           :                                                    0.0000126
  Basis Set: (AUG-CC-PVTZ AUX)
    Blend: AUG-CC-PVTZ-RI + DEF2-QZVPP-RI
	 Reference Energy          =      -7.2363848847440071 [Eh]
	 Singles Energy            =      -0.0000000000000000 [Eh]
	 Same-Spin Energy          =       0.0000000000000000 [Eh]
	 Opposite-Spin Energy      =      -0.0173680345872387 [Eh]
	 Correlation Energy        =      -0.0173680345872387 [Eh]
	 Total Energy              =      -7.2537529193312453 [Eh]

	 ================> DF-SCS-MP2 Energies <==================
	-----------------------------------------------------------
	 SCS Same-Spin Scale       =       0.3333333333333333 [-]
	 SCS Opposite-Spin Scale   =       1.2000000000000000 [-]
	 SCS Same-Spin Energy      =       0.0000000000000000 [Eh]
	 SCS Opposite-Spin Energy  =      -0.0208416415046864 [Eh]
	 SCS Correlation Energy    =      -0.0208416415046864 [Eh]
	 SCS Total Energy          =      -7.2572265262486937 [Eh]
	-----------------------------------------------------------

*** Psi4 exiting successfully. Buy a developer a beer!
