                               Psi4 1.9 release

  ==> Input File <==

--------------------------------------------------------------------------
MEMORY 60 GB

molecule dimer {
1 1
Li     0.000000     0.000000     0.000000
--
0 1
O      1.263765    -0.267496     1.619238
H      2.159690     0.080433     1.842446
H      0.723105    -0.277224     2.376080
O     -1.351525    -1.332306     0.260912
H     -2.108274    -1.702532    -0.181780
H     -1.298557    -1.835541     1.074812
O      1.333124     0.996804    -0.988147
H      2.221731     0.663227    -1.128336
H      1.028669     1.301661    -1.813392
O     -1.085799     1.589562     0.765920
H     -1.584621     2.287494     0.264073
H     -1.694977     1.307918     1.432451

units ang
no_reorient
no_com
symmetry c1
}

set {
basis        aug-cc-pVTZ
scf_type     df
}

energy("mp2", bsse_type="cp")
--------------------------------------------------------------------------

                               Psi4 1.9 release
    Molecular point group: c1
  Charge       = 0
  Multiplicity = 1
  Basis Set: AUG-CC-PVTZ
    Blend: AUG-CC-PVTZ
  Basis Set: (AUG-CC-PVTZ AUX)
    Blend: AUG-CC-PVTZ-JKFIT + DEF2-UNIVERSAL-JKFIT
  @DF-RHF Final Energy:  -304.21379824777944
    Total Energy =                       -304.2137982477794367
 Dipole X            :         -1.9191792            1.3668125           -0.5523667
 Dipole Y            :        -18.4748639           18.3642602           -0.1106037
 Dipole Z            :        -32.0757456           32.3705134            0.2947679
 Magnitude           :                                                    0.6357910
  Basis Set: (AUG-CC-PVTZ AUX)
    Blend: AUG-CC-PVTZ-RI + DEF2-QZVPP-RI
	 Reference Energy          =    -304.2137982477794367 [Eh]
	 Singles Energy            =      -0.0000000000000000 [Eh]
	 Same-Spin Energy          =      -0.2769020214962564 [Eh]
	 Opposite-Spin Energy      =      -0.8679062631918988 [Eh]
	 Correlation Energy        =      -1.1448082846881551 [Eh]
	 Total Energy              =    -305.3586065324676042 [Eh]
	 SCS Total Energy          =    -305.3475864374418052 [Eh]
                               Psi4 1.9 release
    Molecular point group: c1
  Multiplicity = 1
  Basis Set: AUG-CC-PVTZ
    Blend: AUG-CC-PVTZ
  Basis Set: (AUG-CC-PVTZ AUX)
    Blend: AUG-CC-PVTZ-JKFIT + DEF2-UNIVERSAL-JKFIT
  @DF-RHF Final Energy:    -7.23638482693984
    Total Energy =                         -7.2363848269398430
  Basis Set: (AUG-CC-PVTZ AUX)
	 Singles Energy            =      -0.0000000000000000 [Eh]
	 Same-Spin Energy          =      -0.0000000000000000 [Eh]
	 Opposite-Spin Energy      =      -0.0167119025435447 [Eh]
	 Correlation Energy        =      -0.0167119025435447 [Eh]
	 Total Energy              =      -7.2530967294833868 [Eh]
	 SCS Total Energy          =      -7.2564391099920957 [Eh]
                               Psi4 1.9 release
    Molecular point group: c1

    Geometry (in Bohr), charge = 1, multiplicity = 1:

       Center              X                  Y                   Z               Mass
    ------------   -----------------  -----------------  -----------------  -----------------
         LI           0.000000000000     0.000000000000     0.000000000000     7.016003436600
         O            2.388169736939    -0.505494179655     3.059916351934    15.994914619570
         H            4.081222615890     0.151996341449     3.481718340945     1.007825032230
         H            1.366470409949    -0.523877435404     4.490140452178     1.007825032230
         O           -2.554012101709    -2.517693455304     0.493052222845    15.994914619570
         H           -3.984060457423    -3.217319199828    -0.343514415086     1.007825032230
         H           -2.453917088296    -3.468669782049     2.031100316356     1.007825032230
         O            2.519239251275     1.883686560761    -1.867327201693    15.994914619570
         H            4.198463114440     1.253317389009    -2.132246017495     1.007825032230
         H            1.943902683749     2.459782798190    -3.426814238096     1.007825032230
         O           -2.051862737296     3.003836839435     1.447379034011    15.994914619570
         H           -2.994499702649     4.322737173628     0.499025647128     1.007825032230
         H           -3.203042318950     2.471606814557     2.706940078138     1.007825032230

  Charge       = 1
  Multiplicity = 1
  Basis Set: AUG-CC-PVTZ
    Blend: AUG-CC-PVTZ
  Basis Set: (AUG-CC-PVTZ AUX)
    Blend: AUG-CC-PVTZ-JKFIT + DEF2-UNIVERSAL-JKFIT

    Orbital Energies [Eh]
    ---------------------

    Doubly Occupied:

       1A    -20.755642     2A    -20.740878     3A    -20.734903
       4A    -20.733412     5A     -2.539257     6A     -1.550174
       7A     -1.541237     8A     -1.523426     9A     -1.518199
      10A     -0.912313    11A     -0.909547    12A     -0.897752
      13A     -0.878510    14A     -0.806275    15A     -0.791366
      16A     -0.761560    17A     -0.755847    18A     -0.710870
      19A     -0.697684    20A     -0.683916    21A     -0.677077

  @DF-RHF Final Energy:  -311.62383149682739

   => Energetics <=

    Nuclear Repulsion Energy =            163.4236461781327421
    One-Electron Energy =                -747.8552636332897237
    Two-Electron Energy =                 272.8077859583296458
    Total Energy =                       -311.6238314968273926
 Dipole X            :         -1.9233920            1.3668125           -0.5565795
 Dipole Y            :        -18.3290211           18.3642602            0.0352392
 Dipole Z            :        -31.8199236           32.3705134            0.5505898
 Magnitude           :                                                    0.7836911
  Basis Set: (AUG-CC-PVTZ AUX)
    Blend: AUG-CC-PVTZ-RI + DEF2-QZVPP-RI
	 Reference Energy          =    -311.6238314968273926 [Eh]
	 Singles Energy            =      -0.0000000000000000 [Eh]
	 Same-Spin Energy          =      -0.2751435564776966 [Eh]
	 Opposite-Spin Energy      =      -0.8770523225268206 [Eh]
	 Correlation Energy        =      -1.1521958790045173 [Eh]
	 Total Energy              =    -312.7760273758319158 [Eh]

	 ================> DF-SCS-MP2 Energies <==================
	-----------------------------------------------------------
	 SCS Same-Spin Scale       =       0.3333333333333333 [-]
	 SCS Opposite-Spin Scale   =       1.2000000000000000 [-]
	 SCS Same-Spin Energy      =      -0.0917145188258988 [Eh]
	 SCS Opposite-Spin Energy  =      -1.0524627870321848 [Eh]
	 SCS Correlation Energy    =      -1.1441773058580835 [Eh]
	 SCS Total Energy          =    -312.7680088026854719 [Eh]
	-----------------------------------------------------------

*** Psi4 exiting successfully. Buy a developer a beer!
