                               Psi4 1.8.2 release

  ==> Input File <==

--------------------------------------------------------------------------
MEMORY 60 GB

molecule dimer {
0 1
Gh(Li)     0.000000     0.000000     0.000000
O          1.698581     0.435696     0.558593
H          2.237527    -0.300337     0.974783
H          2.088861     0.477432    -0.359968
Gh(O)     -0.602134     1.603987    -1.055512
Gh(H)     -0.019972     1.873754    -1.758661
Gh(H)     -1.470926     1.622158    -1.464541
Gh(O)      0.090460    -1.221032    -1.273457
Gh(H)      0.943707    -1.644678    -1.158743
Gh(H)     -0.580198    -1.847887    -1.056551
Gh(O)     -1.504258    -0.347888     1.383059
Gh(H)     -1.261637    -0.488613     2.322452
Gh(H)     -1.997552    -1.132669     1.067802

units ang
no_reorient
no_com
symmetry c1
}

set {
basis        aug-cc-pVTZ
scf_type     df
}

energy("mp2")
--------------------------------------------------------------------------

    Molecular point group: c1

    Geometry (in Angstrom), charge = 0, multiplicity = 1:

       Center              X                  Y                   Z               Mass
    ------------   -----------------  -----------------  -----------------  -----------------
      Gh(LI)          0.000000000000     0.000000000000     0.000000000000     7.016003436600
         O            1.698581000000     0.435696000000     0.558593000000    15.994914619570
         H            2.237527000000    -0.300337000000     0.974783000000     1.007825032230
         H            2.088861000000     0.477432000000    -0.359968000000     1.007825032230
      Gh(O)          -0.602134000000     1.603987000000    -1.055512000000    15.994914619570
      Gh(H)          -0.019972000000     1.873754000000    -1.758661000000     1.007825032230
      Gh(H)          -1.470926000000     1.622158000000    -1.464541000000     1.007825032230
      Gh(O)           0.090460000000    -1.221032000000    -1.273457000000    15.994914619570
      Gh(H)           0.943707000000    -1.644678000000    -1.158743000000     1.007825032230
      Gh(H)          -0.580198000000    -1.847887000000    -1.056551000000     1.007825032230
      Gh(O)          -1.504258000000    -0.347888000000     1.383059000000    15.994914619570
      Gh(H)          -1.261637000000    -0.488613000000     2.322452000000     1.007825032230
      Gh(H)          -1.997552000000    -1.132669000000     1.067802000000     1.007825032230

  Charge       = 0
  Multiplicity = 1
  Basis Set: AUG-CC-PVTZ
    Blend: AUG-CC-PVTZ
  Basis Set: (AUG-CC-PVTZ AUX)
    Blend: AUG-CC-PVTZ-JKFIT + DEF2-UNIVERSAL-JKFIT

    Orbital Energies [Eh]
    ---------------------

    Doubly Occupied:

       1A    -20.575722     2A     -1.333993     3A     -0.689343
       4A     -0.581879     5A     -0.507825

  @DF-RHF Final Energy:   -76.05433751587228

   => Energetics <=

    Nuclear Repulsion Energy =              8.8010124138403594
    One-Electron Energy =                -122.3331712738851849
    Two-Electron Energy =                  37.4778213441725683
    Total Energy =                        -76.0543375158722625
 Dipole X            :        -33.2579032           33.8545116            0.5966083
 Dipole Y            :         -7.3667070            6.9214300           -0.4452770
 Dipole Z            :         -9.9295970            9.6065343           -0.3230628
 Magnitude           :                                                    0.8115311
  Basis Set: (AUG-CC-PVTZ AUX)
    Blend: AUG-CC-PVTZ-RI + DEF2-QZVPP-RI
	 Reference Energy          =     -76.0543375158722768 [Eh]
	 Singles Energy            =      -0.0000000000000000 [Eh]
	 Same-Spin Energy          =      -0.0692796068156435 [Eh]
	 Opposite-Spin Energy      =      -0.2187721426645948 [Eh]
	 Correlation Energy        =      -0.2880517494802383 [Eh]
	 Total Energy              =     -76.3423892653525087 [Eh]

	 ================> DF-SCS-MP2 Energies <==================
	-----------------------------------------------------------
	 SCS Same-Spin Scale       =       0.3333333333333333 [-]
	 SCS Opposite-Spin Scale   =       1.2000000000000000 [-]
	 SCS Same-Spin Energy      =      -0.0230932022718812 [Eh]
	 SCS Opposite-Spin Energy  =      -0.2625265711975138 [Eh]
	 SCS Correlation Energy    =      -0.2856197734693949 [Eh]
	 SCS Total Energy          =     -76.3399572893416689 [Eh]
	-----------------------------------------------------------

*** Psi4 exiting successfully. Buy a developer a beer!
