                               Psi4 1.8.2 release

  ==> Input File <==

--------------------------------------------------------------------------
MEMORY 60 GB

molecule dimer {
0 1
Gh(Li)     0.000000     0.000000     0.000000
Gh(O)     -1.032842     0.396425    -1.658178
Gh(H)     -1.279584     0.014094    -2.509117
Gh(H)     -1.562276     1.236030    -1.642107
O         -0.418356     0.747917     1.594078
H          0.358018     0.959903     2.183691
H         -0.999293     1.461192     1.564220
Gh(O)      1.442274     1.084928    -0.518287
Gh(H)      1.966751     1.852884    -0.286094
Gh(H)      1.473632     0.916597    -1.471009
Gh(O)      0.031737    -1.911179     0.426641
Gh(H)      0.902421    -2.258501     0.761336
Gh(H)     -0.721623    -2.124603     0.942511

units ang
no_reorient
no_com
symmetry c1
}

set {
basis        aug-cc-pVTZ
scf_type     df
}

energy("mp2")
--------------------------------------------------------------------------

    Molecular point group: c1

    Geometry (in Angstrom), charge = 0, multiplicity = 1:

       Center              X                  Y                   Z               Mass
    ------------   -----------------  -----------------  -----------------  -----------------
      Gh(LI)          0.000000000000     0.000000000000     0.000000000000     7.016003436600
      Gh(O)          -1.032842000000     0.396425000000    -1.658178000000    15.994914619570
      Gh(H)          -1.279584000000     0.014094000000    -2.509117000000     1.007825032230
      Gh(H)          -1.562276000000     1.236030000000    -1.642107000000     1.007825032230
         O           -0.418356000000     0.747917000000     1.594078000000    15.994914619570
         H            0.358018000000     0.959903000000     2.183691000000     1.007825032230
         H           -0.999293000000     1.461192000000     1.564220000000     1.007825032230
      Gh(O)           1.442274000000     1.084928000000    -0.518287000000    15.994914619570
      Gh(H)           1.966751000000     1.852884000000    -0.286094000000     1.007825032230
      Gh(H)           1.473632000000     0.916597000000    -1.471009000000     1.007825032230
      Gh(O)           0.031737000000    -1.911179000000     0.426641000000    15.994914619570
      Gh(H)           0.902421000000    -2.258501000000     0.761336000000     1.007825032230
      Gh(H)          -0.721623000000    -2.124603000000     0.942511000000     1.007825032230

  Charge       = 0
  Multiplicity = 1
  Basis Set: AUG-CC-PVTZ
    Blend: AUG-CC-PVTZ
  Basis Set: (AUG-CC-PVTZ AUX)
    Blend: AUG-CC-PVTZ-JKFIT + DEF2-UNIVERSAL-JKFIT

    Orbital Energies [Eh]
    ---------------------

    Doubly Occupied:

       1A    -20.564327     2A     -1.349991     3A     -0.727719
       4A     -0.573001     5A     -0.508564

  @DF-RHF Final Energy:   -76.05715155612208

   => Energetics <=

    Nuclear Repulsion Energy =              9.1790584570815135
    One-Electron Energy =                -123.0252138507523796
    Two-Electron Energy =                  37.7890038375488047
    Total Energy =                        -76.0571515561220650
 Dipole X            :          7.6590031           -7.5364602            0.1225429
 Dipole Y            :        -15.2525388           15.8820728            0.6295340
 Dipole Z            :        -30.8069730           31.1814921            0.3745191
 Magnitude           :                                                    0.7426940
  Basis Set: (AUG-CC-PVTZ AUX)
    Blend: AUG-CC-PVTZ-RI + DEF2-QZVPP-RI
	 Reference Energy          =     -76.0571515561220792 [Eh]
	 Singles Energy            =      -0.0000000000000000 [Eh]
	 Same-Spin Energy          =      -0.0683844112987526 [Eh]
	 Opposite-Spin Energy      =      -0.2159479802844755 [Eh]
	 Correlation Energy        =      -0.2843323915832282 [Eh]
	 Total Energy              =     -76.3414839477053135 [Eh]

	 ================> DF-SCS-MP2 Energies <==================
	-----------------------------------------------------------
	 SCS Same-Spin Scale       =       0.3333333333333333 [-]
	 SCS Opposite-Spin Scale   =       1.2000000000000000 [-]
	 SCS Same-Spin Energy      =      -0.0227948037662509 [Eh]
	 SCS Opposite-Spin Energy  =      -0.2591375763413706 [Eh]
	 SCS Correlation Energy    =      -0.2819323801076215 [Eh]
	 SCS Total Energy          =     -76.3390839362296987 [Eh]
	-----------------------------------------------------------

*** Psi4 exiting successfully. Buy a developer a beer!
