                               Psi4 1.8.2 release

  ==> Input File <==

--------------------------------------------------------------------------
MEMORY 60 GB

molecule dimer {
1 1
Li         0.000000     0.000000     0.000000
O          1.276765     0.545153     1.397121
H          1.439625    -0.293000     1.863141
H          1.756552     1.287598     1.849105
O          0.409922     1.229791    -1.545668
H          1.146667     1.129525    -2.203588
H         -0.234316     1.541034    -2.202116
O         -1.716144     0.282187     0.825118
H         -2.643062     0.455413     0.501701
H         -1.848891    -0.348811     1.525324
O          0.520377    -1.745389    -0.656277
H         -0.250082    -2.060907    -1.141392
H          0.808173    -2.502960    -0.080864

units ang
no_reorient
no_com
symmetry c1
}

set {
basis        aug-cc-pVTZ
scf_type     df
}

energy("mp2")
--------------------------------------------------------------------------

    Molecular point group: c1

    Geometry (in Angstrom), charge = 1, multiplicity = 1:

       Center              X                  Y                   Z               Mass
    ------------   -----------------  -----------------  -----------------  -----------------
         LI           0.000000000000     0.000000000000     0.000000000000     7.016003436600
         O            1.276765000000     0.545153000000     1.397121000000    15.994914619570
         H            1.439625000000    -0.293000000000     1.863141000000     1.007825032230
         H            1.756552000000     1.287598000000     1.849105000000     1.007825032230
         O            0.409922000000     1.229791000000    -1.545668000000    15.994914619570
         H            1.146667000000     1.129525000000    -2.203588000000     1.007825032230
         H           -0.234316000000     1.541034000000    -2.202116000000     1.007825032230
         O           -1.716144000000     0.282187000000     0.825118000000    15.994914619570
         H           -2.643062000000     0.455413000000     0.501701000000     1.007825032230
         H           -1.848891000000    -0.348811000000     1.525324000000     1.007825032230
         O            0.520377000000    -1.745389000000    -0.656277000000    15.994914619570
         H           -0.250082000000    -2.060907000000    -1.141392000000     1.007825032230
         H            0.808173000000    -2.502960000000    -0.080864000000     1.007825032230

  Charge       = 1
  Multiplicity = 1
  Basis Set: AUG-CC-PVTZ
    Blend: AUG-CC-PVTZ
  Basis Set: (AUG-CC-PVTZ AUX)
    Blend: AUG-CC-PVTZ-JKFIT + DEF2-UNIVERSAL-JKFIT

    Orbital Energies [Eh]
    ---------------------

    Doubly Occupied:

       1A    -20.757748     2A    -20.752573     3A    -20.738745
       4A    -20.737374     5A     -2.531442     6A     -1.536270
       7A     -1.534589     8A     -1.516611     9A     -1.511711
      10A     -0.900474    11A     -0.891972    12A     -0.886004
      13A     -0.850645    14A     -0.796056    15A     -0.788365
      16A     -0.778246    17A     -0.756925    18A     -0.711157
      19A     -0.696698    20A     -0.681915    21A     -0.680247

  @DF-RHF Final Energy:  -311.61703543962932

   => Energetics <=

    Nuclear Repulsion Energy =            161.1387764616004290
    One-Electron Energy =                -743.4400843482853816
    Two-Electron Energy =                 270.6842724470556618
    Total Energy =                       -311.6170354396293192
 Dipole X            :         -8.2216981            7.7517057           -0.4699924
 Dipole Y            :         -4.0969270            3.2159888           -0.8809382
 Dipole Z            :         -0.4368809            0.5171481            0.0802672
 Magnitude           :                                                    1.0016924
  Basis Set: (AUG-CC-PVTZ AUX)
    Blend: AUG-CC-PVTZ-RI + DEF2-QZVPP-RI
	 Reference Energy          =    -311.6170354396293192 [Eh]
	 Singles Energy            =      -0.0000000000000000 [Eh]
	 Same-Spin Energy          =      -0.2767816666685553 [Eh]
	 Opposite-Spin Energy      =      -0.8823115297777240 [Eh]
	 Correlation Energy        =      -1.1590931964462792 [Eh]
	 Total Energy              =    -312.7761286360756117 [Eh]

	 ================> DF-SCS-MP2 Energies <==================
	-----------------------------------------------------------
	 SCS Same-Spin Scale       =       0.3333333333333333 [-]
	 SCS Opposite-Spin Scale   =       1.2000000000000000 [-]
	 SCS Same-Spin Energy      =      -0.0922605555561851 [Eh]
	 SCS Opposite-Spin Energy  =      -1.0587738357332688 [Eh]
	 SCS Correlation Energy    =      -1.1510343912894538 [Eh]
	 SCS Total Energy          =    -312.7680698309187619 [Eh]
	-----------------------------------------------------------

*** Psi4 exiting successfully. Buy a developer a beer!
