                               Psi4 1.8.2 release

  ==> Input File <==

--------------------------------------------------------------------------
MEMORY 60 GB

molecule dimer {
1 1
Li         0.000000     0.000000     0.000000
O         -1.498553    -0.172311    -1.210425
H         -2.174307     0.521597    -1.476675
H         -1.991752    -1.002923    -1.332405
O         -0.367263     1.242081     1.322828
H         -0.175908     2.107081     0.882067
H         -0.029996     1.416719     2.241664
O          0.117002    -1.599248     1.214210
H         -0.543417    -1.979387     1.825647
H          0.867799    -2.228187     1.292257

units ang
no_reorient
no_com
symmetry c1
}

set {
basis        aug-cc-pVTZ
scf_type     df
}

energy("mp2")
--------------------------------------------------------------------------

    Molecular point group: c1

    Geometry (in Angstrom), charge = 1, multiplicity = 1:

       Center              X                  Y                   Z               Mass
    ------------   -----------------  -----------------  -----------------  -----------------
         LI           0.000000000000     0.000000000000     0.000000000000     7.016003436600
         O           -1.498553000000    -0.172311000000    -1.210425000000    15.994914619570
         H           -2.174307000000     0.521597000000    -1.476675000000     1.007825032230
         H           -1.991752000000    -1.002923000000    -1.332405000000     1.007825032230
         O           -0.367263000000     1.242081000000     1.322828000000    15.994914619570
         H           -0.175908000000     2.107081000000     0.882067000000     1.007825032230
         H           -0.029996000000     1.416719000000     2.241664000000     1.007825032230
         O            0.117002000000    -1.599248000000     1.214210000000    15.994914619570
         H           -0.543417000000    -1.979387000000     1.825647000000     1.007825032230
         H            0.867799000000    -2.228187000000     1.292257000000     1.007825032230

  Charge       = 1
  Multiplicity = 1
  Basis Set: AUG-CC-PVTZ
    Blend: AUG-CC-PVTZ
  Basis Set: (AUG-CC-PVTZ AUX)
    Blend: AUG-CC-PVTZ-JKFIT + DEF2-UNIVERSAL-JKFIT

    Orbital Energies [Eh]
    ---------------------

    Doubly Occupied:

       1A    -20.769280     2A    -20.762548     3A    -20.757006
       4A     -2.577796     5A     -1.542908     6A     -1.534750
       7A     -1.533383     8A     -0.895818     9A     -0.889628
      10A     -0.888353    11A     -0.815175    12A     -0.799031
      13A     -0.787249    14A     -0.718793    15A     -0.705006
      16A     -0.698424

  @DF-RHF Final Energy:  -235.53573170413463

   => Energetics <=

    Nuclear Repulsion Energy =             98.8237597528275558
    One-Electron Energy =                -515.3686831388084784
    Two-Electron Energy =                 181.0091916818463176
    Total Energy =                       -235.5357317041346334
 Dipole X            :         33.4005873          -34.0870556           -0.6864683
 Dipole Y            :         10.0530298          -10.2062672           -0.1532374
 Dipole Z            :        -25.7503704           26.5420708            0.7917004
 Magnitude           :                                                    1.0590137
  Basis Set: (AUG-CC-PVTZ AUX)
    Blend: AUG-CC-PVTZ-RI + DEF2-QZVPP-RI
	 Reference Energy          =    -235.5357317041346334 [Eh]
	 Singles Energy            =      -0.0000000000000000 [Eh]
	 Same-Spin Energy          =      -0.2072429048402665 [Eh]
	 Opposite-Spin Energy      =      -0.6641956962041756 [Eh]
	 Correlation Energy        =      -0.8714386010444422 [Eh]
	 Total Energy              =    -236.4071703051790792 [Eh]

	 ================> DF-SCS-MP2 Energies <==================
	-----------------------------------------------------------
	 SCS Same-Spin Scale       =       0.3333333333333333 [-]
	 SCS Opposite-Spin Scale   =       1.2000000000000000 [-]
	 SCS Same-Spin Energy      =      -0.0690809682800888 [Eh]
	 SCS Opposite-Spin Energy  =      -0.7970348354450107 [Eh]
	 SCS Correlation Energy    =      -0.8661158037250996 [Eh]
	 SCS Total Energy          =    -236.4018475078597419 [Eh]
	-----------------------------------------------------------

*** Psi4 exiting successfully. Buy a developer a beer!
