                               Psi4 1.9 release

  ==> Input File <==

--------------------------------------------------------------------------
MEMORY 60 GB

molecule dimer {
1 1
Li     0.000000     0.000000     0.000000
--
0 1
O      1.624676     0.930347    -0.687789
H      1.665506     1.787976    -0.163954
H      2.371292     0.410789    -0.401384
O      1.173391    -1.680161    -0.212338
H      2.036435    -1.610877    -0.690179
H      0.993748    -2.598798    -0.378489
O     -1.459926     0.080801    -0.837685
H     -1.519684     0.169931    -1.784495
H     -2.009970    -0.641099    -0.565310
O     -0.236587    -0.097317     1.963066
H      0.470180    -0.606954     2.365849
H     -0.104803     0.790192     2.342656

units ang
no_reorient
no_com
symmetry c1
}

set {
basis        aug-cc-pVTZ
scf_type     df
}

energy("mp2", bsse_type="cp")
--------------------------------------------------------------------------

                               Psi4 1.9 release
    Molecular point group: c1
  Charge       = 0
  Multiplicity = 1
  Basis Set: AUG-CC-PVTZ
    Blend: AUG-CC-PVTZ
  Basis Set: (AUG-CC-PVTZ AUX)
    Blend: AUG-CC-PVTZ-JKFIT + DEF2-UNIVERSAL-JKFIT
  @DF-RHF Final Energy:  -304.21163070809666
    Total Energy =                       -304.2116307080966635
 Dipole X            :        -23.0235019           24.0281247            1.0046228
 Dipole Y            :         15.4017240          -15.9294086           -0.5276845
 Dipole Z            :         -4.6273126            4.7748201            0.1475076
 Magnitude           :                                                    1.1443236
  Basis Set: (AUG-CC-PVTZ AUX)
    Blend: AUG-CC-PVTZ-RI + DEF2-QZVPP-RI
	 Reference Energy          =    -304.2116307080966635 [Eh]
	 Singles Energy            =      -0.0000000000000000 [Eh]
	 Same-Spin Energy          =      -0.2781369130435620 [Eh]
	 Opposite-Spin Energy      =      -0.8712023017751733 [Eh]
	 Correlation Energy        =      -1.1493392148187354 [Eh]
	 Total Energy              =    -305.3609699229153875 [Eh]
	 SCS Total Energy          =    -305.3497857745747410 [Eh]
                               Psi4 1.9 release
    Molecular point group: c1
  Multiplicity = 1
  Basis Set: AUG-CC-PVTZ
    Blend: AUG-CC-PVTZ
  Basis Set: (AUG-CC-PVTZ AUX)
    Blend: AUG-CC-PVTZ-JKFIT + DEF2-UNIVERSAL-JKFIT
  @DF-RHF Final Energy:    -7.23638488474431
    Total Energy =                         -7.2363848847443126
  Basis Set: (AUG-CC-PVTZ AUX)
	 Singles Energy            =      -0.0000000000000000 [Eh]
	 Same-Spin Energy          =      -0.0000000000000000 [Eh]
	 Opposite-Spin Energy      =      -0.0173680345879188 [Eh]
	 Correlation Energy        =      -0.0173680345879188 [Eh]
	 Total Energy              =      -7.2537529193322312 [Eh]
	 SCS Total Energy          =      -7.2572265262498155 [Eh]
                               Psi4 1.9 release
    Molecular point group: c1

    Geometry (in Bohr), charge = 1, multiplicity = 1:

       Center              X                  Y                   Z               Mass
    ------------   -----------------  -----------------  -----------------  -----------------
         LI           0.000000000000     0.000000000000     0.000000000000     7.016003436600
         O            3.070192682604     1.758101031641    -1.299732842103    15.994914619570
         H            3.147350200307     3.378784958892    -0.309828157173     1.007825032230
         H            4.481092443489     0.776278705351    -0.758505831141     1.007825032230
         O            2.217387628077    -3.175044136675    -0.401260666027    15.994914619570
         H            3.848304422297    -3.044116351799    -1.304249287542     1.007825032230
         H            1.877911557721    -4.911016475388    -0.715240551498     1.007825032230
         O           -2.758860303435     0.152691760663    -1.582995229404    15.994914619570
         H           -2.871786557240     0.321123050225    -3.372206822249     1.007825032230
         H           -3.798292820386    -1.211501529305    -1.068281075983     1.007825032230
         O           -0.447084634844    -0.183902477351     3.709657106198    15.994914619570
         H            0.888511429668    -1.146976830751     4.470806664188     1.007825032230
         H           -0.198048967126     1.493246466528     4.426978246161     1.007825032230

  Charge       = 1
  Multiplicity = 1
  Basis Set: AUG-CC-PVTZ
    Blend: AUG-CC-PVTZ
  Basis Set: (AUG-CC-PVTZ AUX)
    Blend: AUG-CC-PVTZ-JKFIT + DEF2-UNIVERSAL-JKFIT

    Orbital Energies [Eh]
    ---------------------

    Doubly Occupied:

       1A    -20.757670     2A    -20.757381     3A    -20.752992
       4A    -20.751506     5A     -2.530462     6A     -1.555689
       7A     -1.546292     8A     -1.537050     9A     -1.533464
      10A     -0.926319    11A     -0.913851    12A     -0.893402
      13A     -0.877217    14A     -0.806573    15A     -0.802135
      16A     -0.781743    17A     -0.774467    18A     -0.720585
      19A     -0.711165    20A     -0.702996    21A     -0.696084

  @DF-RHF Final Energy:  -311.60992832548794

   => Energetics <=

    Nuclear Repulsion Energy =            166.6888824534733544
    One-Electron Energy =                -753.9395335962183253
    Two-Electron Energy =                 275.6407228172570854
    Total Energy =                       -311.6099283254879424
 Dipole X            :        -22.8432564           24.0281247            1.1848683
 Dipole Y            :         15.2705854          -15.9294086           -0.6588232
 Dipole Z            :         -4.6157482            4.7748201            0.1590720
 Magnitude           :                                                    1.3650146
  Basis Set: (AUG-CC-PVTZ AUX)
    Blend: AUG-CC-PVTZ-RI + DEF2-QZVPP-RI
	 Reference Energy          =    -311.6099283254879424 [Eh]
	 Singles Energy            =      -0.0000000000000000 [Eh]
	 Same-Spin Energy          =      -0.2765611421027621 [Eh]
	 Opposite-Spin Energy      =      -0.8807889459939404 [Eh]
	 Correlation Energy        =      -1.1573500880967025 [Eh]
	 Total Energy              =    -312.7672784135846200 [Eh]

	 ================> DF-SCS-MP2 Energies <==================
	-----------------------------------------------------------
	 SCS Same-Spin Scale       =       0.3333333333333333 [-]
	 SCS Opposite-Spin Scale   =       1.2000000000000000 [-]
	 SCS Same-Spin Energy      =      -0.0921870473675873 [Eh]
	 SCS Opposite-Spin Energy  =      -1.0569467351927284 [Eh]
	 SCS Correlation Energy    =      -1.1491337825603158 [Eh]
	 SCS Total Energy          =    -312.7590621080482833 [Eh]
	-----------------------------------------------------------

*** Psi4 exiting successfully. Buy a developer a beer!
