                               Psi4 1.8.2 release

  ==> Input File <==

--------------------------------------------------------------------------
MEMORY 60 GB

molecule dimer {
0 1
Gh(Li)     0.000000     0.000000     0.000000
O          1.650053    -0.530993    -1.064242
H          2.392035    -0.101949    -0.686952
H          1.463285    -0.258144    -1.959656
Gh(O)     -0.289415    -0.712498     1.685242
Gh(H)     -1.101029    -0.657522     2.234823
Gh(H)     -0.070434    -1.611500     1.899930
Gh(O)      0.217487     1.895362     0.182598
Gh(H)     -0.273195     2.192923     0.988240
Gh(H)      1.131525     2.307122     0.234605
Gh(O)     -1.285096    -0.509246    -1.306926
Gh(H)     -0.917246    -0.560268    -2.152485
Gh(H)     -1.585156    -1.421720    -1.166242

units ang
no_reorient
no_com
symmetry c1
}

set {
basis        aug-cc-pVTZ
scf_type     df
}

energy("mp2")
--------------------------------------------------------------------------

    Molecular point group: c1

    Geometry (in Angstrom), charge = 0, multiplicity = 1:

       Center              X                  Y                   Z               Mass
    ------------   -----------------  -----------------  -----------------  -----------------
      Gh(LI)          0.000000000000     0.000000000000     0.000000000000     7.016003436600
         O            1.650053000000    -0.530993000000    -1.064242000000    15.994914619570
         H            2.392035000000    -0.101949000000    -0.686952000000     1.007825032230
         H            1.463285000000    -0.258144000000    -1.959656000000     1.007825032230
      Gh(O)          -0.289415000000    -0.712498000000     1.685242000000    15.994914619570
      Gh(H)          -1.101029000000    -0.657522000000     2.234823000000     1.007825032230
      Gh(H)          -0.070434000000    -1.611500000000     1.899930000000     1.007825032230
      Gh(O)           0.217487000000     1.895362000000     0.182598000000    15.994914619570
      Gh(H)          -0.273195000000     2.192923000000     0.988240000000     1.007825032230
      Gh(H)           1.131525000000     2.307122000000     0.234605000000     1.007825032230
      Gh(O)          -1.285096000000    -0.509246000000    -1.306926000000    15.994914619570
      Gh(H)          -0.917246000000    -0.560268000000    -2.152485000000     1.007825032230
      Gh(H)          -1.585156000000    -1.421720000000    -1.166242000000     1.007825032230

  Charge       = 0
  Multiplicity = 1
  Basis Set: AUG-CC-PVTZ
    Blend: AUG-CC-PVTZ
  Basis Set: (AUG-CC-PVTZ AUX)
    Blend: AUG-CC-PVTZ-JKFIT + DEF2-UNIVERSAL-JKFIT

    Orbital Energies [Eh]
    ---------------------

    Doubly Occupied:

       1A    -20.560686     2A     -1.353228     3A     -0.741401
       4A     -0.569226     5A     -0.508611

  @DF-RHF Final Energy:   -76.05968503426426

   => Energetics <=

    Nuclear Repulsion Energy =              9.2900337676073566
    One-Electron Energy =                -123.2331307002416452
    Two-Electron Energy =                  37.8834118983700279
    Total Energy =                        -76.0596850342642625
 Dipole X            :        -31.8461489           32.2306850            0.3845361
 Dipole Y            :          9.1922966           -8.7079279            0.4843687
 Dipole Z            :         20.7346168          -21.0903716           -0.3557548
 Magnitude           :                                                    0.7134722
  Basis Set: (AUG-CC-PVTZ AUX)
    Blend: AUG-CC-PVTZ-RI + DEF2-QZVPP-RI
	 Reference Energy          =     -76.0596850342642625 [Eh]
	 Singles Energy            =      -0.0000000000000000 [Eh]
	 Same-Spin Energy          =      -0.0681543594001509 [Eh]
	 Opposite-Spin Energy      =      -0.2150754674474624 [Eh]
	 Correlation Energy        =      -0.2832298268476132 [Eh]
	 Total Energy              =     -76.3429148611118791 [Eh]

	 ================> DF-SCS-MP2 Energies <==================
	-----------------------------------------------------------
	 SCS Same-Spin Scale       =       0.3333333333333333 [-]
	 SCS Opposite-Spin Scale   =       1.2000000000000000 [-]
	 SCS Same-Spin Energy      =      -0.0227181198000503 [Eh]
	 SCS Opposite-Spin Energy  =      -0.2580905609369548 [Eh]
	 SCS Correlation Energy    =      -0.2808086807370051 [Eh]
	 SCS Total Energy          =     -76.3404937150012728 [Eh]
	-----------------------------------------------------------

*** Psi4 exiting successfully. Buy a developer a beer!
