                               Psi4 1.8.2 release

  ==> Input File <==

--------------------------------------------------------------------------
MEMORY 60 GB

molecule dimer {
0 1
Gh(Li)     0.000000     0.000000     0.000000
Gh(O)      1.698581     0.435696     0.558593
Gh(H)      2.237527    -0.300337     0.974783
Gh(H)      2.088861     0.477432    -0.359968
O         -0.602134     1.603987    -1.055512
H         -0.019972     1.873754    -1.758661
H         -1.470926     1.622158    -1.464541
Gh(O)      0.090460    -1.221032    -1.273457
Gh(H)      0.943707    -1.644678    -1.158743
Gh(H)     -0.580198    -1.847887    -1.056551
Gh(O)     -1.504258    -0.347888     1.383059
Gh(H)     -1.261637    -0.488613     2.322452
Gh(H)     -1.997552    -1.132669     1.067802

units ang
no_reorient
no_com
symmetry c1
}

set {
basis        aug-cc-pVTZ
scf_type     df
}

energy("mp2")
--------------------------------------------------------------------------

    Molecular point group: c1

    Geometry (in Angstrom), charge = 0, multiplicity = 1:

       Center              X                  Y                   Z               Mass
    ------------   -----------------  -----------------  -----------------  -----------------
      Gh(LI)          0.000000000000     0.000000000000     0.000000000000     7.016003436600
      Gh(O)           1.698581000000     0.435696000000     0.558593000000    15.994914619570
      Gh(H)           2.237527000000    -0.300337000000     0.974783000000     1.007825032230
      Gh(H)           2.088861000000     0.477432000000    -0.359968000000     1.007825032230
         O           -0.602134000000     1.603987000000    -1.055512000000    15.994914619570
         H           -0.019972000000     1.873754000000    -1.758661000000     1.007825032230
         H           -1.470926000000     1.622158000000    -1.464541000000     1.007825032230
      Gh(O)           0.090460000000    -1.221032000000    -1.273457000000    15.994914619570
      Gh(H)           0.943707000000    -1.644678000000    -1.158743000000     1.007825032230
      Gh(H)          -0.580198000000    -1.847887000000    -1.056551000000     1.007825032230
      Gh(O)          -1.504258000000    -0.347888000000     1.383059000000    15.994914619570
      Gh(H)          -1.261637000000    -0.488613000000     2.322452000000     1.007825032230
      Gh(H)          -1.997552000000    -1.132669000000     1.067802000000     1.007825032230

  Charge       = 0
  Multiplicity = 1
  Basis Set: AUG-CC-PVTZ
    Blend: AUG-CC-PVTZ
  Basis Set: (AUG-CC-PVTZ AUX)
    Blend: AUG-CC-PVTZ-JKFIT + DEF2-UNIVERSAL-JKFIT

    Orbital Energies [Eh]
    ---------------------

    Doubly Occupied:

       1A    -20.567209     2A     -1.354786     3A     -0.716299
       4A     -0.587046     5A     -0.510709

  @DF-RHF Final Energy:   -76.06068039087381

   => Energetics <=

    Nuclear Repulsion Energy =              9.2075574511418345
    One-Electron Energy =                -123.0643748941567708
    Two-Electron Energy =                  37.7961370521411126
    Total Energy =                        -76.0606803908738129
 Dipole X            :         11.7316324          -11.9203357           -0.1887033
 Dipole Y            :        -30.6636214           30.8550853            0.1914640
 Dipole Z            :         21.3099272          -22.0479978           -0.7380707
 Magnitude           :                                                    0.7855035
  Basis Set: (AUG-CC-PVTZ AUX)
    Blend: AUG-CC-PVTZ-RI + DEF2-QZVPP-RI
	 Reference Energy          =     -76.0606803908738129 [Eh]
	 Singles Energy            =      -0.0000000000000000 [Eh]
	 Same-Spin Energy          =      -0.0684268704541867 [Eh]
	 Opposite-Spin Energy      =      -0.2159633414297328 [Eh]
	 Correlation Energy        =      -0.2843902118839194 [Eh]
	 Total Energy              =     -76.3450706027577297 [Eh]

	 ================> DF-SCS-MP2 Energies <==================
	-----------------------------------------------------------
	 SCS Same-Spin Scale       =       0.3333333333333333 [-]
	 SCS Opposite-Spin Scale   =       1.2000000000000000 [-]
	 SCS Same-Spin Energy      =      -0.0228089568180622 [Eh]
	 SCS Opposite-Spin Energy  =      -0.2591560097156793 [Eh]
	 SCS Correlation Energy    =      -0.2819649665337415 [Eh]
	 SCS Total Energy          =     -76.3426453574075481 [Eh]
	-----------------------------------------------------------

*** Psi4 exiting successfully. Buy a developer a beer!
