                               Psi4 1.8.2 release

  ==> Input File <==

--------------------------------------------------------------------------
MEMORY 60 GB

molecule dimer {
0 1
Gh(Li)     0.000000     0.000000     0.000000
O          1.559703    -0.841487     0.540327
H          1.536049    -1.800076     0.875428
H          2.332392    -0.765268    -0.044245
Gh(O)      0.510627     1.846312     0.670480
Gh(H)     -0.180696     2.157729     1.332101
Gh(H)      1.456462     2.205848     0.908097
Gh(O)     -0.805083    -0.528639    -1.542551
Gh(H)     -1.443239     0.055871    -2.007726
Gh(H)     -0.144858    -0.758380    -2.221599

units ang
no_reorient
no_com
symmetry c1
}

set {
basis        aug-cc-pVTZ
scf_type     df
}

energy("mp2")
--------------------------------------------------------------------------

    Molecular point group: c1

    Geometry (in Angstrom), charge = 0, multiplicity = 1:

       Center              X                  Y                   Z               Mass
    ------------   -----------------  -----------------  -----------------  -----------------
      Gh(LI)          0.000000000000     0.000000000000     0.000000000000     7.016003436600
         O            1.559703000000    -0.841487000000     0.540327000000    15.994914619570
         H            1.536049000000    -1.800076000000     0.875428000000     1.007825032230
         H            2.332392000000    -0.765268000000    -0.044245000000     1.007825032230
      Gh(O)           0.510627000000     1.846312000000     0.670480000000    15.994914619570
      Gh(H)          -0.180696000000     2.157729000000     1.332101000000     1.007825032230
      Gh(H)           1.456462000000     2.205848000000     0.908097000000     1.007825032230
      Gh(O)          -0.805083000000    -0.528639000000    -1.542551000000    15.994914619570
      Gh(H)          -1.443239000000     0.055871000000    -2.007726000000     1.007825032230
      Gh(H)          -0.144858000000    -0.758380000000    -2.221599000000     1.007825032230

  Charge       = 0
  Multiplicity = 1
  Basis Set: AUG-CC-PVTZ
    Blend: AUG-CC-PVTZ
  Basis Set: (AUG-CC-PVTZ AUX)
    Blend: AUG-CC-PVTZ-JKFIT + DEF2-UNIVERSAL-JKFIT

    Orbital Energies [Eh]
    ---------------------

    Doubly Occupied:

       1A    -20.572028     2A     -1.334220     3A     -0.702562
       4A     -0.573062     5A     -0.506714

  @DF-RHF Final Energy:   -76.05500733996554

   => Energetics <=

    Nuclear Repulsion Energy =              8.8549472543436938
    One-Electron Energy =                -122.4427343731465072
    Two-Electron Energy =                  37.5327797788372663
    Total Energy =                        -76.0550073399655417
 Dipole X            :        -30.3955343           30.8895861            0.4940517
 Dipole Y            :         16.9960405          -17.5692373           -0.5731968
 Dipole Z            :         -9.9064417            9.7392686           -0.1671731
 Magnitude           :                                                    0.7749765
  Basis Set: (AUG-CC-PVTZ AUX)
    Blend: AUG-CC-PVTZ-RI + DEF2-QZVPP-RI
	 Reference Energy          =     -76.0550073399655417 [Eh]
	 Singles Energy            =      -0.0000000000000000 [Eh]
	 Same-Spin Energy          =      -0.0690101666228569 [Eh]
	 Opposite-Spin Energy      =      -0.2177733714638000 [Eh]
	 Correlation Energy        =      -0.2867835380866569 [Eh]
	 Total Energy              =     -76.3417908780521941 [Eh]

	 ================> DF-SCS-MP2 Energies <==================
	-----------------------------------------------------------
	 SCS Same-Spin Scale       =       0.3333333333333333 [-]
	 SCS Opposite-Spin Scale   =       1.2000000000000000 [-]
	 SCS Same-Spin Energy      =      -0.0230033888742856 [Eh]
	 SCS Opposite-Spin Energy  =      -0.2613280457565600 [Eh]
	 SCS Correlation Energy    =      -0.2843314346308456 [Eh]
	 SCS Total Energy          =     -76.3393387745963850 [Eh]
	-----------------------------------------------------------

*** Psi4 exiting successfully. Buy a developer a beer!
