                               Psi4 1.8.2 release

  ==> Input File <==

--------------------------------------------------------------------------
MEMORY 60 GB

molecule dimer {
0 1
Gh(Li)     0.000000     0.000000     0.000000
Gh(O)     -1.959429     0.551722    -0.115906
Gh(H)     -2.501903     1.114878     0.470899
Gh(H)     -2.703678     0.065273    -0.568937
Gh(O)      0.234542    -1.408943     1.091451
Gh(H)     -0.520325    -2.028104     0.922529
Gh(H)      0.330550    -1.475194     2.088232
Gh(O)      0.911987     1.610117     0.968941
Gh(H)      1.448281     1.554265     1.803833
Gh(H)      1.223738     2.292862     0.375246
O          0.842688     0.233769    -1.798413
H          0.637542    -0.124408    -2.680969
H          1.557305     0.923962    -1.781956

units ang
no_reorient
no_com
symmetry c1
}

set {
basis        aug-cc-pVTZ
scf_type     df
}

energy("mp2")
--------------------------------------------------------------------------

    Molecular point group: c1

    Geometry (in Angstrom), charge = 0, multiplicity = 1:

       Center              X                  Y                   Z               Mass
    ------------   -----------------  -----------------  -----------------  -----------------
      Gh(LI)          0.000000000000     0.000000000000     0.000000000000     7.016003436600
      Gh(O)          -1.959429000000     0.551722000000    -0.115906000000    15.994914619570
      Gh(H)          -2.501903000000     1.114878000000     0.470899000000     1.007825032230
      Gh(H)          -2.703678000000     0.065273000000    -0.568937000000     1.007825032230
      Gh(O)           0.234542000000    -1.408943000000     1.091451000000    15.994914619570
      Gh(H)          -0.520325000000    -2.028104000000     0.922529000000     1.007825032230
      Gh(H)           0.330550000000    -1.475194000000     2.088232000000     1.007825032230
      Gh(O)           0.911987000000     1.610117000000     0.968941000000    15.994914619570
      Gh(H)           1.448281000000     1.554265000000     1.803833000000     1.007825032230
      Gh(H)           1.223738000000     2.292862000000     0.375246000000     1.007825032230
         O            0.842688000000     0.233769000000    -1.798413000000    15.994914619570
         H            0.637542000000    -0.124408000000    -2.680969000000     1.007825032230
         H            1.557305000000     0.923962000000    -1.781956000000     1.007825032230

  Charge       = 0
  Multiplicity = 1
  Basis Set: AUG-CC-PVTZ
    Blend: AUG-CC-PVTZ
  Basis Set: (AUG-CC-PVTZ AUX)
    Blend: AUG-CC-PVTZ-JKFIT + DEF2-UNIVERSAL-JKFIT

    Orbital Energies [Eh]
    ---------------------

    Doubly Occupied:

       1A    -20.566415     2A     -1.333334     3A     -0.721080
       4A     -0.559903     5A     -0.504769

  @DF-RHF Final Energy:   -76.05497774259739

   => Energetics <=

    Nuclear Repulsion Energy =              8.9244835274704997
    One-Electron Energy =                -122.5879175776837542
    Two-Electron Energy =                  37.6084563076158531
    Total Energy =                        -76.0549777425974014
 Dipole X            :        -16.5441598           16.8872560            0.3430961
 Dipole Y            :         -4.8220018            5.0450132            0.2230114
 Dipole Z            :         35.0352437          -35.6217702           -0.5865265
 Magnitude           :                                                    0.7151660
  Basis Set: (AUG-CC-PVTZ AUX)
    Blend: AUG-CC-PVTZ-RI + DEF2-QZVPP-RI
	 Reference Energy          =     -76.0549777425973872 [Eh]
	 Singles Energy            =      -0.0000000000000000 [Eh]
	 Same-Spin Energy          =      -0.0688039484260212 [Eh]
	 Opposite-Spin Energy      =      -0.2169478756366992 [Eh]
	 Correlation Energy        =      -0.2857518240627204 [Eh]
	 Total Energy              =     -76.3407295666601016 [Eh]

	 ================> DF-SCS-MP2 Energies <==================
	-----------------------------------------------------------
	 SCS Same-Spin Scale       =       0.3333333333333333 [-]
	 SCS Opposite-Spin Scale   =       1.2000000000000000 [-]
	 SCS Same-Spin Energy      =      -0.0229346494753404 [Eh]
	 SCS Opposite-Spin Energy  =      -0.2603374507640390 [Eh]
	 SCS Correlation Energy    =      -0.2832721002393794 [Eh]
	 SCS Total Energy          =     -76.3382498428367597 [Eh]
	-----------------------------------------------------------

*** Psi4 exiting successfully. Buy a developer a beer!
