                               Psi4 1.8.2 release

  ==> Input File <==

--------------------------------------------------------------------------
MEMORY 60 GB

molecule dimer {
0 1
Gh(Li)     0.000000     0.000000     0.000000
Gh(O)     -0.572571     1.726043     0.455178
Gh(H)     -1.087826     2.378042     0.937786
Gh(H)      0.159044     2.237056     0.025785
O          0.941273    -0.777166     1.652463
H          0.784326    -1.744419     1.387688
H          0.345499    -0.483212     2.382628
Gh(O)      1.123724     0.106542    -1.672682
Gh(H)      1.108221     0.674321    -2.471162
Gh(H)      1.738415    -0.641429    -2.005010
Gh(O)     -1.285911    -1.203424    -0.729095
Gh(H)     -1.453579    -1.473990    -1.654808
Gh(H)     -2.103778    -1.340655    -0.244827

units ang
no_reorient
no_com
symmetry c1
}

set {
basis        aug-cc-pVTZ
scf_type     df
}

energy("mp2")
--------------------------------------------------------------------------

    Molecular point group: c1

    Geometry (in Angstrom), charge = 0, multiplicity = 1:

       Center              X                  Y                   Z               Mass
    ------------   -----------------  -----------------  -----------------  -----------------
      Gh(LI)          0.000000000000     0.000000000000     0.000000000000     7.016003436600
      Gh(O)          -0.572571000000     1.726043000000     0.455178000000    15.994914619570
      Gh(H)          -1.087826000000     2.378042000000     0.937786000000     1.007825032230
      Gh(H)           0.159044000000     2.237056000000     0.025785000000     1.007825032230
         O            0.941273000000    -0.777166000000     1.652463000000    15.994914619570
         H            0.784326000000    -1.744419000000     1.387688000000     1.007825032230
         H            0.345499000000    -0.483212000000     2.382628000000     1.007825032230
      Gh(O)           1.123724000000     0.106542000000    -1.672682000000    15.994914619570
      Gh(H)           1.108221000000     0.674321000000    -2.471162000000     1.007825032230
      Gh(H)           1.738415000000    -0.641429000000    -2.005010000000     1.007825032230
      Gh(O)          -1.285911000000    -1.203424000000    -0.729095000000    15.994914619570
      Gh(H)          -1.453579000000    -1.473990000000    -1.654808000000     1.007825032230
      Gh(H)          -2.103778000000    -1.340655000000    -0.244827000000     1.007825032230

  Charge       = 0
  Multiplicity = 1
  Basis Set: AUG-CC-PVTZ
    Blend: AUG-CC-PVTZ
  Basis Set: (AUG-CC-PVTZ AUX)
    Blend: AUG-CC-PVTZ-JKFIT + DEF2-UNIVERSAL-JKFIT

    Orbital Energies [Eh]
    ---------------------

    Doubly Occupied:

       1A    -20.570396     2A     -1.327007     3A     -0.707826
       4A     -0.561205     5A     -0.504259

  @DF-RHF Final Energy:   -76.05242387447039

   => Energetics <=

    Nuclear Repulsion Energy =              8.7768986864557590
    One-Electron Energy =                -122.3172565153549556
    Two-Electron Energy =                  37.4879339544288257
    Total Energy =                        -76.0524238744703780
 Dipole X            :        -16.8649266           16.3650453           -0.4998813
 Dipole Y            :         15.5147741          -15.9586597           -0.4438855
 Dipole Z            :        -31.7956273           32.1064847            0.3108573
 Magnitude           :                                                    0.7372571
  Basis Set: (AUG-CC-PVTZ AUX)
    Blend: AUG-CC-PVTZ-RI + DEF2-QZVPP-RI
	 Reference Energy          =     -76.0524238744703922 [Eh]
	 Singles Energy            =      -0.0000000000000000 [Eh]
	 Same-Spin Energy          =      -0.0690973162885395 [Eh]
	 Opposite-Spin Energy      =      -0.2180239134331020 [Eh]
	 Correlation Energy        =      -0.2871212297216415 [Eh]
	 Total Energy              =     -76.3395451041920268 [Eh]

	 ================> DF-SCS-MP2 Energies <==================
	-----------------------------------------------------------
	 SCS Same-Spin Scale       =       0.3333333333333333 [-]
	 SCS Opposite-Spin Scale   =       1.2000000000000000 [-]
	 SCS Same-Spin Energy      =      -0.0230324387628465 [Eh]
	 SCS Opposite-Spin Energy  =      -0.2616286961197224 [Eh]
	 SCS Correlation Energy    =      -0.2846611348825689 [Eh]
	 SCS Total Energy          =     -76.3370850093529612 [Eh]
	-----------------------------------------------------------

*** Psi4 exiting successfully. Buy a developer a beer!
