                               Psi4 1.9 release

  ==> Input File <==

--------------------------------------------------------------------------
MEMORY 60 GB

molecule dimer {
1 1
Li     0.000000     0.000000     0.000000
--
0 1
O      0.219560    -0.265810     2.012776
H      0.521880    -0.931016     2.699863
H     -0.159480     0.513072     2.429735
O      1.524244     0.531832    -0.864764
H      2.438492     0.209908    -0.974378
H      1.411270     1.193130    -1.596493
O     -0.434713    -1.802003    -0.583452
H     -1.078675    -2.086057     0.124510
H      0.349421    -2.345056    -0.533103
O     -1.896730     0.843373    -0.137028
H     -2.188506     0.658287    -0.989367
H     -2.580292     0.611598     0.561824

units ang
no_reorient
no_com
symmetry c1
}

set {
basis        aug-cc-pVTZ
scf_type     df
}

energy("mp2", bsse_type="cp")
--------------------------------------------------------------------------

                               Psi4 1.9 release
    Molecular point group: c1
  Charge       = 0
  Multiplicity = 1
  Basis Set: AUG-CC-PVTZ
    Blend: AUG-CC-PVTZ
  Basis Set: (AUG-CC-PVTZ AUX)
    Blend: AUG-CC-PVTZ-JKFIT + DEF2-UNIVERSAL-JKFIT
  @DF-RHF Final Energy:  -304.20807485859473
    Total Energy =                       -304.2080748585947276
 Dipole X            :         11.2679868          -11.3137941           -0.0458073
 Dipole Y            :         14.1344850          -14.5830127           -0.4485277
 Dipole Z            :         -9.1697415            9.7185723            0.5488309
 Magnitude           :                                                    0.7102751
  Basis Set: (AUG-CC-PVTZ AUX)
    Blend: AUG-CC-PVTZ-RI + DEF2-QZVPP-RI
	 Reference Energy          =    -304.2080748585947276 [Eh]
	 Singles Energy            =      -0.0000000000000000 [Eh]
	 Same-Spin Energy          =      -0.2777292256410002 [Eh]
	 Opposite-Spin Energy      =      -0.8710532624058549 [Eh]
	 Correlation Energy        =      -1.1487824880468551 [Eh]
	 Total Energy              =    -305.3568573466415614 [Eh]
	 SCS Total Energy          =    -305.3459151820287616 [Eh]
                               Psi4 1.9 release
    Molecular point group: c1
  Multiplicity = 1
  Basis Set: AUG-CC-PVTZ
    Blend: AUG-CC-PVTZ
  Basis Set: (AUG-CC-PVTZ AUX)
    Blend: AUG-CC-PVTZ-JKFIT + DEF2-UNIVERSAL-JKFIT
  @DF-RHF Final Energy:    -7.23638485482214
    Total Energy =                         -7.2363848548221386
  Basis Set: (AUG-CC-PVTZ AUX)
	 Singles Energy            =      -0.0000000000000000 [Eh]
	 Same-Spin Energy          =       0.0000000000000000 [Eh]
	 Opposite-Spin Energy      =      -0.0169499135255134 [Eh]
	 Correlation Energy        =      -0.0169499135255134 [Eh]
	 Total Energy              =      -7.2533347683476519 [Eh]
	 SCS Total Energy          =      -7.2567247510527544 [Eh]
                               Psi4 1.9 release
    Molecular point group: c1

    Geometry (in Bohr), charge = 1, multiplicity = 1:

       Center              X                  Y                   Z               Mass
    ------------   -----------------  -----------------  -----------------  -----------------
         LI           0.000000000000     0.000000000000     0.000000000000     7.016003436600
         O            0.414908268106    -0.502308101408     3.803595391895    15.994914619570
         H            0.986210270354    -1.759365258419     5.102001646257     1.007825032230
         H           -0.301373522488     0.969565562641     4.591533707439     1.007825032230
         O            2.880403708372     1.005016824754    -1.634167123155    15.994914619570
         H            4.608082039120     0.396668631543    -1.841307562671     1.007825032230
         H            2.666913789075     2.254688932067    -3.016934531211     1.007825032230
         O           -0.821488513176    -3.405292147253    -1.102564487351    15.994914619570
         H           -2.038400328378    -3.942076412094     0.235289799881     1.007825032230
         H            0.660309992484    -4.431513588862    -1.007418666660     1.007825032230
         O           -3.584300233940     1.593743991606    -0.258945391519    15.994914619570
         H           -4.135676963921     1.243982141949    -1.869632667566     1.007825032230
         H           -4.876045203710     1.155752718878     1.061693490709     1.007825032230

  Charge       = 1
  Multiplicity = 1
  Basis Set: AUG-CC-PVTZ
    Blend: AUG-CC-PVTZ
  Basis Set: (AUG-CC-PVTZ AUX)
    Blend: AUG-CC-PVTZ-JKFIT + DEF2-UNIVERSAL-JKFIT

    Orbital Energies [Eh]
    ---------------------

    Doubly Occupied:

       1A    -20.755891     2A    -20.748288     3A    -20.744648
       4A    -20.742784     5A     -2.535876     6A     -1.533208
       7A     -1.530798     8A     -1.524664     9A     -1.521728
      10A     -0.911107    11A     -0.898527    12A     -0.896866
      13A     -0.892275    14A     -0.798903    15A     -0.772409
      16A     -0.765826    17A     -0.759637    18A     -0.707785
      19A     -0.698359    20A     -0.689872    21A     -0.687842

  @DF-RHF Final Energy:  -311.61437351309922

   => Energetics <=

    Nuclear Repulsion Energy =            162.0475030610167266
    One-Electron Energy =                -745.0891565725072496
    Two-Electron Energy =                 271.4272799983912705
    Total Energy =                       -311.6143735130992241
 Dipole X            :         11.2378054          -11.3137941           -0.0759887
 Dipole Y            :         13.9535194          -14.5830127           -0.6294933
 Dipole Z            :         -9.0819861            9.7185723            0.6365862
 Magnitude           :                                                    0.8984866
  Basis Set: (AUG-CC-PVTZ AUX)
    Blend: AUG-CC-PVTZ-RI + DEF2-QZVPP-RI
	 Reference Energy          =    -311.6143735130992241 [Eh]
	 Singles Energy            =      -0.0000000000000000 [Eh]
	 Same-Spin Energy          =      -0.2761520401252047 [Eh]
	 Opposite-Spin Energy      =      -0.8803753183686780 [Eh]
	 Correlation Energy        =      -1.1565273584938827 [Eh]
	 Total Energy              =    -312.7709008715930850 [Eh]

	 ================> DF-SCS-MP2 Energies <==================
	-----------------------------------------------------------
	 SCS Same-Spin Scale       =       0.3333333333333333 [-]
	 SCS Opposite-Spin Scale   =       1.2000000000000000 [-]
	 SCS Same-Spin Energy      =      -0.0920506800417349 [Eh]
	 SCS Opposite-Spin Energy  =      -1.0564503820424136 [Eh]
	 SCS Correlation Energy    =      -1.1485010620841485 [Eh]
	 SCS Total Energy          =    -312.7628745751833890 [Eh]
	-----------------------------------------------------------

*** Psi4 exiting successfully. Buy a developer a beer!
