                               Psi4 1.8.2 release

  ==> Input File <==

--------------------------------------------------------------------------
MEMORY 60 GB

molecule dimer {
1 1
Li         0.000000     0.000000     0.000000
O          1.650053    -0.530993    -1.064242
H          2.392035    -0.101949    -0.686952
H          1.463285    -0.258144    -1.959656
O         -0.289415    -0.712498     1.685242
H         -1.101029    -0.657522     2.234823
H         -0.070434    -1.611500     1.899930
O          0.217487     1.895362     0.182598
H         -0.273195     2.192923     0.988240
H          1.131525     2.307122     0.234605
O         -1.285096    -0.509246    -1.306926
H         -0.917246    -0.560268    -2.152485
H         -1.585156    -1.421720    -1.166242

units ang
no_reorient
no_com
symmetry c1
}

set {
basis        aug-cc-pVTZ
scf_type     df
}

energy("mp2")
--------------------------------------------------------------------------

    Molecular point group: c1

    Geometry (in Angstrom), charge = 1, multiplicity = 1:

       Center              X                  Y                   Z               Mass
    ------------   -----------------  -----------------  -----------------  -----------------
         LI           0.000000000000     0.000000000000     0.000000000000     7.016003436600
         O            1.650053000000    -0.530993000000    -1.064242000000    15.994914619570
         H            2.392035000000    -0.101949000000    -0.686952000000     1.007825032230
         H            1.463285000000    -0.258144000000    -1.959656000000     1.007825032230
         O           -0.289415000000    -0.712498000000     1.685242000000    15.994914619570
         H           -1.101029000000    -0.657522000000     2.234823000000     1.007825032230
         H           -0.070434000000    -1.611500000000     1.899930000000     1.007825032230
         O            0.217487000000     1.895362000000     0.182598000000    15.994914619570
         H           -0.273195000000     2.192923000000     0.988240000000     1.007825032230
         H            1.131525000000     2.307122000000     0.234605000000     1.007825032230
         O           -1.285096000000    -0.509246000000    -1.306926000000    15.994914619570
         H           -0.917246000000    -0.560268000000    -2.152485000000     1.007825032230
         H           -1.585156000000    -1.421720000000    -1.166242000000     1.007825032230

  Charge       = 1
  Multiplicity = 1
  Basis Set: AUG-CC-PVTZ
    Blend: AUG-CC-PVTZ
  Basis Set: (AUG-CC-PVTZ AUX)
    Blend: AUG-CC-PVTZ-JKFIT + DEF2-UNIVERSAL-JKFIT

    Orbital Energies [Eh]
    ---------------------

    Doubly Occupied:

       1A    -20.763620     2A    -20.752875     3A    -20.749296
       4A    -20.745670     5A     -2.528442     6A     -1.554872
       7A     -1.552021     8A     -1.542473     9A     -1.520588
      10A     -0.930219    11A     -0.903973    12A     -0.895208
      13A     -0.884588    14A     -0.819879    15A     -0.796016
      16A     -0.772742    17A     -0.768570    18A     -0.718430
      19A     -0.711458    20A     -0.700982    21A     -0.692110

  @DF-RHF Final Energy:  -311.61528807459905

   => Energetics <=

    Nuclear Repulsion Energy =            165.2445594157116204
    One-Electron Energy =                -751.1116271031023643
    Two-Electron Energy =                 274.2517796127917222
    Total Energy =                       -311.6152880745990501
 Dipole X            :         -6.0585880            6.3948653            0.3362773
 Dipole Y            :         -2.1866021            1.9463083           -0.2402938
 Dipole Z            :          9.0208992           -8.7576731            0.2632262
 Magnitude           :                                                    0.4900118
  Basis Set: (AUG-CC-PVTZ AUX)
    Blend: AUG-CC-PVTZ-RI + DEF2-QZVPP-RI
	 Reference Energy          =    -311.6152880745990501 [Eh]
	 Singles Energy            =      -0.0000000000000000 [Eh]
	 Same-Spin Energy          =      -0.2758802352747198 [Eh]
	 Opposite-Spin Energy      =      -0.8794470457008240 [Eh]
	 Correlation Energy        =      -1.1553272809755437 [Eh]
	 Total Energy              =    -312.7706153555745914 [Eh]

	 ================> DF-SCS-MP2 Energies <==================
	-----------------------------------------------------------
	 SCS Same-Spin Scale       =       0.3333333333333333 [-]
	 SCS Opposite-Spin Scale   =       1.2000000000000000 [-]
	 SCS Same-Spin Energy      =      -0.0919600784249066 [Eh]
	 SCS Opposite-Spin Energy  =      -1.0553364548409887 [Eh]
	 SCS Correlation Energy    =      -1.1472965332658953 [Eh]
	 SCS Total Energy          =    -312.7625846078649374 [Eh]
	-----------------------------------------------------------

*** Psi4 exiting successfully. Buy a developer a beer!
