                               Psi4 1.8.2 release

  ==> Input File <==

--------------------------------------------------------------------------
MEMORY 60 GB

molecule dimer {
1 1
Li         0.000000     0.000000     0.000000
O          1.718350     0.176551     0.544897
H          2.140398     0.825322    -0.025747
H          1.574066     0.694093     1.420858
O         -0.618594     1.178660    -1.431382
H         -1.462932     1.491536    -1.765382
H         -0.007693     1.643578    -2.053149
O         -0.276860    -1.382086    -1.514478
H         -0.026138    -2.301828    -1.619613
H         -0.080953    -0.943301    -2.378795
O         -1.025451    -0.316730     1.697479
H         -1.827661    -0.788100     1.402480
H         -0.931749    -0.447840     2.626507

units ang
no_reorient
no_com
symmetry c1
}

set {
basis        aug-cc-pVTZ
scf_type     df
}

energy("mp2")
--------------------------------------------------------------------------

    Molecular point group: c1

    Geometry (in Angstrom), charge = 1, multiplicity = 1:

       Center              X                  Y                   Z               Mass
    ------------   -----------------  -----------------  -----------------  -----------------
         LI           0.000000000000     0.000000000000     0.000000000000     7.016003436600
         O            1.718350000000     0.176551000000     0.544897000000    15.994914619570
         H            2.140398000000     0.825322000000    -0.025747000000     1.007825032230
         H            1.574066000000     0.694093000000     1.420858000000     1.007825032230
         O           -0.618594000000     1.178660000000    -1.431382000000    15.994914619570
         H           -1.462932000000     1.491536000000    -1.765382000000     1.007825032230
         H           -0.007693000000     1.643578000000    -2.053149000000     1.007825032230
         O           -0.276860000000    -1.382086000000    -1.514478000000    15.994914619570
         H           -0.026138000000    -2.301828000000    -1.619613000000     1.007825032230
         H           -0.080953000000    -0.943301000000    -2.378795000000     1.007825032230
         O           -1.025451000000    -0.316730000000     1.697479000000    15.994914619570
         H           -1.827661000000    -0.788100000000     1.402480000000     1.007825032230
         H           -0.931749000000    -0.447840000000     2.626507000000     1.007825032230

  Charge       = 1
  Multiplicity = 1
  Basis Set: AUG-CC-PVTZ
    Blend: AUG-CC-PVTZ
  Basis Set: (AUG-CC-PVTZ AUX)
    Blend: AUG-CC-PVTZ-JKFIT + DEF2-UNIVERSAL-JKFIT

    Orbital Energies [Eh]
    ---------------------

    Doubly Occupied:

       1A    -20.759946     2A    -20.759229     3A    -20.744964
       4A    -20.733085     5A     -2.536369     6A     -1.545516
       7A     -1.534793     8A     -1.531984     9A     -1.512037
      10A     -0.906895    11A     -0.896133    12A     -0.886482
      13A     -0.882184    14A     -0.808842    15A     -0.783713
      16A     -0.777242    17A     -0.758483    18A     -0.712915
      19A     -0.703318    20A     -0.694229    21A     -0.679505

  @DF-RHF Final Energy:  -311.61196796386162

   => Energetics <=

    Nuclear Repulsion Energy =            163.4570283864216549
    One-Electron Energy =                -747.8422563459727144
    Two-Electron Energy =                 272.7732599956893864
    Total Energy =                       -311.6119679638616162
 Dipole X            :          4.0341740           -4.2388485           -0.2046745
 Dipole Y            :          5.4051140           -4.8667629            0.5383511
 Dipole Z            :         14.4491363          -15.1569509           -0.7078146
 Magnitude           :                                                    0.9125322
  Basis Set: (AUG-CC-PVTZ AUX)
    Blend: AUG-CC-PVTZ-RI + DEF2-QZVPP-RI
	 Reference Energy          =    -311.6119679638616162 [Eh]
	 Singles Energy            =      -0.0000000000000000 [Eh]
	 Same-Spin Energy          =      -0.2769665972974944 [Eh]
	 Opposite-Spin Energy      =      -0.8818285889396189 [Eh]
	 Correlation Energy        =      -1.1587951862371133 [Eh]
	 Total Energy              =    -312.7707631500987304 [Eh]

	 ================> DF-SCS-MP2 Energies <==================
	-----------------------------------------------------------
	 SCS Same-Spin Scale       =       0.3333333333333333 [-]
	 SCS Opposite-Spin Scale   =       1.2000000000000000 [-]
	 SCS Same-Spin Energy      =      -0.0923221990991648 [Eh]
	 SCS Opposite-Spin Energy  =      -1.0581943067275426 [Eh]
	 SCS Correlation Energy    =      -1.1505165058267073 [Eh]
	 SCS Total Energy          =    -312.7624844696883315 [Eh]
	-----------------------------------------------------------

*** Psi4 exiting successfully. Buy a developer a beer!
