                               Psi4 1.8.2 release

  ==> Input File <==

--------------------------------------------------------------------------
MEMORY 60 GB

molecule dimer {
0 1
Gh(Li)     0.000000     0.000000     0.000000
Gh(O)      0.552963    -1.749645     0.131307
Gh(H)      1.284114    -2.048599    -0.399136
Gh(H)      0.552090    -2.127656     1.036364
Gh(O)      1.541907     1.226823    -0.519578
Gh(H)      1.551480     2.047459     0.018367
Gh(H)      1.441348     1.555636    -1.465228
Gh(O)     -0.063798     0.553262     1.985834
Gh(H)      0.380477     1.157738     2.576072
Gh(H)     -0.932985     0.385820     2.447181
O         -1.255138     0.486686    -1.137426
H         -1.106484     0.045005    -1.941916
H         -1.576557     1.362913    -1.297025

units ang
no_reorient
no_com
symmetry c1
}

set {
basis        aug-cc-pVTZ
scf_type     df
}

energy("mp2")
--------------------------------------------------------------------------

    Molecular point group: c1

    Geometry (in Angstrom), charge = 0, multiplicity = 1:

       Center              X                  Y                   Z               Mass
    ------------   -----------------  -----------------  -----------------  -----------------
      Gh(LI)          0.000000000000     0.000000000000     0.000000000000     7.016003436600
      Gh(O)           0.552963000000    -1.749645000000     0.131307000000    15.994914619570
      Gh(H)           1.284114000000    -2.048599000000    -0.399136000000     1.007825032230
      Gh(H)           0.552090000000    -2.127656000000     1.036364000000     1.007825032230
      Gh(O)           1.541907000000     1.226823000000    -0.519578000000    15.994914619570
      Gh(H)           1.551480000000     2.047459000000     0.018367000000     1.007825032230
      Gh(H)           1.441348000000     1.555636000000    -1.465228000000     1.007825032230
      Gh(O)          -0.063798000000     0.553262000000     1.985834000000    15.994914619570
      Gh(H)           0.380477000000     1.157738000000     2.576072000000     1.007825032230
      Gh(H)          -0.932985000000     0.385820000000     2.447181000000     1.007825032230
         O           -1.255138000000     0.486686000000    -1.137426000000    15.994914619570
         H           -1.106484000000     0.045005000000    -1.941916000000     1.007825032230
         H           -1.576557000000     1.362913000000    -1.297025000000     1.007825032230

  Charge       = 0
  Multiplicity = 1
  Basis Set: AUG-CC-PVTZ
    Blend: AUG-CC-PVTZ
  Basis Set: (AUG-CC-PVTZ AUX)
    Blend: AUG-CC-PVTZ-JKFIT + DEF2-UNIVERSAL-JKFIT

    Orbital Energies [Eh]
    ---------------------

    Doubly Occupied:

       1A    -20.560964     2A     -1.359314     3A     -0.739654
       4A     -0.576967     5A     -0.510267

  @DF-RHF Final Energy:   -76.06076426630214

   => Energetics <=

    Nuclear Repulsion Energy =              9.3678641193478533
    One-Electron Energy =                -123.3629219232699796
    Two-Electron Energy =                  37.9342935376199861
    Total Energy =                        -76.0607642663021295
 Dipole X            :         23.9273109          -24.0451492           -0.1178383
 Dipole Y            :         -9.7224366           10.0182054            0.2957688
 Dipole Z            :         22.6541289          -23.3161005           -0.6619716
 Magnitude           :                                                    0.7345553
  Basis Set: (AUG-CC-PVTZ AUX)
    Blend: AUG-CC-PVTZ-RI + DEF2-QZVPP-RI
	 Reference Energy          =     -76.0607642663021437 [Eh]
	 Singles Energy            =      -0.0000000000000000 [Eh]
	 Same-Spin Energy          =      -0.0680446518821708 [Eh]
	 Opposite-Spin Energy      =      -0.2148422768449172 [Eh]
	 Correlation Energy        =      -0.2828869287270881 [Eh]
	 Total Energy              =     -76.3436511950292385 [Eh]

	 ================> DF-SCS-MP2 Energies <==================
	-----------------------------------------------------------
	 SCS Same-Spin Scale       =       0.3333333333333333 [-]
	 SCS Opposite-Spin Scale   =       1.2000000000000000 [-]
	 SCS Same-Spin Energy      =      -0.0226815506273903 [Eh]
	 SCS Opposite-Spin Energy  =      -0.2578107322139007 [Eh]
	 SCS Correlation Energy    =      -0.2804922828412910 [Eh]
	 SCS Total Energy          =     -76.3412565491434378 [Eh]
	-----------------------------------------------------------

*** Psi4 exiting successfully. Buy a developer a beer!
