                               Psi4 1.8.2 release

  ==> Input File <==

--------------------------------------------------------------------------
MEMORY 60 GB

molecule dimer {
1 1
Li         0.000000     0.000000     0.000000
O         -1.032842     0.396425    -1.658178
H         -1.279584     0.014094    -2.509117
H         -1.562276     1.236030    -1.642107
O         -0.418356     0.747917     1.594078
H          0.358018     0.959903     2.183691
H         -0.999293     1.461192     1.564220
O          1.442274     1.084928    -0.518287
H          1.966751     1.852884    -0.286094
H          1.473632     0.916597    -1.471009
O          0.031737    -1.911179     0.426641
H          0.902421    -2.258501     0.761336
H         -0.721623    -2.124603     0.942511

units ang
no_reorient
no_com
symmetry c1
}

set {
basis        aug-cc-pVTZ
scf_type     df
}

energy("mp2")
--------------------------------------------------------------------------

    Molecular point group: c1

    Geometry (in Angstrom), charge = 1, multiplicity = 1:

       Center              X                  Y                   Z               Mass
    ------------   -----------------  -----------------  -----------------  -----------------
         LI           0.000000000000     0.000000000000     0.000000000000     7.016003436600
         O           -1.032842000000     0.396425000000    -1.658178000000    15.994914619570
         H           -1.279584000000     0.014094000000    -2.509117000000     1.007825032230
         H           -1.562276000000     1.236030000000    -1.642107000000     1.007825032230
         O           -0.418356000000     0.747917000000     1.594078000000    15.994914619570
         H            0.358018000000     0.959903000000     2.183691000000     1.007825032230
         H           -0.999293000000     1.461192000000     1.564220000000     1.007825032230
         O            1.442274000000     1.084928000000    -0.518287000000    15.994914619570
         H            1.966751000000     1.852884000000    -0.286094000000     1.007825032230
         H            1.473632000000     0.916597000000    -1.471009000000     1.007825032230
         O            0.031737000000    -1.911179000000     0.426641000000    15.994914619570
         H            0.902421000000    -2.258501000000     0.761336000000     1.007825032230
         H           -0.721623000000    -2.124603000000     0.942511000000     1.007825032230

  Charge       = 1
  Multiplicity = 1
  Basis Set: AUG-CC-PVTZ
    Blend: AUG-CC-PVTZ
  Basis Set: (AUG-CC-PVTZ AUX)
    Blend: AUG-CC-PVTZ-JKFIT + DEF2-UNIVERSAL-JKFIT

    Orbital Energies [Eh]
    ---------------------

    Doubly Occupied:

       1A    -20.752051     2A    -20.748490     3A    -20.742942
       4A    -20.732390     5A     -2.522684     6A     -1.544729
       7A     -1.534164     8A     -1.528353     9A     -1.517106
      10A     -0.919126    11A     -0.911928    12A     -0.904702
      13A     -0.886409    14A     -0.794593    15A     -0.787283
      16A     -0.776752    17A     -0.749338    18A     -0.709884
      19A     -0.701377    20A     -0.684671    21A     -0.682915

  @DF-RHF Final Energy:  -311.61742593171783

   => Energetics <=

    Nuclear Repulsion Energy =            166.0048813663134695
    One-Electron Energy =                -752.9808381517879070
    Two-Electron Energy =                 275.3585308537565766
    Total Energy =                       -311.6174259317178326
 Dipole X            :         -0.5375312            0.6057517            0.0682205
 Dipole Y            :         -7.6440935            8.6971319            1.0530384
 Dipole Z            :          3.1196474           -3.2173286           -0.0976812
 Magnitude           :                                                    1.0597573
  Basis Set: (AUG-CC-PVTZ AUX)
    Blend: AUG-CC-PVTZ-RI + DEF2-QZVPP-RI
	 Reference Energy          =    -311.6174259317178326 [Eh]
	 Singles Energy            =      -0.0000000000000000 [Eh]
	 Same-Spin Energy          =      -0.2759766126946038 [Eh]
	 Opposite-Spin Energy      =      -0.8789398610138422 [Eh]
	 Correlation Energy        =      -1.1549164737084461 [Eh]
	 Total Energy              =    -312.7723424054262864 [Eh]

	 ================> DF-SCS-MP2 Energies <==================
	-----------------------------------------------------------
	 SCS Same-Spin Scale       =       0.3333333333333333 [-]
	 SCS Opposite-Spin Scale   =       1.2000000000000000 [-]
	 SCS Same-Spin Energy      =      -0.0919922042315346 [Eh]
	 SCS Opposite-Spin Energy  =      -1.0547278332166106 [Eh]
	 SCS Correlation Energy    =      -1.1467200374481452 [Eh]
	 SCS Total Energy          =    -312.7641459691659520 [Eh]
	-----------------------------------------------------------

*** Psi4 exiting successfully. Buy a developer a beer!
