                               Psi4 1.8.2 release

  ==> Input File <==

--------------------------------------------------------------------------
MEMORY 60 GB

molecule dimer {
1 1
Li         0.000000     0.000000     0.000000
Gh(O)      1.023000     0.620441     1.583861
Gh(H)      1.455219     0.253028     2.357655
Gh(H)      1.073738     1.617144     1.656624
Gh(O)      0.990010    -1.210458    -1.226372
Gh(H)      0.996585    -0.767777    -2.058657
Gh(H)      0.892016    -2.180068    -1.332978
Gh(O)     -0.199397     1.811129    -0.706428
Gh(H)     -0.471302     2.120332    -1.569275
Gh(H)     -0.590440     2.361535    -0.067867

units ang
no_reorient
no_com
symmetry c1
}

set {
basis        aug-cc-pVTZ
scf_type     df
}

energy("mp2")
--------------------------------------------------------------------------

    Molecular point group: c1

    Geometry (in Angstrom), charge = 1, multiplicity = 1:

       Center              X                  Y                   Z               Mass
    ------------   -----------------  -----------------  -----------------  -----------------
         LI           0.000000000000     0.000000000000     0.000000000000     7.016003436600
      Gh(O)           1.023000000000     0.620441000000     1.583861000000    15.994914619570
      Gh(H)           1.455219000000     0.253028000000     2.357655000000     1.007825032230
      Gh(H)           1.073738000000     1.617144000000     1.656624000000     1.007825032230
      Gh(O)           0.990010000000    -1.210458000000    -1.226372000000    15.994914619570
      Gh(H)           0.996585000000    -0.767777000000    -2.058657000000     1.007825032230
      Gh(H)           0.892016000000    -2.180068000000    -1.332978000000     1.007825032230
      Gh(O)          -0.199397000000     1.811129000000    -0.706428000000    15.994914619570
      Gh(H)          -0.471302000000     2.120332000000    -1.569275000000     1.007825032230
      Gh(H)          -0.590440000000     2.361535000000    -0.067867000000     1.007825032230

  Charge       = 1
  Multiplicity = 1
  Basis Set: AUG-CC-PVTZ
    Blend: AUG-CC-PVTZ
  Basis Set: (AUG-CC-PVTZ AUX)
    Blend: AUG-CC-PVTZ-JKFIT + DEF2-UNIVERSAL-JKFIT

    Orbital Energies [Eh]
    ---------------------

    Doubly Occupied:

       1A     -2.792360

  @DF-RHF Final Energy:    -7.23638439123816

   => Energetics <=

    Nuclear Repulsion Energy =              0.0000000000000000
    One-Electron Energy =                  -8.8880486178618909
    Two-Electron Energy =                   1.6516642266237316
    Total Energy =                         -7.2363843912381594
 Dipole X            :          0.0000303            0.0000000            0.0000303
 Dipole Y            :          0.0000078            0.0000000            0.0000078
 Dipole Z            :         -0.0000115            0.0000000           -0.0000115
 Magnitude           :                                                    0.0000334
  Basis Set: (AUG-CC-PVTZ AUX)
    Blend: AUG-CC-PVTZ-RI + DEF2-QZVPP-RI
	 Reference Energy          =      -7.2363843912381594 [Eh]
	 Singles Energy            =      -0.0000000000000000 [Eh]
	 Same-Spin Energy          =       0.0000000000000000 [Eh]
	 Opposite-Spin Energy      =      -0.0155859865997481 [Eh]
	 Correlation Energy        =      -0.0155859865997481 [Eh]
	 Total Energy              =      -7.2519703778379077 [Eh]

	 ================> DF-SCS-MP2 Energies <==================
	-----------------------------------------------------------
	 SCS Same-Spin Scale       =       0.3333333333333333 [-]
	 SCS Opposite-Spin Scale   =       1.2000000000000000 [-]
	 SCS Same-Spin Energy      =       0.0000000000000000 [Eh]
	 SCS Opposite-Spin Energy  =      -0.0187031839196977 [Eh]
	 SCS Correlation Energy    =      -0.0187031839196977 [Eh]
	 SCS Total Energy          =      -7.2550875751578570 [Eh]
	-----------------------------------------------------------

*** Psi4 exiting successfully. Buy a developer a beer!
