                               Psi4 1.8.2 release

  ==> Input File <==

--------------------------------------------------------------------------
MEMORY 60 GB

molecule dimer {
0 1
Gh(Li)     0.000000     0.000000     0.000000
Gh(O)     -1.720601    -0.454939     0.668843
Gh(H)     -2.367035    -0.441477     1.379955
Gh(H)     -2.112942    -1.235939     0.197061
Gh(O)      0.258055     1.761577     0.977628
Gh(H)     -0.298766     2.544675     1.027660
Gh(H)      0.877315     1.972477     1.753294
Gh(O)      0.341148     0.486488    -2.065997
Gh(H)      1.299138     0.518447    -2.285794
Gh(H)      0.121500     1.408985    -2.167791
O          1.225061    -1.617859     0.341381
H          0.889538    -2.345444     0.815641
H          1.490168    -2.059704    -0.492452

units ang
no_reorient
no_com
symmetry c1
}

set {
basis        aug-cc-pVTZ
scf_type     df
}

energy("mp2")
--------------------------------------------------------------------------

    Molecular point group: c1

    Geometry (in Angstrom), charge = 0, multiplicity = 1:

       Center              X                  Y                   Z               Mass
    ------------   -----------------  -----------------  -----------------  -----------------
      Gh(LI)          0.000000000000     0.000000000000     0.000000000000     7.016003436600
      Gh(O)          -1.720601000000    -0.454939000000     0.668843000000    15.994914619570
      Gh(H)          -2.367035000000    -0.441477000000     1.379955000000     1.007825032230
      Gh(H)          -2.112942000000    -1.235939000000     0.197061000000     1.007825032230
      Gh(O)           0.258055000000     1.761577000000     0.977628000000    15.994914619570
      Gh(H)          -0.298766000000     2.544675000000     1.027660000000     1.007825032230
      Gh(H)           0.877315000000     1.972477000000     1.753294000000     1.007825032230
      Gh(O)           0.341148000000     0.486488000000    -2.065997000000    15.994914619570
      Gh(H)           1.299138000000     0.518447000000    -2.285794000000     1.007825032230
      Gh(H)           0.121500000000     1.408985000000    -2.167791000000     1.007825032230
         O            1.225061000000    -1.617859000000     0.341381000000    15.994914619570
         H            0.889538000000    -2.345444000000     0.815641000000     1.007825032230
         H            1.490168000000    -2.059704000000    -0.492452000000     1.007825032230

  Charge       = 0
  Multiplicity = 1
  Basis Set: AUG-CC-PVTZ
    Blend: AUG-CC-PVTZ
  Basis Set: (AUG-CC-PVTZ AUX)
    Blend: AUG-CC-PVTZ-JKFIT + DEF2-UNIVERSAL-JKFIT

    Orbital Energies [Eh]
    ---------------------

    Doubly Occupied:

       1A    -20.568347     2A     -1.358043     3A     -0.710359
       4A     -0.593259     5A     -0.511726

  @DF-RHF Final Energy:   -76.05883324680090

   => Energetics <=

    Nuclear Repulsion Energy =              9.2264125216057433
    One-Electron Energy =                -123.0870173276287005
    Two-Electron Energy =                  37.8017715592220753
    Total Energy =                        -76.0588332468008872
 Dipole X            :        -23.0672400           23.0172308           -0.0500092
 Dipole Y            :         32.0116250          -32.7830066           -0.7713816
 Dipole Z            :         -5.9995980            5.7716715           -0.2279265
 Magnitude           :                                                    0.8059038
  Basis Set: (AUG-CC-PVTZ AUX)
    Blend: AUG-CC-PVTZ-RI + DEF2-QZVPP-RI
	 Reference Energy          =     -76.0588332468009014 [Eh]
	 Singles Energy            =      -0.0000000000000000 [Eh]
	 Same-Spin Energy          =      -0.0684835539341372 [Eh]
	 Opposite-Spin Energy      =      -0.2160942708729322 [Eh]
	 Correlation Energy        =      -0.2845778248070694 [Eh]
	 Total Energy              =     -76.3434110716079743 [Eh]

	 ================> DF-SCS-MP2 Energies <==================
	-----------------------------------------------------------
	 SCS Same-Spin Scale       =       0.3333333333333333 [-]
	 SCS Opposite-Spin Scale   =       1.2000000000000000 [-]
	 SCS Same-Spin Energy      =      -0.0228278513113791 [Eh]
	 SCS Opposite-Spin Energy  =      -0.2593131250475186 [Eh]
	 SCS Correlation Energy    =      -0.2821409763588977 [Eh]
	 SCS Total Energy          =     -76.3409742231598045 [Eh]
	-----------------------------------------------------------

*** Psi4 exiting successfully. Buy a developer a beer!
