                               Psi4 1.8.2 release

  ==> Input File <==

--------------------------------------------------------------------------
MEMORY 60 GB

molecule dimer {
1 1
Li         0.000000     0.000000     0.000000
O         -1.959429     0.551722    -0.115906
H         -2.501903     1.114878     0.470899
H         -2.703678     0.065273    -0.568937
O          0.234542    -1.408943     1.091451
H         -0.520325    -2.028104     0.922529
H          0.330550    -1.475194     2.088232
O          0.911987     1.610117     0.968941
H          1.448281     1.554265     1.803833
H          1.223738     2.292862     0.375246
O          0.842688     0.233769    -1.798413
H          0.637542    -0.124408    -2.680969
H          1.557305     0.923962    -1.781956

units ang
no_reorient
no_com
symmetry c1
}

set {
basis        aug-cc-pVTZ
scf_type     df
}

energy("mp2")
--------------------------------------------------------------------------

    Molecular point group: c1

    Geometry (in Angstrom), charge = 1, multiplicity = 1:

       Center              X                  Y                   Z               Mass
    ------------   -----------------  -----------------  -----------------  -----------------
         LI           0.000000000000     0.000000000000     0.000000000000     7.016003436600
         O           -1.959429000000     0.551722000000    -0.115906000000    15.994914619570
         H           -2.501903000000     1.114878000000     0.470899000000     1.007825032230
         H           -2.703678000000     0.065273000000    -0.568937000000     1.007825032230
         O            0.234542000000    -1.408943000000     1.091451000000    15.994914619570
         H           -0.520325000000    -2.028104000000     0.922529000000     1.007825032230
         H            0.330550000000    -1.475194000000     2.088232000000     1.007825032230
         O            0.911987000000     1.610117000000     0.968941000000    15.994914619570
         H            1.448281000000     1.554265000000     1.803833000000     1.007825032230
         H            1.223738000000     2.292862000000     0.375246000000     1.007825032230
         O            0.842688000000     0.233769000000    -1.798413000000    15.994914619570
         H            0.637542000000    -0.124408000000    -2.680969000000     1.007825032230
         H            1.557305000000     0.923962000000    -1.781956000000     1.007825032230

  Charge       = 1
  Multiplicity = 1
  Basis Set: AUG-CC-PVTZ
    Blend: AUG-CC-PVTZ
  Basis Set: (AUG-CC-PVTZ AUX)
    Blend: AUG-CC-PVTZ-JKFIT + DEF2-UNIVERSAL-JKFIT

    Orbital Energies [Eh]
    ---------------------

    Doubly Occupied:

       1A    -20.756150     2A    -20.744876     3A    -20.739653
       4A    -20.739136     5A     -2.528613     6A     -1.527588
       7A     -1.517748     8A     -1.516136     9A     -1.510911
      10A     -0.902384    11A     -0.892420    12A     -0.879488
      13A     -0.861522    14A     -0.793523    15A     -0.786799
      16A     -0.758091    17A     -0.752337    18A     -0.705839
      19A     -0.686019    20A     -0.684619    21A     -0.680245

  @DF-RHF Final Energy:  -311.61396358063826

   => Energetics <=

    Nuclear Repulsion Energy =            160.1529465685368336
    One-Electron Energy =                -741.6056191126924659
    Two-Electron Energy =                 269.8387089635173197
    Total Energy =                       -311.6139635806382557
 Dipole X            :          0.1804634           -0.5483721           -0.3679087
 Dipole Y            :        -18.9560848           19.3070559            0.3509712
 Dipole Z            :         -3.1292137            3.3967090            0.2674954
 Magnitude           :                                                    0.5745358
  Basis Set: (AUG-CC-PVTZ AUX)
    Blend: AUG-CC-PVTZ-RI + DEF2-QZVPP-RI
	 Reference Energy          =    -311.6139635806382557 [Eh]
	 Singles Energy            =      -0.0000000000000000 [Eh]
	 Same-Spin Energy          =      -0.2768378054930827 [Eh]
	 Opposite-Spin Energy      =      -0.8824307469043161 [Eh]
	 Correlation Energy        =      -1.1592685523973989 [Eh]
	 Total Energy              =    -312.7732321330356626 [Eh]

	 ================> DF-SCS-MP2 Energies <==================
	-----------------------------------------------------------
	 SCS Same-Spin Scale       =       0.3333333333333333 [-]
	 SCS Opposite-Spin Scale   =       1.2000000000000000 [-]
	 SCS Same-Spin Energy      =      -0.0922792684976942 [Eh]
	 SCS Opposite-Spin Energy  =      -1.0589168962851794 [Eh]
	 SCS Correlation Energy    =      -1.1511961647828737 [Eh]
	 SCS Total Energy          =    -312.7651597454211014 [Eh]
	-----------------------------------------------------------

*** Psi4 exiting successfully. Buy a developer a beer!
