                               Psi4 1.8.2 release

  ==> Input File <==

--------------------------------------------------------------------------
MEMORY 60 GB

molecule dimer {
1 1
Li         0.000000     0.000000     0.000000
Gh(O)     -0.815512    -1.973069     0.213618
Gh(H)     -1.442123    -2.343453     0.881888
Gh(H)     -0.002592    -2.481571     0.216923
Gh(O)      1.699625     0.035978    -1.109364
Gh(H)      2.234679    -0.288064    -0.379152
Gh(H)      2.152471     0.871850    -1.472594
Gh(O)      0.954529     0.704439     1.627529
Gh(H)      0.792200     1.656184     1.570414
Gh(H)      0.354105     0.450627     2.342875
Gh(O)     -1.562320     1.135689    -0.344199
Gh(H)     -1.999637     1.483420     0.437688
Gh(H)     -1.205724     1.935640    -0.797850

units ang
no_reorient
no_com
symmetry c1
}

set {
basis        aug-cc-pVTZ
scf_type     df
}

energy("mp2")
--------------------------------------------------------------------------

    Molecular point group: c1

    Geometry (in Angstrom), charge = 1, multiplicity = 1:

       Center              X                  Y                   Z               Mass
    ------------   -----------------  -----------------  -----------------  -----------------
         LI           0.000000000000     0.000000000000     0.000000000000     7.016003436600
      Gh(O)          -0.815512000000    -1.973069000000     0.213618000000    15.994914619570
      Gh(H)          -1.442123000000    -2.343453000000     0.881888000000     1.007825032230
      Gh(H)          -0.002592000000    -2.481571000000     0.216923000000     1.007825032230
      Gh(O)           1.699625000000     0.035978000000    -1.109364000000    15.994914619570
      Gh(H)           2.234679000000    -0.288064000000    -0.379152000000     1.007825032230
      Gh(H)           2.152471000000     0.871850000000    -1.472594000000     1.007825032230
      Gh(O)           0.954529000000     0.704439000000     1.627529000000    15.994914619570
      Gh(H)           0.792200000000     1.656184000000     1.570414000000     1.007825032230
      Gh(H)           0.354105000000     0.450627000000     2.342875000000     1.007825032230
      Gh(O)          -1.562320000000     1.135689000000    -0.344199000000    15.994914619570
      Gh(H)          -1.999637000000     1.483420000000     0.437688000000     1.007825032230
      Gh(H)          -1.205724000000     1.935640000000    -0.797850000000     1.007825032230

  Charge       = 1
  Multiplicity = 1
  Basis Set: AUG-CC-PVTZ
    Blend: AUG-CC-PVTZ
  Basis Set: (AUG-CC-PVTZ AUX)
    Blend: AUG-CC-PVTZ-JKFIT + DEF2-UNIVERSAL-JKFIT

    Orbital Energies [Eh]
    ---------------------

    Doubly Occupied:

       1A     -2.792354

  @DF-RHF Final Energy:    -7.23638479507737

   => Energetics <=

    Nuclear Repulsion Energy =              0.0000000000000000
    One-Electron Energy =                  -8.8880623766193878
    Two-Electron Energy =                   1.6516775815420210
    Total Energy =                         -7.2363847950773668
 Dipole X            :         -0.0000016            0.0000000           -0.0000016
 Dipole Y            :         -0.0000048            0.0000000           -0.0000048
 Dipole Z            :          0.0000022            0.0000000            0.0000022
 Magnitude           :                                                    0.0000055
  Basis Set: (AUG-CC-PVTZ AUX)
    Blend: AUG-CC-PVTZ-RI + DEF2-QZVPP-RI
	 Reference Energy          =      -7.2363847950773668 [Eh]
	 Singles Energy            =      -0.0000000000000000 [Eh]
	 Same-Spin Energy          =       0.0000000000000000 [Eh]
	 Opposite-Spin Energy      =      -0.0163223061102005 [Eh]
	 Correlation Energy        =      -0.0163223061102005 [Eh]
	 Total Energy              =      -7.2527071011875677 [Eh]

	 ================> DF-SCS-MP2 Energies <==================
	-----------------------------------------------------------
	 SCS Same-Spin Scale       =       0.3333333333333333 [-]
	 SCS Opposite-Spin Scale   =       1.2000000000000000 [-]
	 SCS Same-Spin Energy      =       0.0000000000000000 [Eh]
	 SCS Opposite-Spin Energy  =      -0.0195867673322406 [Eh]
	 SCS Correlation Energy    =      -0.0195867673322406 [Eh]
	 SCS Total Energy          =      -7.2559715624096075 [Eh]
	-----------------------------------------------------------

*** Psi4 exiting successfully. Buy a developer a beer!
