                               Psi4 1.8.2 release

  ==> Input File <==

--------------------------------------------------------------------------
MEMORY 60 GB

molecule dimer {
1 1
Li         0.000000     0.000000     0.000000
O         -1.715018     0.035203     0.485956
H         -1.936750    -0.119626     1.364263
H         -2.298787     0.693310     0.156393
O          1.091749    -0.253037     1.609196
H          1.070284    -1.120083     2.020331
H          0.767319     0.430326     2.249368
O          0.246191     2.036729    -0.098373
H          0.467254     2.250333     0.806838
H          0.917922     2.460712    -0.640110
O          0.268445    -0.553088    -1.903107
H         -0.423728    -0.525899    -2.557714
H          0.710424    -1.402795    -2.022738

units ang
no_reorient
no_com
symmetry c1
}

set {
basis        aug-cc-pVTZ
scf_type     df
}

energy("mp2")
--------------------------------------------------------------------------

    Molecular point group: c1

    Geometry (in Angstrom), charge = 1, multiplicity = 1:

       Center              X                  Y                   Z               Mass
    ------------   -----------------  -----------------  -----------------  -----------------
         LI           0.000000000000     0.000000000000     0.000000000000     7.016003436600
         O           -1.715018000000     0.035203000000     0.485956000000    15.994914619570
         H           -1.936750000000    -0.119626000000     1.364263000000     1.007825032230
         H           -2.298787000000     0.693310000000     0.156393000000     1.007825032230
         O            1.091749000000    -0.253037000000     1.609196000000    15.994914619570
         H            1.070284000000    -1.120083000000     2.020331000000     1.007825032230
         H            0.767319000000     0.430326000000     2.249368000000     1.007825032230
         O            0.246191000000     2.036729000000    -0.098373000000    15.994914619570
         H            0.467254000000     2.250333000000     0.806838000000     1.007825032230
         H            0.917922000000     2.460712000000    -0.640110000000     1.007825032230
         O            0.268445000000    -0.553088000000    -1.903107000000    15.994914619570
         H           -0.423728000000    -0.525899000000    -2.557714000000     1.007825032230
         H            0.710424000000    -1.402795000000    -2.022738000000     1.007825032230

  Charge       = 1
  Multiplicity = 1
  Basis Set: AUG-CC-PVTZ
    Blend: AUG-CC-PVTZ
  Basis Set: (AUG-CC-PVTZ AUX)
    Blend: AUG-CC-PVTZ-JKFIT + DEF2-UNIVERSAL-JKFIT

    Orbital Energies [Eh]
    ---------------------

    Doubly Occupied:

       1A    -20.762610     2A    -20.750856     3A    -20.741758
       4A    -20.739759     5A     -2.531892     6A     -1.565896
       7A     -1.542528     8A     -1.531303     9A     -1.529231
      10A     -0.935989    11A     -0.919190    12A     -0.896183
      13A     -0.892866    14A     -0.808890    15A     -0.784651
      16A     -0.779175    17A     -0.768267    18A     -0.719441
      19A     -0.705652    20A     -0.693672    21A     -0.689904

  @DF-RHF Final Energy:  -311.62192689070594

   => Energetics <=

    Nuclear Repulsion Energy =            165.4800334376182036
    One-Electron Energy =                -751.6244897969430667
    Two-Electron Energy =                 274.5225294686189272
    Total Energy =                       -311.6219268907059359
 Dipole X            :          2.6222141           -3.0143513           -0.3921372
 Dipole Y            :        -23.9504862           24.1747637            0.2242774
 Dipole Z            :         -3.2254544            4.0175710            0.7921165
 Magnitude           :                                                    0.9118775
  Basis Set: (AUG-CC-PVTZ AUX)
    Blend: AUG-CC-PVTZ-RI + DEF2-QZVPP-RI
	 Reference Energy          =    -311.6219268907059359 [Eh]
	 Singles Energy            =      -0.0000000000000000 [Eh]
	 Same-Spin Energy          =      -0.2751641766379732 [Eh]
	 Opposite-Spin Energy      =      -0.8772390269486801 [Eh]
	 Correlation Energy        =      -1.1524032035866534 [Eh]
	 Total Energy              =    -312.7743300942925657 [Eh]

	 ================> DF-SCS-MP2 Energies <==================
	-----------------------------------------------------------
	 SCS Same-Spin Scale       =       0.3333333333333333 [-]
	 SCS Opposite-Spin Scale   =       1.2000000000000000 [-]
	 SCS Same-Spin Energy      =      -0.0917213922126577 [Eh]
	 SCS Opposite-Spin Energy  =      -1.0526868323384160 [Eh]
	 SCS Correlation Energy    =      -1.1444082245510736 [Eh]
	 SCS Total Energy          =    -312.7663351152569930 [Eh]
	-----------------------------------------------------------

*** Psi4 exiting successfully. Buy a developer a beer!
