                               Psi4 1.8.2 release

  ==> Input File <==

--------------------------------------------------------------------------
MEMORY 60 GB

molecule dimer {
0 1
Gh(Li)     0.000000     0.000000     0.000000
Gh(O)     -0.207258     1.893567    -0.189270
Gh(H)     -1.121865     2.058966     0.128404
Gh(H)     -0.276352     2.100735    -1.147691
Gh(O)     -0.450346    -0.540463     1.792528
Gh(H)     -1.197754    -1.034385     1.966029
Gh(H)     -0.329736    -0.092928     2.623816
Gh(O)      1.811809    -0.507348    -0.752479
Gh(H)      2.033480    -0.946021     0.085056
Gh(H)      1.816157    -1.201410    -1.392174
O         -1.390009    -0.914970    -1.164105
H         -2.030872    -0.570429    -0.544099
H         -1.574691    -1.795563    -1.145738

units ang
no_reorient
no_com
symmetry c1
}

set {
basis        aug-cc-pVTZ
scf_type     df
}

energy("mp2")
--------------------------------------------------------------------------

    Molecular point group: c1

    Geometry (in Angstrom), charge = 0, multiplicity = 1:

       Center              X                  Y                   Z               Mass
    ------------   -----------------  -----------------  -----------------  -----------------
      Gh(LI)          0.000000000000     0.000000000000     0.000000000000     7.016003436600
      Gh(O)          -0.207258000000     1.893567000000    -0.189270000000    15.994914619570
      Gh(H)          -1.121865000000     2.058966000000     0.128404000000     1.007825032230
      Gh(H)          -0.276352000000     2.100735000000    -1.147691000000     1.007825032230
      Gh(O)          -0.450346000000    -0.540463000000     1.792528000000    15.994914619570
      Gh(H)          -1.197754000000    -1.034385000000     1.966029000000     1.007825032230
      Gh(H)          -0.329736000000    -0.092928000000     2.623816000000     1.007825032230
      Gh(O)           1.811809000000    -0.507348000000    -0.752479000000    15.994914619570
      Gh(H)           2.033480000000    -0.946021000000     0.085056000000     1.007825032230
      Gh(H)           1.816157000000    -1.201410000000    -1.392174000000     1.007825032230
         O           -1.390009000000    -0.914970000000    -1.164105000000    15.994914619570
         H           -2.030872000000    -0.570429000000    -0.544099000000     1.007825032230
         H           -1.574691000000    -1.795563000000    -1.145738000000     1.007825032230

  Charge       = 0
  Multiplicity = 1
  Basis Set: AUG-CC-PVTZ
    Blend: AUG-CC-PVTZ
  Basis Set: (AUG-CC-PVTZ AUX)
    Blend: AUG-CC-PVTZ-JKFIT + DEF2-UNIVERSAL-JKFIT

    Orbital Energies [Eh]
    ---------------------

    Doubly Occupied:

       1A    -20.562625     2A     -1.372308     3A     -0.728356
       4A     -0.595900     5A     -0.513724

  @DF-RHF Final Energy:   -76.05831091133611

   => Energetics <=

    Nuclear Repulsion Energy =              9.5003719551893759
    One-Electron Energy =                -123.5715369443453255
    Two-Electron Energy =                  38.0128540778198385
    Total Energy =                        -76.0583109113361076
 Dipole X            :         27.2758584          -27.8274172           -0.5515588
 Dipole Y            :         17.9340828          -18.3034186           -0.3693358
 Dipole Z            :         21.2164892          -20.7920462            0.4244430
 Magnitude           :                                                    0.7878946
  Basis Set: (AUG-CC-PVTZ AUX)
    Blend: AUG-CC-PVTZ-RI + DEF2-QZVPP-RI
	 Reference Energy          =     -76.0583109113361076 [Eh]
	 Singles Energy            =      -0.0000000000000000 [Eh]
	 Same-Spin Energy          =      -0.0679696536889632 [Eh]
	 Opposite-Spin Energy      =      -0.2146410859556601 [Eh]
	 Correlation Energy        =      -0.2826107396446233 [Eh]
	 Total Energy              =     -76.3409216509807322 [Eh]

	 ================> DF-SCS-MP2 Energies <==================
	-----------------------------------------------------------
	 SCS Same-Spin Scale       =       0.3333333333333333 [-]
	 SCS Opposite-Spin Scale   =       1.2000000000000000 [-]
	 SCS Same-Spin Energy      =      -0.0226565512296544 [Eh]
	 SCS Opposite-Spin Energy  =      -0.2575693031467921 [Eh]
	 SCS Correlation Energy    =      -0.2802258543764465 [Eh]
	 SCS Total Energy          =     -76.3385367657125471 [Eh]
	-----------------------------------------------------------

*** Psi4 exiting successfully. Buy a developer a beer!
