                               Psi4 1.8.2 release

  ==> Input File <==

--------------------------------------------------------------------------
MEMORY 60 GB

molecule dimer {
1 1
Li         0.000000     0.000000     0.000000
Gh(O)     -0.207258     1.893567    -0.189270
Gh(H)     -1.121865     2.058966     0.128404
Gh(H)     -0.276352     2.100735    -1.147691
Gh(O)     -0.450346    -0.540463     1.792528
Gh(H)     -1.197754    -1.034385     1.966029
Gh(H)     -0.329736    -0.092928     2.623816
Gh(O)      1.811809    -0.507348    -0.752479
Gh(H)      2.033480    -0.946021     0.085056
Gh(H)      1.816157    -1.201410    -1.392174
Gh(O)     -1.390009    -0.914970    -1.164105
Gh(H)     -2.030872    -0.570429    -0.544099
Gh(H)     -1.574691    -1.795563    -1.145738

units ang
no_reorient
no_com
symmetry c1
}

set {
basis        aug-cc-pVTZ
scf_type     df
}

energy("mp2")
--------------------------------------------------------------------------

    Molecular point group: c1

    Geometry (in Angstrom), charge = 1, multiplicity = 1:

       Center              X                  Y                   Z               Mass
    ------------   -----------------  -----------------  -----------------  -----------------
         LI           0.000000000000     0.000000000000     0.000000000000     7.016003436600
      Gh(O)          -0.207258000000     1.893567000000    -0.189270000000    15.994914619570
      Gh(H)          -1.121865000000     2.058966000000     0.128404000000     1.007825032230
      Gh(H)          -0.276352000000     2.100735000000    -1.147691000000     1.007825032230
      Gh(O)          -0.450346000000    -0.540463000000     1.792528000000    15.994914619570
      Gh(H)          -1.197754000000    -1.034385000000     1.966029000000     1.007825032230
      Gh(H)          -0.329736000000    -0.092928000000     2.623816000000     1.007825032230
      Gh(O)           1.811809000000    -0.507348000000    -0.752479000000    15.994914619570
      Gh(H)           2.033480000000    -0.946021000000     0.085056000000     1.007825032230
      Gh(H)           1.816157000000    -1.201410000000    -1.392174000000     1.007825032230
      Gh(O)          -1.390009000000    -0.914970000000    -1.164105000000    15.994914619570
      Gh(H)          -2.030872000000    -0.570429000000    -0.544099000000     1.007825032230
      Gh(H)          -1.574691000000    -1.795563000000    -1.145738000000     1.007825032230

  Charge       = 1
  Multiplicity = 1
  Basis Set: AUG-CC-PVTZ
    Blend: AUG-CC-PVTZ
  Basis Set: (AUG-CC-PVTZ AUX)
    Blend: AUG-CC-PVTZ-JKFIT + DEF2-UNIVERSAL-JKFIT

    Orbital Energies [Eh]
    ---------------------

    Doubly Occupied:

       1A     -2.792352

  @DF-RHF Final Energy:    -7.23638495693578

   => Energetics <=

    Nuclear Repulsion Energy =              0.0000000000000000
    One-Electron Energy =                  -8.8880654780152639
    Two-Electron Energy =                   1.6516805210794836
    Total Energy =                         -7.2363849569357805
 Dipole X            :          0.0000006            0.0000000            0.0000006
 Dipole Y            :         -0.0000068            0.0000000           -0.0000068
 Dipole Z            :         -0.0000016            0.0000000           -0.0000016
 Magnitude           :                                                    0.0000071
  Basis Set: (AUG-CC-PVTZ AUX)
    Blend: AUG-CC-PVTZ-RI + DEF2-QZVPP-RI
	 Reference Energy          =      -7.2363849569357805 [Eh]
	 Singles Energy            =      -0.0000000000000000 [Eh]
	 Same-Spin Energy          =       0.0000000000000000 [Eh]
	 Opposite-Spin Energy      =      -0.0169620389252781 [Eh]
	 Correlation Energy        =      -0.0169620389252781 [Eh]
	 Total Energy              =      -7.2533469958610590 [Eh]

	 ================> DF-SCS-MP2 Energies <==================
	-----------------------------------------------------------
	 SCS Same-Spin Scale       =       0.3333333333333333 [-]
	 SCS Opposite-Spin Scale   =       1.2000000000000000 [-]
	 SCS Same-Spin Energy      =       0.0000000000000000 [Eh]
	 SCS Opposite-Spin Energy  =      -0.0203544467103338 [Eh]
	 SCS Correlation Energy    =      -0.0203544467103338 [Eh]
	 SCS Total Energy          =      -7.2567394036461144 [Eh]
	-----------------------------------------------------------

*** Psi4 exiting successfully. Buy a developer a beer!
