                               Psi4 1.8.2 release

  ==> Input File <==

--------------------------------------------------------------------------
MEMORY 60 GB

molecule dimer {
0 1
Gh(Li)     0.000000     0.000000     0.000000
Gh(O)     -0.640365     1.689708    -0.437904
Gh(H)     -0.947848     2.436251     0.118257
Gh(H)     -0.375875     2.071206    -1.343003
O         -0.938579    -0.924804    -1.558802
H         -1.517519    -0.334733    -2.007314
H         -0.339862    -1.423081    -2.166337
Gh(O)      1.855579     0.005682    -0.344725
Gh(H)      2.067217    -0.495737    -1.130002
Gh(H)      2.498269    -0.321495     0.326646
Gh(O)     -0.731485    -1.139576     1.603199
Gh(H)     -0.628082    -0.542600     2.334045
Gh(H)     -1.652610    -1.061287     1.341316

units ang
no_reorient
no_com
symmetry c1
}

set {
basis        aug-cc-pVTZ
scf_type     df
}

energy("mp2")
--------------------------------------------------------------------------

    Molecular point group: c1

    Geometry (in Angstrom), charge = 0, multiplicity = 1:

       Center              X                  Y                   Z               Mass
    ------------   -----------------  -----------------  -----------------  -----------------
      Gh(LI)          0.000000000000     0.000000000000     0.000000000000     7.016003436600
      Gh(O)          -0.640365000000     1.689708000000    -0.437904000000    15.994914619570
      Gh(H)          -0.947848000000     2.436251000000     0.118257000000     1.007825032230
      Gh(H)          -0.375875000000     2.071206000000    -1.343003000000     1.007825032230
         O           -0.938579000000    -0.924804000000    -1.558802000000    15.994914619570
         H           -1.517519000000    -0.334733000000    -2.007314000000     1.007825032230
         H           -0.339862000000    -1.423081000000    -2.166337000000     1.007825032230
      Gh(O)           1.855579000000     0.005682000000    -0.344725000000    15.994914619570
      Gh(H)           2.067217000000    -0.495737000000    -1.130002000000     1.007825032230
      Gh(H)           2.498269000000    -0.321495000000     0.326646000000     1.007825032230
      Gh(O)          -0.731485000000    -1.139576000000     1.603199000000    15.994914619570
      Gh(H)          -0.628082000000    -0.542600000000     2.334045000000     1.007825032230
      Gh(H)          -1.652610000000    -1.061287000000     1.341316000000     1.007825032230

  Charge       = 0
  Multiplicity = 1
  Basis Set: AUG-CC-PVTZ
    Blend: AUG-CC-PVTZ
  Basis Set: (AUG-CC-PVTZ AUX)
    Blend: AUG-CC-PVTZ-JKFIT + DEF2-UNIVERSAL-JKFIT

    Orbital Energies [Eh]
    ---------------------

    Doubly Occupied:

       1A    -20.563894     2A     -1.344417     3A     -0.729932
       4A     -0.566380     5A     -0.507065

  @DF-RHF Final Energy:   -76.05760225181578

   => Energetics <=

    Nuclear Repulsion Energy =              9.1151911068600278
    One-Electron Energy =                -122.9222086743816078
    Two-Electron Energy =                  37.7494153157058179
    Total Energy =                        -76.0576022518157657
 Dipole X            :         17.7082414          -17.6991995            0.0090420
 Dipole Y            :         17.3691423          -17.3027973            0.0663451
 Dipole Z            :         30.7340215          -31.4527282           -0.7187067
 Magnitude           :                                                    0.7218191
  Basis Set: (AUG-CC-PVTZ AUX)
    Blend: AUG-CC-PVTZ-RI + DEF2-QZVPP-RI
	 Reference Energy          =     -76.0576022518157799 [Eh]
	 Singles Energy            =      -0.0000000000000000 [Eh]
	 Same-Spin Energy          =      -0.0684666912407677 [Eh]
	 Opposite-Spin Energy      =      -0.2159988206480563 [Eh]
	 Correlation Energy        =      -0.2844655118888240 [Eh]
	 Total Energy              =     -76.3420677637046055 [Eh]

	 ================> DF-SCS-MP2 Energies <==================
	-----------------------------------------------------------
	 SCS Same-Spin Scale       =       0.3333333333333333 [-]
	 SCS Opposite-Spin Scale   =       1.2000000000000000 [-]
	 SCS Same-Spin Energy      =      -0.0228222304135892 [Eh]
	 SCS Opposite-Spin Energy  =      -0.2591985847776676 [Eh]
	 SCS Correlation Energy    =      -0.2820208151912568 [Eh]
	 SCS Total Energy          =     -76.3396230670070395 [Eh]
	-----------------------------------------------------------

*** Psi4 exiting successfully. Buy a developer a beer!
