                               Psi4 1.8.2 release

  ==> Input File <==

--------------------------------------------------------------------------
MEMORY 60 GB

molecule dimer {
0 1
Gh(Li)     0.000000     0.000000     0.000000
Gh(O)      1.871880     0.461571     0.368550
Gh(H)      2.285974     0.571186    -0.568959
Gh(H)      2.640293     0.187905     0.999170
Gh(O)     -0.434010     0.027323    -1.814838
Gh(H)     -1.386091     0.043525    -1.966203
Gh(H)     -0.179400     0.553937    -2.571507
O         -0.248199    -1.804611     0.671574
H          0.614937    -2.214034     0.676546
H         -0.801980    -2.158788    -0.016634
Gh(O)     -1.170794     0.970161     1.468626
Gh(H)     -0.562692     1.300187     2.160833
Gh(H)     -1.660722     0.184687     1.808510

units ang
no_reorient
no_com
symmetry c1
}

set {
basis        aug-cc-pVTZ
scf_type     df
}

energy("mp2")
--------------------------------------------------------------------------

    Molecular point group: c1

    Geometry (in Angstrom), charge = 0, multiplicity = 1:

       Center              X                  Y                   Z               Mass
    ------------   -----------------  -----------------  -----------------  -----------------
      Gh(LI)          0.000000000000     0.000000000000     0.000000000000     7.016003436600
      Gh(O)           1.871880000000     0.461571000000     0.368550000000    15.994914619570
      Gh(H)           2.285974000000     0.571186000000    -0.568959000000     1.007825032230
      Gh(H)           2.640293000000     0.187905000000     0.999170000000     1.007825032230
      Gh(O)          -0.434010000000     0.027323000000    -1.814838000000    15.994914619570
      Gh(H)          -1.386091000000     0.043525000000    -1.966203000000     1.007825032230
      Gh(H)          -0.179400000000     0.553937000000    -2.571507000000     1.007825032230
         O           -0.248199000000    -1.804611000000     0.671574000000    15.994914619570
         H            0.614937000000    -2.214034000000     0.676546000000     1.007825032230
         H           -0.801980000000    -2.158788000000    -0.016634000000     1.007825032230
      Gh(O)          -1.170794000000     0.970161000000     1.468626000000    15.994914619570
      Gh(H)          -0.562692000000     1.300187000000     2.160833000000     1.007825032230
      Gh(H)          -1.660722000000     0.184687000000     1.808510000000     1.007825032230

  Charge       = 0
  Multiplicity = 1
  Basis Set: AUG-CC-PVTZ
    Blend: AUG-CC-PVTZ
  Basis Set: (AUG-CC-PVTZ AUX)
    Blend: AUG-CC-PVTZ-JKFIT + DEF2-UNIVERSAL-JKFIT

    Orbital Energies [Eh]
    ---------------------

    Doubly Occupied:

       1A    -20.563026     2A     -1.350351     3A     -0.733185
       4A     -0.571571     5A     -0.508485

  @DF-RHF Final Energy:   -76.06013127370716

   => Energetics <=

    Nuclear Repulsion Energy =              9.2148769261484684
    One-Electron Energy =                -123.0967763132015875
    Two-Electron Energy =                  37.8217681133459749
    Total Energy =                        -76.0601312737071567
 Dipole X            :          4.3160926           -4.1056851            0.2104075
 Dipole Y            :         35.0243290          -35.5452004           -0.5208714
 Dipole Z            :        -11.8656293           11.3997804           -0.4658489
 Magnitude           :                                                    0.7297901
  Basis Set: (AUG-CC-PVTZ AUX)
    Blend: AUG-CC-PVTZ-RI + DEF2-QZVPP-RI
	 Reference Energy          =     -76.0601312737071567 [Eh]
	 Singles Energy            =      -0.0000000000000000 [Eh]
	 Same-Spin Energy          =      -0.0682962414216771 [Eh]
	 Opposite-Spin Energy      =      -0.2155460447356752 [Eh]
	 Correlation Energy        =      -0.2838422861573524 [Eh]
	 Total Energy              =     -76.3439735598645086 [Eh]

	 ================> DF-SCS-MP2 Energies <==================
	-----------------------------------------------------------
	 SCS Same-Spin Scale       =       0.3333333333333333 [-]
	 SCS Opposite-Spin Scale   =       1.2000000000000000 [-]
	 SCS Same-Spin Energy      =      -0.0227654138072257 [Eh]
	 SCS Opposite-Spin Energy  =      -0.2586552536828103 [Eh]
	 SCS Correlation Energy    =      -0.2814206674900360 [Eh]
	 SCS Total Energy          =     -76.3415519411971957 [Eh]
	-----------------------------------------------------------

*** Psi4 exiting successfully. Buy a developer a beer!
