                               Psi4 1.8.2 release

  ==> Input File <==

--------------------------------------------------------------------------
MEMORY 60 GB

molecule dimer {
1 1
Li         0.000000     0.000000     0.000000
Gh(O)      1.110215    -1.098530    -1.443038
Gh(H)      1.598295    -1.954221    -1.278074
Gh(H)      1.207274    -0.949489    -2.430059
Gh(O)     -1.257824    -1.305400     0.453129
Gh(H)     -2.221511    -1.279369     0.433411
Gh(H)     -1.048101    -1.335662     1.390767
Gh(O)     -0.051878     1.572965     1.008421
Gh(H)      0.239274     2.445122     1.163302
Gh(H)     -0.498900     1.346008     1.847540

units ang
no_reorient
no_com
symmetry c1
}

set {
basis        aug-cc-pVTZ
scf_type     df
}

energy("mp2")
--------------------------------------------------------------------------

    Molecular point group: c1

    Geometry (in Angstrom), charge = 1, multiplicity = 1:

       Center              X                  Y                   Z               Mass
    ------------   -----------------  -----------------  -----------------  -----------------
         LI           0.000000000000     0.000000000000     0.000000000000     7.016003436600
      Gh(O)           1.110215000000    -1.098530000000    -1.443038000000    15.994914619570
      Gh(H)           1.598295000000    -1.954221000000    -1.278074000000     1.007825032230
      Gh(H)           1.207274000000    -0.949489000000    -2.430059000000     1.007825032230
      Gh(O)          -1.257824000000    -1.305400000000     0.453129000000    15.994914619570
      Gh(H)          -2.221511000000    -1.279369000000     0.433411000000     1.007825032230
      Gh(H)          -1.048101000000    -1.335662000000     1.390767000000     1.007825032230
      Gh(O)          -0.051878000000     1.572965000000     1.008421000000    15.994914619570
      Gh(H)           0.239274000000     2.445122000000     1.163302000000     1.007825032230
      Gh(H)          -0.498900000000     1.346008000000     1.847540000000     1.007825032230

  Charge       = 1
  Multiplicity = 1
  Basis Set: AUG-CC-PVTZ
    Blend: AUG-CC-PVTZ
  Basis Set: (AUG-CC-PVTZ AUX)
    Blend: AUG-CC-PVTZ-JKFIT + DEF2-UNIVERSAL-JKFIT

    Orbital Energies [Eh]
    ---------------------

    Doubly Occupied:

       1A     -2.792355

  @DF-RHF Final Energy:    -7.23638453063863

   => Energetics <=

    Nuclear Repulsion Energy =              0.0000000000000000
    One-Electron Energy =                  -8.8880584204811406
    Two-Electron Energy =                   1.6516738898425063
    Total Energy =                         -7.2363845306386345
 Dipole X            :          0.0000095            0.0000000            0.0000095
 Dipole Y            :          0.0000019            0.0000000            0.0000019
 Dipole Z            :         -0.0000058            0.0000000           -0.0000058
 Magnitude           :                                                    0.0000113
  Basis Set: (AUG-CC-PVTZ AUX)
    Blend: AUG-CC-PVTZ-RI + DEF2-QZVPP-RI
	 Reference Energy          =      -7.2363845306386336 [Eh]
	 Singles Energy            =      -0.0000000000000000 [Eh]
	 Same-Spin Energy          =       0.0000000000000000 [Eh]
	 Opposite-Spin Energy      =      -0.0157952398980244 [Eh]
	 Correlation Energy        =      -0.0157952398980244 [Eh]
	 Total Energy              =      -7.2521797705366584 [Eh]

	 ================> DF-SCS-MP2 Energies <==================
	-----------------------------------------------------------
	 SCS Same-Spin Scale       =       0.3333333333333333 [-]
	 SCS Opposite-Spin Scale   =       1.2000000000000000 [-]
	 SCS Same-Spin Energy      =       0.0000000000000000 [Eh]
	 SCS Opposite-Spin Energy  =      -0.0189542878776293 [Eh]
	 SCS Correlation Energy    =      -0.0189542878776293 [Eh]
	 SCS Total Energy          =      -7.2553388185162628 [Eh]
	-----------------------------------------------------------

*** Psi4 exiting successfully. Buy a developer a beer!
