                               Psi4 1.8.2 release

  ==> Input File <==

--------------------------------------------------------------------------
MEMORY 60 GB

molecule dimer {
0 1
Gh(Li)     0.000000     0.000000     0.000000
Gh(O)     -0.815512    -1.973069     0.213618
Gh(H)     -1.442123    -2.343453     0.881888
Gh(H)     -0.002592    -2.481571     0.216923
O          1.699625     0.035978    -1.109364
H          2.234679    -0.288064    -0.379152
H          2.152471     0.871850    -1.472594
Gh(O)      0.954529     0.704439     1.627529
Gh(H)      0.792200     1.656184     1.570414
Gh(H)      0.354105     0.450627     2.342875
Gh(O)     -1.562320     1.135689    -0.344199
Gh(H)     -1.999637     1.483420     0.437688
Gh(H)     -1.205724     1.935640    -0.797850

units ang
no_reorient
no_com
symmetry c1
}

set {
basis        aug-cc-pVTZ
scf_type     df
}

energy("mp2")
--------------------------------------------------------------------------

    Molecular point group: c1

    Geometry (in Angstrom), charge = 0, multiplicity = 1:

       Center              X                  Y                   Z               Mass
    ------------   -----------------  -----------------  -----------------  -----------------
      Gh(LI)          0.000000000000     0.000000000000     0.000000000000     7.016003436600
      Gh(O)          -0.815512000000    -1.973069000000     0.213618000000    15.994914619570
      Gh(H)          -1.442123000000    -2.343453000000     0.881888000000     1.007825032230
      Gh(H)          -0.002592000000    -2.481571000000     0.216923000000     1.007825032230
         O            1.699625000000     0.035978000000    -1.109364000000    15.994914619570
         H            2.234679000000    -0.288064000000    -0.379152000000     1.007825032230
         H            2.152471000000     0.871850000000    -1.472594000000     1.007825032230
      Gh(O)           0.954529000000     0.704439000000     1.627529000000    15.994914619570
      Gh(H)           0.792200000000     1.656184000000     1.570414000000     1.007825032230
      Gh(H)           0.354105000000     0.450627000000     2.342875000000     1.007825032230
      Gh(O)          -1.562320000000     1.135689000000    -0.344199000000    15.994914619570
      Gh(H)          -1.999637000000     1.483420000000     0.437688000000     1.007825032230
      Gh(H)          -1.205724000000     1.935640000000    -0.797850000000     1.007825032230

  Charge       = 0
  Multiplicity = 1
  Basis Set: AUG-CC-PVTZ
    Blend: AUG-CC-PVTZ
  Basis Set: (AUG-CC-PVTZ AUX)
    Blend: AUG-CC-PVTZ-JKFIT + DEF2-UNIVERSAL-JKFIT

    Orbital Energies [Eh]
    ---------------------

    Doubly Occupied:

       1A    -20.570982     2A     -1.336116     3A     -0.705879
       4A     -0.572685     5A     -0.506885

  @DF-RHF Final Energy:   -76.05523034498434

   => Energetics <=

    Nuclear Repulsion Energy =              8.8942682945415790
    One-Electron Energy =                -122.5138994543972331
    Two-Electron Energy =                  37.5644008148713198
    Total Energy =                        -76.0552303449843379
 Dipole X            :        -33.3349414           33.9851181            0.6501767
 Dipole Y            :         -1.3169421            1.6471042            0.3301621
 Dipole Z            :         20.5176611          -20.2704459            0.2472152
 Magnitude           :                                                    0.7699689
  Basis Set: (AUG-CC-PVTZ AUX)
    Blend: AUG-CC-PVTZ-RI + DEF2-QZVPP-RI
	 Reference Energy          =     -76.0552303449843379 [Eh]
	 Singles Energy            =      -0.0000000000000000 [Eh]
	 Same-Spin Energy          =      -0.0689320960242039 [Eh]
	 Opposite-Spin Energy      =      -0.2176312042254488 [Eh]
	 Correlation Energy        =      -0.2865633002496528 [Eh]
	 Total Energy              =     -76.3417936452339916 [Eh]

	 ================> DF-SCS-MP2 Energies <==================
	-----------------------------------------------------------
	 SCS Same-Spin Scale       =       0.3333333333333333 [-]
	 SCS Opposite-Spin Scale   =       1.2000000000000000 [-]
	 SCS Same-Spin Energy      =      -0.0229773653414013 [Eh]
	 SCS Opposite-Spin Energy  =      -0.2611574450705386 [Eh]
	 SCS Correlation Energy    =      -0.2841348104119399 [Eh]
	 SCS Total Energy          =     -76.3393651553962798 [Eh]
	-----------------------------------------------------------

*** Psi4 exiting successfully. Buy a developer a beer!
