                               Psi4 1.8.2 release

  ==> Input File <==

--------------------------------------------------------------------------
MEMORY 60 GB

molecule dimer {
0 1
Gh(Li)     0.000000     0.000000     0.000000
Gh(O)      1.110215    -1.098530    -1.443038
Gh(H)      1.598295    -1.954221    -1.278074
Gh(H)      1.207274    -0.949489    -2.430059
O         -1.257824    -1.305400     0.453129
H         -2.221511    -1.279369     0.433411
H         -1.048101    -1.335662     1.390767
Gh(O)     -0.051878     1.572965     1.008421
Gh(H)      0.239274     2.445122     1.163302
Gh(H)     -0.498900     1.346008     1.847540

units ang
no_reorient
no_com
symmetry c1
}

set {
basis        aug-cc-pVTZ
scf_type     df
}

energy("mp2")
--------------------------------------------------------------------------

    Molecular point group: c1

    Geometry (in Angstrom), charge = 0, multiplicity = 1:

       Center              X                  Y                   Z               Mass
    ------------   -----------------  -----------------  -----------------  -----------------
      Gh(LI)          0.000000000000     0.000000000000     0.000000000000     7.016003436600
      Gh(O)           1.110215000000    -1.098530000000    -1.443038000000    15.994914619570
      Gh(H)           1.598295000000    -1.954221000000    -1.278074000000     1.007825032230
      Gh(H)           1.207274000000    -0.949489000000    -2.430059000000     1.007825032230
         O           -1.257824000000    -1.305400000000     0.453129000000    15.994914619570
         H           -2.221511000000    -1.279369000000     0.433411000000     1.007825032230
         H           -1.048101000000    -1.335662000000     1.390767000000     1.007825032230
      Gh(O)          -0.051878000000     1.572965000000     1.008421000000    15.994914619570
      Gh(H)           0.239274000000     2.445122000000     1.163302000000     1.007825032230
      Gh(H)          -0.498900000000     1.346008000000     1.847540000000     1.007825032230

  Charge       = 0
  Multiplicity = 1
  Basis Set: AUG-CC-PVTZ
    Blend: AUG-CC-PVTZ
  Basis Set: (AUG-CC-PVTZ AUX)
    Blend: AUG-CC-PVTZ-JKFIT + DEF2-UNIVERSAL-JKFIT

    Orbital Energies [Eh]
    ---------------------

    Doubly Occupied:

       1A    -20.568266     2A     -1.351136     3A     -0.713359
       4A     -0.585147     5A     -0.510072

  @DF-RHF Final Energy:   -76.06025618629772

   => Energetics <=

    Nuclear Repulsion Energy =              9.1435320009424927
    One-Electron Energy =                -122.9516127810205290
    Two-Electron Energy =                  37.7478245937803010
    Total Energy =                        -76.0602561862977211
 Dipole X            :         24.6958327          -25.1942142           -0.4983815
 Dipole Y            :         24.6734365          -24.6764803           -0.0030438
 Dipole Z            :         -9.6901107           10.2975145            0.6074038
 Magnitude           :                                                    0.7857053
  Basis Set: (AUG-CC-PVTZ AUX)
    Blend: AUG-CC-PVTZ-RI + DEF2-QZVPP-RI
	 Reference Energy          =     -76.0602561862977211 [Eh]
	 Singles Energy            =      -0.0000000000000000 [Eh]
	 Same-Spin Energy          =      -0.0685294357075110 [Eh]
	 Opposite-Spin Energy      =      -0.2162453802958076 [Eh]
	 Correlation Energy        =      -0.2847748160033186 [Eh]
	 Total Energy              =     -76.3450310023010417 [Eh]

	 ================> DF-SCS-MP2 Energies <==================
	-----------------------------------------------------------
	 SCS Same-Spin Scale       =       0.3333333333333333 [-]
	 SCS Opposite-Spin Scale   =       1.2000000000000000 [-]
	 SCS Same-Spin Energy      =      -0.0228431452358370 [Eh]
	 SCS Opposite-Spin Energy  =      -0.2594944563549690 [Eh]
	 SCS Correlation Energy    =      -0.2823376015908061 [Eh]
	 SCS Total Energy          =     -76.3425937878885321 [Eh]
	-----------------------------------------------------------

*** Psi4 exiting successfully. Buy a developer a beer!
