                               Psi4 1.8.2 release

  ==> Input File <==

--------------------------------------------------------------------------
MEMORY 60 GB

molecule dimer {
1 1
Li         0.000000     0.000000     0.000000
Gh(O)      0.555055     1.756291    -0.173155
Gh(H)      1.019401     2.013188    -0.983328
Gh(H)      0.529311     2.536414     0.420306
Gh(O)     -1.811688     0.111938    -0.737650
Gh(H)     -2.603305     0.554410    -0.404862
Gh(H)     -2.093361    -0.742220    -1.185759
Gh(O)      0.926386    -1.366764    -1.203158
Gh(H)      0.261493    -1.902613    -1.696554
Gh(H)      1.278228    -0.703441    -1.798368
Gh(O)     -0.610731    -0.311488     1.950183
Gh(H)     -1.529573    -0.612056     1.947277
Gh(H)     -0.415540     0.410401     2.511917

units ang
no_reorient
no_com
symmetry c1
}

set {
basis        aug-cc-pVTZ
scf_type     df
}

energy("mp2")
--------------------------------------------------------------------------

    Molecular point group: c1

    Geometry (in Angstrom), charge = 1, multiplicity = 1:

       Center              X                  Y                   Z               Mass
    ------------   -----------------  -----------------  -----------------  -----------------
         LI           0.000000000000     0.000000000000     0.000000000000     7.016003436600
      Gh(O)           0.555055000000     1.756291000000    -0.173155000000    15.994914619570
      Gh(H)           1.019401000000     2.013188000000    -0.983328000000     1.007825032230
      Gh(H)           0.529311000000     2.536414000000     0.420306000000     1.007825032230
      Gh(O)          -1.811688000000     0.111938000000    -0.737650000000    15.994914619570
      Gh(H)          -2.603305000000     0.554410000000    -0.404862000000     1.007825032230
      Gh(H)          -2.093361000000    -0.742220000000    -1.185759000000     1.007825032230
      Gh(O)           0.926386000000    -1.366764000000    -1.203158000000    15.994914619570
      Gh(H)           0.261493000000    -1.902613000000    -1.696554000000     1.007825032230
      Gh(H)           1.278228000000    -0.703441000000    -1.798368000000     1.007825032230
      Gh(O)          -0.610731000000    -0.311488000000     1.950183000000    15.994914619570
      Gh(H)          -1.529573000000    -0.612056000000     1.947277000000     1.007825032230
      Gh(H)          -0.415540000000     0.410401000000     2.511917000000     1.007825032230

  Charge       = 1
  Multiplicity = 1
  Basis Set: AUG-CC-PVTZ
    Blend: AUG-CC-PVTZ
  Basis Set: (AUG-CC-PVTZ AUX)
    Blend: AUG-CC-PVTZ-JKFIT + DEF2-UNIVERSAL-JKFIT

    Orbital Energies [Eh]
    ---------------------

    Doubly Occupied:

       1A     -2.792353

  @DF-RHF Final Energy:    -7.23638484857911

   => Energetics <=

    Nuclear Repulsion Energy =              0.0000000000000000
    One-Electron Energy =                  -8.8880640206339958
    Two-Electron Energy =                   1.6516791720548840
    Total Energy =                         -7.2363848485791120
 Dipole X            :         -0.0000035            0.0000000           -0.0000035
 Dipole Y            :         -0.0000037            0.0000000           -0.0000037
 Dipole Z            :          0.0000058            0.0000000            0.0000058
 Magnitude           :                                                    0.0000077
  Basis Set: (AUG-CC-PVTZ AUX)
    Blend: AUG-CC-PVTZ-RI + DEF2-QZVPP-RI
	 Reference Energy          =      -7.2363848485791120 [Eh]
	 Singles Energy            =      -0.0000000000000000 [Eh]
	 Same-Spin Energy          =       0.0000000000000000 [Eh]
	 Opposite-Spin Energy      =      -0.0169467359198844 [Eh]
	 Correlation Energy        =      -0.0169467359198844 [Eh]
	 Total Energy              =      -7.2533315844989961 [Eh]

	 ================> DF-SCS-MP2 Energies <==================
	-----------------------------------------------------------
	 SCS Same-Spin Scale       =       0.3333333333333333 [-]
	 SCS Opposite-Spin Scale   =       1.2000000000000000 [-]
	 SCS Same-Spin Energy      =       0.0000000000000000 [Eh]
	 SCS Opposite-Spin Energy  =      -0.0203360831038613 [Eh]
	 SCS Correlation Energy    =      -0.0203360831038613 [Eh]
	 SCS Total Energy          =      -7.2567209316829731 [Eh]
	-----------------------------------------------------------

*** Psi4 exiting successfully. Buy a developer a beer!
