                               Psi4 1.8.2 release

  ==> Input File <==

--------------------------------------------------------------------------
MEMORY 60 GB

molecule dimer {
1 1
Li         0.000000     0.000000     0.000000
O         -1.493181     0.812463    -0.760642
H         -2.274485     0.118561    -0.860742
H         -1.946136     1.446441    -0.200871
O         -0.238550    -1.490324     0.929417
H         -0.382439    -2.409755     0.616696
H         -0.583433    -1.630923     1.807732
O          0.483877     1.296141     1.431392
H          0.764361     0.733210     2.208636
H         -0.078353     2.024658     1.715524
O          1.736640    -0.390823    -1.112667
H          1.820394    -1.119034    -1.789990
H          2.001306     0.393263    -1.580594

units ang
no_reorient
no_com
symmetry c1
}

set {
basis        aug-cc-pVTZ
scf_type     df
}

energy("mp2")
--------------------------------------------------------------------------

    Molecular point group: c1

    Geometry (in Angstrom), charge = 1, multiplicity = 1:

       Center              X                  Y                   Z               Mass
    ------------   -----------------  -----------------  -----------------  -----------------
         LI           0.000000000000     0.000000000000     0.000000000000     7.016003436600
         O           -1.493181000000     0.812463000000    -0.760642000000    15.994914619570
         H           -2.274485000000     0.118561000000    -0.860742000000     1.007825032230
         H           -1.946136000000     1.446441000000    -0.200871000000     1.007825032230
         O           -0.238550000000    -1.490324000000     0.929417000000    15.994914619570
         H           -0.382439000000    -2.409755000000     0.616696000000     1.007825032230
         H           -0.583433000000    -1.630923000000     1.807732000000     1.007825032230
         O            0.483877000000     1.296141000000     1.431392000000    15.994914619570
         H            0.764361000000     0.733210000000     2.208636000000     1.007825032230
         H           -0.078353000000     2.024658000000     1.715524000000     1.007825032230
         O            1.736640000000    -0.390823000000    -1.112667000000    15.994914619570
         H            1.820394000000    -1.119034000000    -1.789990000000     1.007825032230
         H            2.001306000000     0.393263000000    -1.580594000000     1.007825032230

  Charge       = 1
  Multiplicity = 1
  Basis Set: AUG-CC-PVTZ
    Blend: AUG-CC-PVTZ
  Basis Set: (AUG-CC-PVTZ AUX)
    Blend: AUG-CC-PVTZ-JKFIT + DEF2-UNIVERSAL-JKFIT

    Orbital Energies [Eh]
    ---------------------

    Doubly Occupied:

       1A    -20.766873     2A    -20.760997     3A    -20.745024
       4A    -20.732217     5A     -2.524598     6A     -1.559080
       7A     -1.529468     8A     -1.519758     9A     -1.511223
      10A     -0.902158    11A     -0.892883    12A     -0.871442
      13A     -0.871181    14A     -0.830077    15A     -0.792012
      16A     -0.764846    17A     -0.755366    18A     -0.723213
      19A     -0.705502    20A     -0.688075    21A     -0.678553

  @DF-RHF Final Energy:  -311.60666119086352

   => Energetics <=

    Nuclear Repulsion Energy =            163.8398649627778525
    One-Electron Energy =                -748.6439529405541862
    Two-Electron Energy =                 273.1974267869128425
    Total Energy =                       -311.6066611908635196
 Dipole X            :         -7.1727043            6.1066556           -1.0660486
 Dipole Y            :         -3.2109731            2.6004087           -0.6105644
 Dipole Z            :        -10.2482947           10.9913860            0.7430913
 Magnitude           :                                                    1.4357692
  Basis Set: (AUG-CC-PVTZ AUX)
    Blend: AUG-CC-PVTZ-RI + DEF2-QZVPP-RI
	 Reference Energy          =    -311.6066611908635196 [Eh]
	 Singles Energy            =      -0.0000000000000000 [Eh]
	 Same-Spin Energy          =      -0.2773630707781829 [Eh]
	 Opposite-Spin Energy      =      -0.8836770963386732 [Eh]
	 Correlation Energy        =      -1.1610401671168562 [Eh]
	 Total Energy              =    -312.7677013579803997 [Eh]

	 ================> DF-SCS-MP2 Energies <==================
	-----------------------------------------------------------
	 SCS Same-Spin Scale       =       0.3333333333333333 [-]
	 SCS Opposite-Spin Scale   =       1.2000000000000000 [-]
	 SCS Same-Spin Energy      =      -0.0924543569260610 [Eh]
	 SCS Opposite-Spin Energy  =      -1.0604125156064077 [Eh]
	 SCS Correlation Energy    =      -1.1528668725324687 [Eh]
	 SCS Total Energy          =    -312.7595280633959760 [Eh]
	-----------------------------------------------------------

*** Psi4 exiting successfully. Buy a developer a beer!
