                               Psi4 1.9 release

  ==> Input File <==

--------------------------------------------------------------------------
MEMORY 60 GB

molecule dimer {
1 1
Li     0.000000     0.000000     0.000000
--
0 1
O     -0.726839    -0.118102     1.911175
H     -0.115967    -0.212325     2.688357
H     -1.622471    -0.399297     2.175709
O      0.992835     1.593091     0.218464
H      0.702150     2.401769     0.685617
H      1.134015     1.873018    -0.713415
O      0.978893    -1.627265    -0.419354
H      0.322428    -2.297315    -0.615808
H      1.423814    -1.960308     0.436537
O     -1.645151    -0.250685    -1.119639
H     -1.834142     0.556153    -1.664355
H     -2.442203    -0.433569    -0.617930

units ang
no_reorient
no_com
symmetry c1
}

set {
basis        aug-cc-pVTZ
scf_type     df
}

energy("mp2", bsse_type="cp")
--------------------------------------------------------------------------

                               Psi4 1.9 release
    Molecular point group: c1
  Charge       = 0
  Multiplicity = 1
  Basis Set: AUG-CC-PVTZ
    Blend: AUG-CC-PVTZ
  Basis Set: (AUG-CC-PVTZ AUX)
    Blend: AUG-CC-PVTZ-JKFIT + DEF2-UNIVERSAL-JKFIT
  @DF-RHF Final Energy:  -304.20942036104231
    Total Energy =                       -304.2094203610423619
 Dipole X            :          9.5828689          -10.6476089           -1.0647400
 Dipole Y            :          7.2354719           -6.9836001            0.2518718
 Dipole Z            :        -12.6679780           13.4168287            0.7488507
 Magnitude           :                                                    1.3258537
  Basis Set: (AUG-CC-PVTZ AUX)
    Blend: AUG-CC-PVTZ-RI + DEF2-QZVPP-RI
	 Reference Energy          =    -304.2094203610423051 [Eh]
	 Singles Energy            =      -0.0000000000000000 [Eh]
	 Same-Spin Energy          =      -0.2783058358497023 [Eh]
	 Opposite-Spin Energy      =      -0.8730249159177668 [Eh]
	 Correlation Energy        =      -1.1513307517674691 [Eh]
	 Total Energy              =    -305.3607511128097940 [Eh]
	 SCS Total Energy          =    -305.3498188720935218 [Eh]
                               Psi4 1.9 release
    Molecular point group: c1
  Multiplicity = 1
  Basis Set: AUG-CC-PVTZ
    Blend: AUG-CC-PVTZ
  Basis Set: (AUG-CC-PVTZ AUX)
    Blend: AUG-CC-PVTZ-JKFIT + DEF2-UNIVERSAL-JKFIT
  @DF-RHF Final Energy:    -7.23638487152558
    Total Energy =                         -7.2363848715255781
  Basis Set: (AUG-CC-PVTZ AUX)
	 Singles Energy            =      -0.0000000000000000 [Eh]
	 Same-Spin Energy          =       0.0000000000000000 [Eh]
	 Opposite-Spin Energy      =      -0.0168980321328398 [Eh]
	 Correlation Energy        =      -0.0168980321328398 [Eh]
	 Total Energy              =      -7.2532829036584179 [Eh]
	 SCS Total Energy          =      -7.2566625100849862 [Eh]
                               Psi4 1.9 release
    Molecular point group: c1

    Geometry (in Bohr), charge = 1, multiplicity = 1:

       Center              X                  Y                   Z               Mass
    ------------   -----------------  -----------------  -----------------  -----------------
         LI           0.000000000000     0.000000000000     0.000000000000     7.016003436600
         O           -1.373526647302    -0.223180434869     3.611597327822    15.994914619570
         H           -0.219145869591    -0.401236099588     5.080258457457     1.007825032230
         H           -3.066025836498    -0.754561972717     4.111494138694     1.007825032230
         O            1.876186237769     3.010505682932     0.412837128272    15.994914619570
         H            1.326871198990     4.538685626615     1.295628356958     1.007825032230
         H            2.142977772161     3.539491048053    -1.348158963793     1.007825032230
         O            1.849839676128    -3.075085183543    -0.792464209615    15.994914619570
         H            0.609300615179    -4.341296173906    -1.163708465866     1.007825032230
         H            2.690618513593    -3.704445241544     0.824935373629     1.007825032230
         O           -3.108884825023    -0.473725993760    -2.115811069381    15.994914619570
         H           -3.466026055199     1.050976853852    -3.145175125536     1.007825032230
         H           -4.615094812771    -0.819326666489    -1.167718464704     1.007825032230

  Charge       = 1
  Multiplicity = 1
  Basis Set: AUG-CC-PVTZ
    Blend: AUG-CC-PVTZ
  Basis Set: (AUG-CC-PVTZ AUX)
    Blend: AUG-CC-PVTZ-JKFIT + DEF2-UNIVERSAL-JKFIT

    Orbital Energies [Eh]
    ---------------------

    Doubly Occupied:

       1A    -20.756848     2A    -20.754797     3A    -20.752332
       4A    -20.744885     5A     -2.535051     6A     -1.536299
       7A     -1.533069     8A     -1.524602     9A     -1.517549
      10A     -0.903164    11A     -0.897415    12A     -0.892601
      13A     -0.875312    14A     -0.791727    15A     -0.783746
      16A     -0.771351    17A     -0.761986    18A     -0.710428
      19A     -0.704592    20A     -0.698311    21A     -0.686230

  @DF-RHF Final Energy:  -311.61608926770634

   => Energetics <=

    Nuclear Repulsion Energy =            161.8284872282908111
    One-Electron Energy =                -744.6245524958403621
    Two-Electron Energy =                 271.1799759998432364
    Total Energy =                       -311.6160892677063430
 Dipole X            :          9.4738722          -10.6476089           -1.1737367
 Dipole Y            :          7.2046974           -6.9836001            0.2210974
 Dipole Z            :        -12.5075948           13.4168287            0.9092339
 Magnitude           :                                                    1.5010824
  Basis Set: (AUG-CC-PVTZ AUX)
    Blend: AUG-CC-PVTZ-RI + DEF2-QZVPP-RI
	 Reference Energy          =    -311.6160892677063430 [Eh]
	 Singles Energy            =      -0.0000000000000000 [Eh]
	 Same-Spin Energy          =      -0.2768191686388037 [Eh]
	 Opposite-Spin Energy      =      -0.8825572110895691 [Eh]
	 Correlation Energy        =      -1.1593763797283727 [Eh]
	 Total Energy              =    -312.7754656474347144 [Eh]

	 ================> DF-SCS-MP2 Energies <==================
	-----------------------------------------------------------
	 SCS Same-Spin Scale       =       0.3333333333333333 [-]
	 SCS Opposite-Spin Scale   =       1.2000000000000000 [-]
	 SCS Same-Spin Energy      =      -0.0922730562129346 [Eh]
	 SCS Opposite-Spin Energy  =      -1.0590686533074829 [Eh]
	 SCS Correlation Energy    =      -1.1513417095204175 [Eh]
	 SCS Total Energy          =    -312.7674309772267520 [Eh]
	-----------------------------------------------------------

*** Psi4 exiting successfully. Buy a developer a beer!
