                               Psi4 1.8.2 release

  ==> Input File <==

--------------------------------------------------------------------------
MEMORY 60 GB

molecule dimer {
1 1
Li         0.000000     0.000000     0.000000
O          1.559703    -0.841487     0.540327
H          1.536049    -1.800076     0.875428
H          2.332392    -0.765268    -0.044245
O          0.510627     1.846312     0.670480
H         -0.180696     2.157729     1.332101
H          1.456462     2.205848     0.908097
O         -0.805083    -0.528639    -1.542551
H         -1.443239     0.055871    -2.007726
H         -0.144858    -0.758380    -2.221599

units ang
no_reorient
no_com
symmetry c1
}

set {
basis        aug-cc-pVTZ
scf_type     df
}

energy("mp2")
--------------------------------------------------------------------------

    Molecular point group: c1

    Geometry (in Angstrom), charge = 1, multiplicity = 1:

       Center              X                  Y                   Z               Mass
    ------------   -----------------  -----------------  -----------------  -----------------
         LI           0.000000000000     0.000000000000     0.000000000000     7.016003436600
         O            1.559703000000    -0.841487000000     0.540327000000    15.994914619570
         H            1.536049000000    -1.800076000000     0.875428000000     1.007825032230
         H            2.332392000000    -0.765268000000    -0.044245000000     1.007825032230
         O            0.510627000000     1.846312000000     0.670480000000    15.994914619570
         H           -0.180696000000     2.157729000000     1.332101000000     1.007825032230
         H            1.456462000000     2.205848000000     0.908097000000     1.007825032230
         O           -0.805083000000    -0.528639000000    -1.542551000000    15.994914619570
         H           -1.443239000000     0.055871000000    -2.007726000000     1.007825032230
         H           -0.144858000000    -0.758380000000    -2.221599000000     1.007825032230

  Charge       = 1
  Multiplicity = 1
  Basis Set: AUG-CC-PVTZ
    Blend: AUG-CC-PVTZ
  Basis Set: (AUG-CC-PVTZ AUX)
    Blend: AUG-CC-PVTZ-JKFIT + DEF2-UNIVERSAL-JKFIT

    Orbital Energies [Eh]
    ---------------------

    Doubly Occupied:

       1A    -20.775060     2A    -20.771975     3A    -20.757179
       4A     -2.569067     5A     -1.555901     6A     -1.543420
       7A     -1.507397     8A     -0.915099     9A     -0.907694
      10A     -0.881180    11A     -0.812500    12A     -0.804081
      13A     -0.762315    14A     -0.727856    15A     -0.719236
      16A     -0.691730

  @DF-RHF Final Energy:  -235.52575474174483

   => Energetics <=

    Nuclear Repulsion Energy =             97.9406495104272636
    One-Electron Energy =                -513.5294209680509994
    Two-Electron Energy =                 180.0630167158789163
    Total Energy =                       -235.5257547417448336
 Dipole X            :        -24.9203951           25.8478365            0.9274414
 Dipole Y            :         -9.1311241            9.2695073            0.1383831
 Dipole Z            :          6.7970465           -7.2034395           -0.4063930
 Magnitude           :                                                    1.0219846
  Basis Set: (AUG-CC-PVTZ AUX)
    Blend: AUG-CC-PVTZ-RI + DEF2-QZVPP-RI
	 Reference Energy          =    -235.5257547417448336 [Eh]
	 Singles Energy            =      -0.0000000000000000 [Eh]
	 Same-Spin Energy          =      -0.2074110760654022 [Eh]
	 Opposite-Spin Energy      =      -0.6651353646876894 [Eh]
	 Correlation Energy        =      -0.8725464407530916 [Eh]
	 Total Energy              =    -236.3983011824979314 [Eh]

	 ================> DF-SCS-MP2 Energies <==================
	-----------------------------------------------------------
	 SCS Same-Spin Scale       =       0.3333333333333333 [-]
	 SCS Opposite-Spin Scale   =       1.2000000000000000 [-]
	 SCS Same-Spin Energy      =      -0.0691370253551341 [Eh]
	 SCS Opposite-Spin Energy  =      -0.7981624376252273 [Eh]
	 SCS Correlation Energy    =      -0.8672994629803614 [Eh]
	 SCS Total Energy          =    -236.3930542047251890 [Eh]
	-----------------------------------------------------------

*** Psi4 exiting successfully. Buy a developer a beer!
