                               Psi4 1.8.2 release

  ==> Input File <==

--------------------------------------------------------------------------
MEMORY 60 GB

molecule dimer {
1 1
Li         0.000000     0.000000     0.000000
Gh(O)      0.929126    -1.519541     0.562943
Gh(H)      0.754313    -1.902667     1.397259
Gh(H)      1.807708    -1.139414     0.634185
Gh(O)     -0.504010     0.489688    -1.758484
Gh(H)     -0.791966    -0.159959    -2.448101
Gh(H)     -0.336521     1.310441    -2.247888
Gh(O)      0.902574     1.789651     0.523627
Gh(H)      1.832881     2.030759     0.319652
Gh(H)      0.670851     2.026998     1.405913
Gh(O)     -1.475233     0.100022     1.458728
Gh(H)     -1.332384     0.611866     2.288554
Gh(H)     -2.406648     0.065706     1.327701

units ang
no_reorient
no_com
symmetry c1
}

set {
basis        aug-cc-pVTZ
scf_type     df
}

energy("mp2")
--------------------------------------------------------------------------

    Molecular point group: c1

    Geometry (in Angstrom), charge = 1, multiplicity = 1:

       Center              X                  Y                   Z               Mass
    ------------   -----------------  -----------------  -----------------  -----------------
         LI           0.000000000000     0.000000000000     0.000000000000     7.016003436600
      Gh(O)           0.929126000000    -1.519541000000     0.562943000000    15.994914619570
      Gh(H)           0.754313000000    -1.902667000000     1.397259000000     1.007825032230
      Gh(H)           1.807708000000    -1.139414000000     0.634185000000     1.007825032230
      Gh(O)          -0.504010000000     0.489688000000    -1.758484000000    15.994914619570
      Gh(H)          -0.791966000000    -0.159959000000    -2.448101000000     1.007825032230
      Gh(H)          -0.336521000000     1.310441000000    -2.247888000000     1.007825032230
      Gh(O)           0.902574000000     1.789651000000     0.523627000000    15.994914619570
      Gh(H)           1.832881000000     2.030759000000     0.319652000000     1.007825032230
      Gh(H)           0.670851000000     2.026998000000     1.405913000000     1.007825032230
      Gh(O)          -1.475233000000     0.100022000000     1.458728000000    15.994914619570
      Gh(H)          -1.332384000000     0.611866000000     2.288554000000     1.007825032230
      Gh(H)          -2.406648000000     0.065706000000     1.327701000000     1.007825032230

  Charge       = 1
  Multiplicity = 1
  Basis Set: AUG-CC-PVTZ
    Blend: AUG-CC-PVTZ
  Basis Set: (AUG-CC-PVTZ AUX)
    Blend: AUG-CC-PVTZ-JKFIT + DEF2-UNIVERSAL-JKFIT

    Orbital Energies [Eh]
    ---------------------

    Doubly Occupied:

       1A     -2.792353

  @DF-RHF Final Energy:    -7.23638485425206

   => Energetics <=

    Nuclear Repulsion Energy =              0.0000000000000000
    One-Electron Energy =                  -8.8880638419265896
    Two-Electron Energy =                   1.6516789876745266
    Total Energy =                         -7.2363848542520630
 Dipole X            :         -0.0000043            0.0000000           -0.0000043
 Dipole Y            :          0.0000035            0.0000000            0.0000035
 Dipole Z            :          0.0000052            0.0000000            0.0000052
 Magnitude           :                                                    0.0000077
  Basis Set: (AUG-CC-PVTZ AUX)
    Blend: AUG-CC-PVTZ-RI + DEF2-QZVPP-RI
	 Reference Energy          =      -7.2363848542520630 [Eh]
	 Singles Energy            =      -0.0000000000000000 [Eh]
	 Same-Spin Energy          =       0.0000000000000000 [Eh]
	 Opposite-Spin Energy      =      -0.0169492697423306 [Eh]
	 Correlation Energy        =      -0.0169492697423306 [Eh]
	 Total Energy              =      -7.2533341239943931 [Eh]

	 ================> DF-SCS-MP2 Energies <==================
	-----------------------------------------------------------
	 SCS Same-Spin Scale       =       0.3333333333333333 [-]
	 SCS Opposite-Spin Scale   =       1.2000000000000000 [-]
	 SCS Same-Spin Energy      =       0.0000000000000000 [Eh]
	 SCS Opposite-Spin Energy  =      -0.0203391236907967 [Eh]
	 SCS Correlation Energy    =      -0.0203391236907967 [Eh]
	 SCS Total Energy          =      -7.2567239779428601 [Eh]
	-----------------------------------------------------------

*** Psi4 exiting successfully. Buy a developer a beer!
