                               Psi4 1.9 release

  ==> Input File <==

--------------------------------------------------------------------------
MEMORY 60 GB

molecule dimer {
1 1
Li     0.000000     0.000000     0.000000
--
0 1
O     -1.715018     0.035203     0.485956
H     -1.936750    -0.119626     1.364263
H     -2.298787     0.693310     0.156393
O      1.091749    -0.253037     1.609196
H      1.070284    -1.120083     2.020331
H      0.767319     0.430326     2.249368
O      0.246191     2.036729    -0.098373
H      0.467254     2.250333     0.806838
H      0.917922     2.460712    -0.640110
O      0.268445    -0.553088    -1.903107
H     -0.423728    -0.525899    -2.557714
H      0.710424    -1.402795    -2.022738

units ang
no_reorient
no_com
symmetry c1
}

set {
basis        aug-cc-pVTZ
scf_type     df
}

energy("mp2", bsse_type="cp")
--------------------------------------------------------------------------

                               Psi4 1.9 release
    Molecular point group: c1
  Charge       = 0
  Multiplicity = 1
  Basis Set: AUG-CC-PVTZ
    Blend: AUG-CC-PVTZ
  Basis Set: (AUG-CC-PVTZ AUX)
    Blend: AUG-CC-PVTZ-JKFIT + DEF2-UNIVERSAL-JKFIT
  @DF-RHF Final Energy:  -304.21571174967949
    Total Energy =                       -304.2157117496794854
 Dipole X            :          2.7106208           -3.0143513           -0.3037304
 Dipole Y            :        -24.1508151           24.1747637            0.0239485
 Dipole Z            :         -3.3122244            4.0175710            0.7053465
 Magnitude           :                                                    0.7683355
  Basis Set: (AUG-CC-PVTZ AUX)
    Blend: AUG-CC-PVTZ-RI + DEF2-QZVPP-RI
	 Reference Energy          =    -304.2157117496794854 [Eh]
	 Singles Energy            =      -0.0000000000000000 [Eh]
	 Same-Spin Energy          =      -0.2767904056837455 [Eh]
	 Opposite-Spin Energy      =      -0.8674459281723378 [Eh]
	 Correlation Energy        =      -1.1442363338560833 [Eh]
	 Total Energy              =    -305.3599480835355848 [Eh]
	 SCS Total Energy          =    -305.3489103320475238 [Eh]
                               Psi4 1.9 release
    Molecular point group: c1
  Multiplicity = 1
  Basis Set: AUG-CC-PVTZ
    Blend: AUG-CC-PVTZ
  Basis Set: (AUG-CC-PVTZ AUX)
    Blend: AUG-CC-PVTZ-JKFIT + DEF2-UNIVERSAL-JKFIT
  @DF-RHF Final Energy:    -7.23638490807381
    Total Energy =                         -7.2363849080738145
  Basis Set: (AUG-CC-PVTZ AUX)
	 Singles Energy            =      -0.0000000000000000 [Eh]
	 Same-Spin Energy          =       0.0000000000000000 [Eh]
	 Opposite-Spin Energy      =      -0.0172077012848913 [Eh]
	 Correlation Energy        =      -0.0172077012848913 [Eh]
	 Total Energy              =      -7.2535926093587060 [Eh]
	 SCS Total Energy          =      -7.2570341496156843 [Eh]
                               Psi4 1.9 release
    Molecular point group: c1

    Geometry (in Bohr), charge = 1, multiplicity = 1:

       Center              X                  Y                   Z               Mass
    ------------   -----------------  -----------------  -----------------  -----------------
         LI           0.000000000000     0.000000000000     0.000000000000     7.016003436600
         O           -3.240914320230     0.066524028794     0.918323749023    15.994914619570
         H           -3.659927073480    -0.226060377484     2.578083433095     1.007825032230
         H           -4.344077850763     1.310166020041     0.295539937939     1.007825032230
         O            2.063106607742    -0.478170629607     3.040939722182    15.994914619570
         H            2.022543636460    -2.116650107781     3.817872272772     1.007825032230
         H            1.450022760860     0.813198284664     4.250689475369     1.007825032230
         O            0.465233564553     3.848860001778    -0.185898028140    15.994914619570
         H            0.882982091025     4.252513061080     1.524702847612     1.007825032230
         H            1.734621184533     4.650071753628    -1.209632590167     1.007825032230
         O            0.507287529749    -1.045184843277    -3.596351017442    15.994914619570
         H           -0.800729871688    -0.993805079652    -4.833378967249     1.007825032230
         H            1.342506792952    -2.650898360162    -3.822420843556     1.007825032230

  Charge       = 1
  Multiplicity = 1
  Basis Set: AUG-CC-PVTZ
    Blend: AUG-CC-PVTZ
  Basis Set: (AUG-CC-PVTZ AUX)
    Blend: AUG-CC-PVTZ-JKFIT + DEF2-UNIVERSAL-JKFIT

    Orbital Energies [Eh]
    ---------------------

    Doubly Occupied:

       1A    -20.762610     2A    -20.750856     3A    -20.741758
       4A    -20.739759     5A     -2.531892     6A     -1.565896
       7A     -1.542528     8A     -1.531303     9A     -1.529231
      10A     -0.935989    11A     -0.919190    12A     -0.896183
      13A     -0.892866    14A     -0.808890    15A     -0.784651
      16A     -0.779175    17A     -0.768267    18A     -0.719441
      19A     -0.705652    20A     -0.693672    21A     -0.689904

  @DF-RHF Final Energy:  -311.62192689079825

   => Energetics <=

    Nuclear Repulsion Energy =            165.4800334376182036
    One-Electron Energy =                -751.6244897969761496
    Two-Electron Energy =                 274.5225294685596964
    Total Energy =                       -311.6219268907982496
 Dipole X            :          2.6222141           -3.0143513           -0.3921372
 Dipole Y            :        -23.9504862           24.1747637            0.2242774
 Dipole Z            :         -3.2254544            4.0175710            0.7921165
 Magnitude           :                                                    0.9118775
  Basis Set: (AUG-CC-PVTZ AUX)
    Blend: AUG-CC-PVTZ-RI + DEF2-QZVPP-RI
	 Reference Energy          =    -311.6219268907982496 [Eh]
	 Singles Energy            =      -0.0000000000000000 [Eh]
	 Same-Spin Energy          =      -0.2751641766367540 [Eh]
	 Opposite-Spin Energy      =      -0.8772390269348165 [Eh]
	 Correlation Energy        =      -1.1524032035715703 [Eh]
	 Total Energy              =    -312.7743300943698159 [Eh]

	 ================> DF-SCS-MP2 Energies <==================
	-----------------------------------------------------------
	 SCS Same-Spin Scale       =       0.3333333333333333 [-]
	 SCS Opposite-Spin Scale   =       1.2000000000000000 [-]
	 SCS Same-Spin Energy      =      -0.0917213922122513 [Eh]
	 SCS Opposite-Spin Energy  =      -1.0526868323217797 [Eh]
	 SCS Correlation Energy    =      -1.1444082245340310 [Eh]
	 SCS Total Energy          =    -312.7663351153322537 [Eh]
	-----------------------------------------------------------

*** Psi4 exiting successfully. Buy a developer a beer!
