                               Psi4 1.8.2 release

  ==> Input File <==

--------------------------------------------------------------------------
MEMORY 60 GB

molecule dimer {
0 1
Gh(Li)     0.000000     0.000000     0.000000
Gh(O)     -0.807644    -1.260844     1.138757
Gh(H)     -1.635519    -1.682311     1.327527
Gh(H)     -0.286736    -1.509910     1.936379
Gh(O)      1.759330    -0.684963    -0.247588
Gh(H)      2.421120    -1.170058     0.269103
Gh(H)      2.085332    -0.643141    -1.168976
O          0.088216     1.807821     0.564857
H          0.651141     1.422611     1.287139
H         -0.618624     2.368710     0.980290
Gh(O)     -1.057908    -0.426688    -1.597347
Gh(H)     -0.748099    -0.459222    -2.547429
Gh(H)     -1.560666    -1.268597    -1.484747

units ang
no_reorient
no_com
symmetry c1
}

set {
basis        aug-cc-pVTZ
scf_type     df
}

energy("mp2")
--------------------------------------------------------------------------

    Molecular point group: c1

    Geometry (in Angstrom), charge = 0, multiplicity = 1:

       Center              X                  Y                   Z               Mass
    ------------   -----------------  -----------------  -----------------  -----------------
      Gh(LI)          0.000000000000     0.000000000000     0.000000000000     7.016003436600
      Gh(O)          -0.807644000000    -1.260844000000     1.138757000000    15.994914619570
      Gh(H)          -1.635519000000    -1.682311000000     1.327527000000     1.007825032230
      Gh(H)          -0.286736000000    -1.509910000000     1.936379000000     1.007825032230
      Gh(O)           1.759330000000    -0.684963000000    -0.247588000000    15.994914619570
      Gh(H)           2.421120000000    -1.170058000000     0.269103000000     1.007825032230
      Gh(H)           2.085332000000    -0.643141000000    -1.168976000000     1.007825032230
         O            0.088216000000     1.807821000000     0.564857000000    15.994914619570
         H            0.651141000000     1.422611000000     1.287139000000     1.007825032230
         H           -0.618624000000     2.368710000000     0.980290000000     1.007825032230
      Gh(O)          -1.057908000000    -0.426688000000    -1.597347000000    15.994914619570
      Gh(H)          -0.748099000000    -0.459222000000    -2.547429000000     1.007825032230
      Gh(H)          -1.560666000000    -1.268597000000    -1.484747000000     1.007825032230

  Charge       = 0
  Multiplicity = 1
  Basis Set: AUG-CC-PVTZ
    Blend: AUG-CC-PVTZ
  Basis Set: (AUG-CC-PVTZ AUX)
    Blend: AUG-CC-PVTZ-JKFIT + DEF2-UNIVERSAL-JKFIT

    Orbital Energies [Eh]
    ---------------------

    Doubly Occupied:

       1A    -20.571237     2A     -1.332900     3A     -0.705388
       4A     -0.570179     5A     -0.506175

  @DF-RHF Final Energy:   -76.05558865025191

   => Energetics <=

    Nuclear Repulsion Energy =              8.8509997401061575
    One-Electron Energy =                -122.4414166335371448
    Two-Electron Energy =                  37.5348282431790707
    Total Energy =                        -76.0555886502519058
 Dipole X            :         -1.4897119            1.3950809           -0.0946310
 Dipole Y            :        -34.3791139           34.4948509            0.1157370
 Dipole Z            :        -12.0756530           12.8242201            0.7485670
 Magnitude           :                                                    0.7633496
  Basis Set: (AUG-CC-PVTZ AUX)
    Blend: AUG-CC-PVTZ-RI + DEF2-QZVPP-RI
	 Reference Energy          =     -76.0555886502519058 [Eh]
	 Singles Energy            =      -0.0000000000000000 [Eh]
	 Same-Spin Energy          =      -0.0690050408731895 [Eh]
	 Opposite-Spin Energy      =      -0.2178584581814504 [Eh]
	 Correlation Energy        =      -0.2868634990546398 [Eh]
	 Total Energy              =     -76.3424521493065527 [Eh]

	 ================> DF-SCS-MP2 Energies <==================
	-----------------------------------------------------------
	 SCS Same-Spin Scale       =       0.3333333333333333 [-]
	 SCS Opposite-Spin Scale   =       1.2000000000000000 [-]
	 SCS Same-Spin Energy      =      -0.0230016802910632 [Eh]
	 SCS Opposite-Spin Energy  =      -0.2614301498177404 [Eh]
	 SCS Correlation Energy    =      -0.2844318301088036 [Eh]
	 SCS Total Energy          =     -76.3400204803607068 [Eh]
	-----------------------------------------------------------

*** Psi4 exiting successfully. Buy a developer a beer!
