                               Psi4 1.9 release

  ==> Input File <==

--------------------------------------------------------------------------
MEMORY 60 GB

molecule dimer {
1 1
Li     0.000000     0.000000     0.000000
--
0 1
O     -0.027221    -1.892341     0.156225
H     -0.536148    -2.498417    -0.392860
H      0.243138    -2.471152     0.849494
O      1.738236     0.664366    -0.057323
H      2.287094     0.955382     0.777655
H      2.400736     0.107677    -0.493532
O     -1.127047     0.764844     1.621688
H     -0.642547     0.688602     2.513507
H     -1.362795     1.713494     1.543215
O     -0.863269     0.264781    -1.728839
H     -0.881962     1.221250    -1.792891
H     -1.763154    -0.020104    -1.961724

units ang
no_reorient
no_com
symmetry c1
}

set {
basis        aug-cc-pVTZ
scf_type     df
}

energy("mp2", bsse_type="cp")
--------------------------------------------------------------------------

                               Psi4 1.9 release
    Molecular point group: c1
  Charge       = 0
  Multiplicity = 1
  Basis Set: AUG-CC-PVTZ
    Blend: AUG-CC-PVTZ
  Basis Set: (AUG-CC-PVTZ AUX)
    Blend: AUG-CC-PVTZ-JKFIT + DEF2-UNIVERSAL-JKFIT
  @DF-RHF Final Energy:  -304.20515943020752
    Total Energy =                       -304.2051594302075728
 Dipole X            :          4.8616623           -4.7055050            0.1561573
 Dipole Y            :          3.6136827           -3.5717109            0.0419718
 Dipole Z            :         -1.2133860            1.8460205            0.6326345
 Magnitude           :                                                    0.6529726
  Basis Set: (AUG-CC-PVTZ AUX)
    Blend: AUG-CC-PVTZ-RI + DEF2-QZVPP-RI
	 Reference Energy          =    -304.2051594302075159 [Eh]
	 Singles Energy            =      -0.0000000000000000 [Eh]
	 Same-Spin Energy          =      -0.2784491435327363 [Eh]
	 Opposite-Spin Energy      =      -0.8735554117190611 [Eh]
	 Correlation Energy        =      -1.1520045552517975 [Eh]
	 Total Energy              =    -305.3571639854592945 [Eh]
	 SCS Total Energy          =    -305.3462423054479586 [Eh]
                               Psi4 1.9 release
    Molecular point group: c1
  Multiplicity = 1
  Basis Set: AUG-CC-PVTZ
    Blend: AUG-CC-PVTZ
  Basis Set: (AUG-CC-PVTZ AUX)
    Blend: AUG-CC-PVTZ-JKFIT + DEF2-UNIVERSAL-JKFIT
  @DF-RHF Final Energy:    -7.23638487242823
    Total Energy =                         -7.2363848724282320
  Basis Set: (AUG-CC-PVTZ AUX)
	 Singles Energy            =      -0.0000000000000000 [Eh]
	 Same-Spin Energy          =       0.0000000000000000 [Eh]
	 Opposite-Spin Energy      =      -0.0170684029609374 [Eh]
	 Correlation Energy        =      -0.0170684029609374 [Eh]
	 Total Energy              =      -7.2534532753891696 [Eh]
	 SCS Total Energy          =      -7.2568669559813568 [Eh]
                               Psi4 1.9 release
    Molecular point group: c1

    Geometry (in Bohr), charge = 1, multiplicity = 1:

       Center              X                  Y                   Z               Mass
    ------------   -----------------  -----------------  -----------------  -----------------
         LI           0.000000000000     0.000000000000     0.000000000000     7.016003436600
         O           -0.051440234861    -3.576006225975     0.295222463950    15.994914619570
         H           -1.013172882712    -4.721323877188    -0.742397805647     1.007825032230
         H            0.459464230692    -4.669800494377     1.605311005220     1.007825032230
         O            3.284789981411     1.255469787066    -0.108324770690    15.994914619570
         H            4.321981283178     1.805410325192     1.469554970093     1.007825032230
         H            4.536733539527     0.203480040011    -0.932640314149     1.007825032230
         O           -2.129810160519     1.445345688700     3.064546180941    15.994914619570
         H           -1.214237852735     1.301269189443     4.749839844421     1.007825032230
         H           -2.575309315143     3.238034377615     2.916253702698     1.007825032230
         O           -1.631341982598     0.500363573225    -3.267032225010    15.994914619570
         H           -1.666666633061     2.307828030715    -3.388072962798     1.007825032230
         H           -3.331878177005    -0.037991054026    -3.707121093738     1.007825032230

  Charge       = 1
  Multiplicity = 1
  Basis Set: AUG-CC-PVTZ
    Blend: AUG-CC-PVTZ
  Basis Set: (AUG-CC-PVTZ AUX)
    Blend: AUG-CC-PVTZ-JKFIT + DEF2-UNIVERSAL-JKFIT

    Orbital Energies [Eh]
    ---------------------

    Doubly Occupied:

       1A    -20.759491     2A    -20.747826     3A    -20.744751
       4A    -20.744526     5A     -2.527719     6A     -1.541569
       7A     -1.531426     8A     -1.525666     9A     -1.510639
      10A     -0.896784    11A     -0.890556    12A     -0.871947
      13A     -0.870617    14A     -0.804598    15A     -0.793150
      16A     -0.772348    17A     -0.762958    18A     -0.706131
      19A     -0.697592    20A     -0.693136    21A     -0.687146

  @DF-RHF Final Energy:  -311.61700156181865

   => Energetics <=

    Nuclear Repulsion Energy =            161.5677849071729497
    One-Electron Energy =                -744.2084107460208315
    Two-Electron Energy =                 271.0236242770292279
    Total Energy =                       -311.6170015618186540
 Dipole X            :          4.8878950           -4.7055050            0.1823900
 Dipole Y            :          3.5587251           -3.5717109           -0.0129857
 Dipole Z            :         -1.1710916            1.8460205            0.6749289
 Magnitude           :                                                    0.6992595
  Basis Set: (AUG-CC-PVTZ AUX)
    Blend: AUG-CC-PVTZ-RI + DEF2-QZVPP-RI
	 Reference Energy          =    -311.6170015618186540 [Eh]
	 Singles Energy            =      -0.0000000000000000 [Eh]
	 Same-Spin Energy          =      -0.2767434267312925 [Eh]
	 Opposite-Spin Energy      =      -0.8824926489511800 [Eh]
	 Correlation Energy        =      -1.1592360756824724 [Eh]
	 Total Energy              =    -312.7762376375011399 [Eh]

	 ================> DF-SCS-MP2 Energies <==================
	-----------------------------------------------------------
	 SCS Same-Spin Scale       =       0.3333333333333333 [-]
	 SCS Opposite-Spin Scale   =       1.2000000000000000 [-]
	 SCS Same-Spin Energy      =      -0.0922478089104308 [Eh]
	 SCS Opposite-Spin Energy  =      -1.0589911787414159 [Eh]
	 SCS Correlation Energy    =      -1.1512389876518467 [Eh]
	 SCS Total Energy          =    -312.7682405494704767 [Eh]
	-----------------------------------------------------------

*** Psi4 exiting successfully. Buy a developer a beer!
