                               Psi4 1.8.2 release

  ==> Input File <==

--------------------------------------------------------------------------
MEMORY 60 GB

molecule dimer {
0 1
Gh(Li)     0.000000     0.000000     0.000000
Gh(O)     -0.979497     1.661715    -0.383017
Gh(H)     -1.942918     1.715495    -0.206976
Gh(H)     -0.939941     1.583322    -1.344780
O         -0.874120    -1.338989    -0.808144
H         -1.695116    -1.751423    -0.533523
H         -0.327135    -2.063220    -1.130349
Gh(O)      0.608715     0.248553     1.781960
Gh(H)      1.153588     0.893218     2.259355
Gh(H)     -0.175350     0.061724     2.297094
Gh(O)      1.616898    -0.021797    -1.057657
Gh(H)      1.564752    -0.251149    -1.971527
Gh(H)      2.506419    -0.320433    -0.827794

units ang
no_reorient
no_com
symmetry c1
}

set {
basis        aug-cc-pVTZ
scf_type     df
}

energy("mp2")
--------------------------------------------------------------------------

    Molecular point group: c1

    Geometry (in Angstrom), charge = 0, multiplicity = 1:

       Center              X                  Y                   Z               Mass
    ------------   -----------------  -----------------  -----------------  -----------------
      Gh(LI)          0.000000000000     0.000000000000     0.000000000000     7.016003436600
      Gh(O)          -0.979497000000     1.661715000000    -0.383017000000    15.994914619570
      Gh(H)          -1.942918000000     1.715495000000    -0.206976000000     1.007825032230
      Gh(H)          -0.939941000000     1.583322000000    -1.344780000000     1.007825032230
         O           -0.874120000000    -1.338989000000    -0.808144000000    15.994914619570
         H           -1.695116000000    -1.751423000000    -0.533523000000     1.007825032230
         H           -0.327135000000    -2.063220000000    -1.130349000000     1.007825032230
      Gh(O)           0.608715000000     0.248553000000     1.781960000000    15.994914619570
      Gh(H)           1.153588000000     0.893218000000     2.259355000000     1.007825032230
      Gh(H)          -0.175350000000     0.061724000000     2.297094000000     1.007825032230
      Gh(O)           1.616898000000    -0.021797000000    -1.057657000000    15.994914619570
      Gh(H)           1.564752000000    -0.251149000000    -1.971527000000     1.007825032230
      Gh(H)           2.506419000000    -0.320433000000    -0.827794000000     1.007825032230

  Charge       = 0
  Multiplicity = 1
  Basis Set: AUG-CC-PVTZ
    Blend: AUG-CC-PVTZ
  Basis Set: (AUG-CC-PVTZ AUX)
    Blend: AUG-CC-PVTZ-JKFIT + DEF2-UNIVERSAL-JKFIT

    Orbital Energies [Eh]
    ---------------------

    Doubly Occupied:

       1A    -20.567395     2A     -1.351173     3A     -0.716557
       4A     -0.583175     5A     -0.509851

  @DF-RHF Final Energy:   -76.06050370310946

   => Energetics <=

    Nuclear Repulsion Energy =              9.1574959576757777
    One-Electron Energy =                -122.9796939008406582
    Two-Electron Energy =                  37.7616942400554265
    Total Energy =                        -76.0605037031094469
 Dipole X            :         16.8535008          -17.0362798           -0.1827789
 Dipole Y            :         26.6962615          -27.4512105           -0.7549490
 Dipole Z            :         15.3301333          -15.3616290           -0.0314957
 Magnitude           :                                                    0.7773983
  Basis Set: (AUG-CC-PVTZ AUX)
    Blend: AUG-CC-PVTZ-RI + DEF2-QZVPP-RI
	 Reference Energy          =     -76.0605037031094611 [Eh]
	 Singles Energy            =      -0.0000000000000000 [Eh]
	 Same-Spin Energy          =      -0.0684961608075496 [Eh]
	 Opposite-Spin Energy      =      -0.2162640856338813 [Eh]
	 Correlation Energy        =      -0.2847602464414309 [Eh]
	 Total Energy              =     -76.3452639495508976 [Eh]

	 ================> DF-SCS-MP2 Energies <==================
	-----------------------------------------------------------
	 SCS Same-Spin Scale       =       0.3333333333333333 [-]
	 SCS Opposite-Spin Scale   =       1.2000000000000000 [-]
	 SCS Same-Spin Energy      =      -0.0228320536025165 [Eh]
	 SCS Opposite-Spin Energy  =      -0.2595169027606575 [Eh]
	 SCS Correlation Energy    =      -0.2823489563631741 [Eh]
	 SCS Total Energy          =     -76.3428526594726407 [Eh]
	-----------------------------------------------------------

*** Psi4 exiting successfully. Buy a developer a beer!
