                               Psi4 1.8.2 release

  ==> Input File <==

--------------------------------------------------------------------------
MEMORY 60 GB

molecule dimer {
1 1
Li         0.000000     0.000000     0.000000
O          0.814019    -1.627178    -0.750547
H          0.515286    -1.888018    -1.619965
H          1.776685    -1.477163    -0.804751
O         -1.975126    -0.101471     0.138953
H         -2.662290     0.539971     0.324561
H         -2.473143    -0.849112    -0.390923
O          0.507752     1.359512    -1.147321
H          1.373943     1.714330    -1.381481
H          0.123691     1.025614    -1.939705
O          0.223291    -0.134039     1.993173
H          1.169830    -0.151311     2.130046
H          0.009339     0.679243     2.474654

units ang
no_reorient
no_com
symmetry c1
}

set {
basis        aug-cc-pVTZ
scf_type     df
}

energy("mp2")
--------------------------------------------------------------------------

    Molecular point group: c1

    Geometry (in Angstrom), charge = 1, multiplicity = 1:

       Center              X                  Y                   Z               Mass
    ------------   -----------------  -----------------  -----------------  -----------------
         LI           0.000000000000     0.000000000000     0.000000000000     7.016003436600
         O            0.814019000000    -1.627178000000    -0.750547000000    15.994914619570
         H            0.515286000000    -1.888018000000    -1.619965000000     1.007825032230
         H            1.776685000000    -1.477163000000    -0.804751000000     1.007825032230
         O           -1.975126000000    -0.101471000000     0.138953000000    15.994914619570
         H           -2.662290000000     0.539971000000     0.324561000000     1.007825032230
         H           -2.473143000000    -0.849112000000    -0.390923000000     1.007825032230
         O            0.507752000000     1.359512000000    -1.147321000000    15.994914619570
         H            1.373943000000     1.714330000000    -1.381481000000     1.007825032230
         H            0.123691000000     1.025614000000    -1.939705000000     1.007825032230
         O            0.223291000000    -0.134039000000     1.993173000000    15.994914619570
         H            1.169830000000    -0.151311000000     2.130046000000     1.007825032230
         H            0.009339000000     0.679243000000     2.474654000000     1.007825032230

  Charge       = 1
  Multiplicity = 1
  Basis Set: AUG-CC-PVTZ
    Blend: AUG-CC-PVTZ
  Basis Set: (AUG-CC-PVTZ AUX)
    Blend: AUG-CC-PVTZ-JKFIT + DEF2-UNIVERSAL-JKFIT

    Orbital Energies [Eh]
    ---------------------

    Doubly Occupied:

       1A    -20.760654     2A    -20.755939     3A    -20.746128
       4A    -20.738772     5A     -2.534855     6A     -1.557745
       7A     -1.541929     8A     -1.528091     9A     -1.512060
      10A     -0.925662    11A     -0.910558    12A     -0.875492
      13A     -0.869839    14A     -0.800273    15A     -0.791503
      16A     -0.777511    17A     -0.759480    18A     -0.730010
      19A     -0.697453    20A     -0.690857    21A     -0.685237

  @DF-RHF Final Energy:  -311.61236845926362

   => Energetics <=

    Nuclear Repulsion Energy =            163.2391616642175620
    One-Electron Energy =                -747.3229657007844935
    Two-Electron Energy =                 272.4714355773032821
    Total Energy =                       -311.6123684592636209
 Dipole X            :          7.2140407           -6.8165653            0.3974754
 Dipole Y            :          8.7135507           -8.3749903            0.3385604
 Dipole Z            :         -2.3863845            1.2595025           -1.1268820
 Magnitude           :                                                    1.2419634
  Basis Set: (AUG-CC-PVTZ AUX)
    Blend: AUG-CC-PVTZ-RI + DEF2-QZVPP-RI
	 Reference Energy          =    -311.6123684592636209 [Eh]
	 Singles Energy            =      -0.0000000000000000 [Eh]
	 Same-Spin Energy          =      -0.2763282533167912 [Eh]
	 Opposite-Spin Energy      =      -0.8809693977995245 [Eh]
	 Correlation Energy        =      -1.1572976511163158 [Eh]
	 Total Energy              =    -312.7696661103799443 [Eh]

	 ================> DF-SCS-MP2 Energies <==================
	-----------------------------------------------------------
	 SCS Same-Spin Scale       =       0.3333333333333333 [-]
	 SCS Opposite-Spin Scale   =       1.2000000000000000 [-]
	 SCS Same-Spin Energy      =      -0.0921094177722637 [Eh]
	 SCS Opposite-Spin Energy  =      -1.0571632773594295 [Eh]
	 SCS Correlation Energy    =      -1.1492726951316932 [Eh]
	 SCS Total Energy          =    -312.7616411543953063 [Eh]
	-----------------------------------------------------------

*** Psi4 exiting successfully. Buy a developer a beer!
