                               Psi4 1.8.2 release

  ==> Input File <==

--------------------------------------------------------------------------
MEMORY 60 GB

molecule dimer {
1 1
Li         0.000000     0.000000     0.000000
O         -1.789506    -1.056934    -0.088662
H         -2.270001    -1.416814     0.653930
H         -2.363175    -1.218597    -0.863242
O          0.279767     1.907371     0.284771
H          0.476565     2.388574    -0.523007
H          1.091074     1.967825     0.824365
O          0.700472    -0.401485    -1.683438
H          0.674482    -1.335976    -1.879120
H          0.103655     0.037381    -2.268641
O          1.421464    -0.932024     0.947236
H          1.436621    -1.871810     0.673333
H          1.380837    -1.071578     1.956669

units ang
no_reorient
no_com
symmetry c1
}

set {
basis        aug-cc-pVTZ
scf_type     df
}

energy("mp2")
--------------------------------------------------------------------------

    Molecular point group: c1

    Geometry (in Angstrom), charge = 1, multiplicity = 1:

       Center              X                  Y                   Z               Mass
    ------------   -----------------  -----------------  -----------------  -----------------
         LI           0.000000000000     0.000000000000     0.000000000000     7.016003436600
         O           -1.789506000000    -1.056934000000    -0.088662000000    15.994914619570
         H           -2.270001000000    -1.416814000000     0.653930000000     1.007825032230
         H           -2.363175000000    -1.218597000000    -0.863242000000     1.007825032230
         O            0.279767000000     1.907371000000     0.284771000000    15.994914619570
         H            0.476565000000     2.388574000000    -0.523007000000     1.007825032230
         H            1.091074000000     1.967825000000     0.824365000000     1.007825032230
         O            0.700472000000    -0.401485000000    -1.683438000000    15.994914619570
         H            0.674482000000    -1.335976000000    -1.879120000000     1.007825032230
         H            0.103655000000     0.037381000000    -2.268641000000     1.007825032230
         O            1.421464000000    -0.932024000000     0.947236000000    15.994914619570
         H            1.436621000000    -1.871810000000     0.673333000000     1.007825032230
         H            1.380837000000    -1.071578000000     1.956669000000     1.007825032230

  Charge       = 1
  Multiplicity = 1
  Basis Set: AUG-CC-PVTZ
    Blend: AUG-CC-PVTZ
  Basis Set: (AUG-CC-PVTZ AUX)
    Blend: AUG-CC-PVTZ-JKFIT + DEF2-UNIVERSAL-JKFIT

    Orbital Energies [Eh]
    ---------------------

    Doubly Occupied:

       1A    -20.759407     2A    -20.752912     3A    -20.751411
       4A    -20.744075     5A     -2.535684     6A     -1.551899
       7A     -1.536810     8A     -1.529326     9A     -1.526621
      10A     -0.922973    11A     -0.900590    12A     -0.892356
      13A     -0.870260    14A     -0.802696    15A     -0.791709
      16A     -0.773225    17A     -0.771359    18A     -0.714085
      19A     -0.703184    20A     -0.697318    21A     -0.695682

  @DF-RHF Final Energy:  -311.61614666806702

   => Energetics <=

    Nuclear Repulsion Energy =            163.8533716469648596
    One-Electron Energy =                -748.4918695894726852
    Two-Electron Energy =                 273.0223512744407799
    Total Energy =                       -311.6161466680670173
 Dipole X            :        -10.6163356           10.2567418           -0.3595939
 Dipole Y            :         10.9373875          -12.0669803           -1.1295929
 Dipole Z            :         10.5392661          -10.8592299           -0.3199638
 Magnitude           :                                                    1.2278699
  Basis Set: (AUG-CC-PVTZ AUX)
    Blend: AUG-CC-PVTZ-RI + DEF2-QZVPP-RI
	 Reference Energy          =    -311.6161466680670173 [Eh]
	 Singles Energy            =      -0.0000000000000000 [Eh]
	 Same-Spin Energy          =      -0.2764242094904162 [Eh]
	 Opposite-Spin Energy      =      -0.8808203038298941 [Eh]
	 Correlation Energy        =      -1.1572445133203102 [Eh]
	 Total Energy              =    -312.7733911813873533 [Eh]

	 ================> DF-SCS-MP2 Energies <==================
	-----------------------------------------------------------
	 SCS Same-Spin Scale       =       0.3333333333333333 [-]
	 SCS Opposite-Spin Scale   =       1.2000000000000000 [-]
	 SCS Same-Spin Energy      =      -0.0921414031634721 [Eh]
	 SCS Opposite-Spin Energy  =      -1.0569843645958727 [Eh]
	 SCS Correlation Energy    =      -1.1491257677593447 [Eh]
	 SCS Total Energy          =    -312.7652724358263754 [Eh]
	-----------------------------------------------------------

*** Psi4 exiting successfully. Buy a developer a beer!
