                               Psi4 1.8.2 release

  ==> Input File <==

--------------------------------------------------------------------------
MEMORY 60 GB

molecule dimer {
1 1
Li         0.000000     0.000000     0.000000
Gh(O)     -1.498553    -0.172311    -1.210425
Gh(H)     -2.174307     0.521597    -1.476675
Gh(H)     -1.991752    -1.002923    -1.332405
Gh(O)     -0.367263     1.242081     1.322828
Gh(H)     -0.175908     2.107081     0.882067
Gh(H)     -0.029996     1.416719     2.241664
Gh(O)      0.117002    -1.599248     1.214210
Gh(H)     -0.543417    -1.979387     1.825647
Gh(H)      0.867799    -2.228187     1.292257

units ang
no_reorient
no_com
symmetry c1
}

set {
basis        aug-cc-pVTZ
scf_type     df
}

energy("mp2")
--------------------------------------------------------------------------

    Molecular point group: c1

    Geometry (in Angstrom), charge = 1, multiplicity = 1:

       Center              X                  Y                   Z               Mass
    ------------   -----------------  -----------------  -----------------  -----------------
         LI           0.000000000000     0.000000000000     0.000000000000     7.016003436600
      Gh(O)          -1.498553000000    -0.172311000000    -1.210425000000    15.994914619570
      Gh(H)          -2.174307000000     0.521597000000    -1.476675000000     1.007825032230
      Gh(H)          -1.991752000000    -1.002923000000    -1.332405000000     1.007825032230
      Gh(O)          -0.367263000000     1.242081000000     1.322828000000    15.994914619570
      Gh(H)          -0.175908000000     2.107081000000     0.882067000000     1.007825032230
      Gh(H)          -0.029996000000     1.416719000000     2.241664000000     1.007825032230
      Gh(O)           0.117002000000    -1.599248000000     1.214210000000    15.994914619570
      Gh(H)          -0.543417000000    -1.979387000000     1.825647000000     1.007825032230
      Gh(H)           0.867799000000    -2.228187000000     1.292257000000     1.007825032230

  Charge       = 1
  Multiplicity = 1
  Basis Set: AUG-CC-PVTZ
    Blend: AUG-CC-PVTZ
  Basis Set: (AUG-CC-PVTZ AUX)
    Blend: AUG-CC-PVTZ-JKFIT + DEF2-UNIVERSAL-JKFIT

    Orbital Energies [Eh]
    ---------------------

    Doubly Occupied:

       1A     -2.792360

  @DF-RHF Final Energy:    -7.23638441175847

   => Energetics <=

    Nuclear Repulsion Energy =              0.0000000000000000
    One-Electron Energy =                  -8.8880491934904224
    Two-Electron Energy =                   1.6516647817319490
    Total Energy =                         -7.2363844117584737
 Dipole X            :         -0.0000189            0.0000000           -0.0000189
 Dipole Y            :         -0.0000124            0.0000000           -0.0000124
 Dipole Z            :          0.0000116            0.0000000            0.0000116
 Magnitude           :                                                    0.0000254
  Basis Set: (AUG-CC-PVTZ AUX)
    Blend: AUG-CC-PVTZ-RI + DEF2-QZVPP-RI
	 Reference Energy          =      -7.2363844117584737 [Eh]
	 Singles Energy            =      -0.0000000000000000 [Eh]
	 Same-Spin Energy          =       0.0000000000000000 [Eh]
	 Opposite-Spin Energy      =      -0.0159122918002613 [Eh]
	 Correlation Energy        =      -0.0159122918002613 [Eh]
	 Total Energy              =      -7.2522967035587351 [Eh]

	 ================> DF-SCS-MP2 Energies <==================
	-----------------------------------------------------------
	 SCS Same-Spin Scale       =       0.3333333333333333 [-]
	 SCS Opposite-Spin Scale   =       1.2000000000000000 [-]
	 SCS Same-Spin Energy      =       0.0000000000000000 [Eh]
	 SCS Opposite-Spin Energy  =      -0.0190947501603136 [Eh]
	 SCS Correlation Energy    =      -0.0190947501603136 [Eh]
	 SCS Total Energy          =      -7.2554791619187871 [Eh]
	-----------------------------------------------------------

*** Psi4 exiting successfully. Buy a developer a beer!
