                               Psi4 1.9 release

  ==> Input File <==

--------------------------------------------------------------------------
MEMORY 60 GB

molecule dimer {
1 1
Li     0.000000     0.000000     0.000000
--
0 1
O     -0.007634    -1.023123    -1.511591
H      0.057973    -0.546603    -2.301212
H     -0.749478    -1.673774    -1.686888
O     -0.253781    -0.523552     1.861966
H      0.377486    -1.069012     2.381988
H     -0.297109     0.310860     2.309038
O     -0.726151     1.712601    -0.023638
H     -1.486107     2.345326    -0.255453
H      0.048758     2.312731    -0.026328
O      1.873846     0.435239     0.205989
H      2.286734    -0.048458    -0.478572
H      2.531118     0.339515     0.930741

units ang
no_reorient
no_com
symmetry c1
}

set {
basis        aug-cc-pVTZ
scf_type     df
}

energy("mp2", bsse_type="cp")
--------------------------------------------------------------------------

                               Psi4 1.9 release
    Molecular point group: c1
  Charge       = 0
  Multiplicity = 1
  Basis Set: AUG-CC-PVTZ
    Blend: AUG-CC-PVTZ
  Basis Set: (AUG-CC-PVTZ AUX)
    Blend: AUG-CC-PVTZ-JKFIT + DEF2-UNIVERSAL-JKFIT
  @DF-RHF Final Energy:  -304.21060669378778
    Total Energy =                       -304.2106066937877813
 Dipole X            :        -18.0279371           18.6319721            0.6040349
 Dipole Y            :        -12.3668727           12.8121636            0.4452909
 Dipole Z            :         -9.8978259            9.7039742           -0.1938517
 Magnitude           :                                                    0.7750617
  Basis Set: (AUG-CC-PVTZ AUX)
    Blend: AUG-CC-PVTZ-RI + DEF2-QZVPP-RI
	 Reference Energy          =    -304.2106066937877813 [Eh]
	 Singles Energy            =      -0.0000000000000000 [Eh]
	 Same-Spin Energy          =      -0.2787273636636778 [Eh]
	 Opposite-Spin Energy      =      -0.8726356547335062 [Eh]
	 Correlation Energy        =      -1.1513630183971841 [Eh]
	 Total Energy              =    -305.3619697121849867 [Eh]
	 SCS Total Energy          =    -305.3506786006892071 [Eh]
                               Psi4 1.9 release
    Molecular point group: c1
  Multiplicity = 1
  Basis Set: AUG-CC-PVTZ
    Blend: AUG-CC-PVTZ
  Basis Set: (AUG-CC-PVTZ AUX)
    Blend: AUG-CC-PVTZ-JKFIT + DEF2-UNIVERSAL-JKFIT
  @DF-RHF Final Energy:    -7.23638498820816
    Total Energy =                         -7.2363849882081643
  Basis Set: (AUG-CC-PVTZ AUX)
	 Singles Energy            =      -0.0000000000000000 [Eh]
	 Same-Spin Energy          =       0.0000000000000000 [Eh]
	 Opposite-Spin Energy      =      -0.0176089890547878 [Eh]
	 Correlation Energy        =      -0.0176089890547878 [Eh]
	 Total Energy              =      -7.2539939772629518 [Eh]
	 SCS Total Energy          =      -7.2575157750739097 [Eh]
                               Psi4 1.9 release
    Molecular point group: c1

    Geometry (in Bohr), charge = 1, multiplicity = 1:

       Center              X                  Y                   Z               Mass
    ------------   -----------------  -----------------  -----------------  -----------------
         LI           0.000000000000     0.000000000000     0.000000000000     7.016003436600
         O           -0.014426169242    -1.933422262657    -2.856493003707    15.994914619570
         H            0.109553092671    -1.032929969354    -4.348660436617     1.007825032230
         H           -1.416308157056    -3.162974455912    -3.187756324321     1.007825032230
         O           -0.479576585845    -0.989369892436     3.518605794914    15.994914619570
         H            0.713345156195    -2.020139904828     4.501304954127     1.007825032230
         H           -0.561454639409     0.587440263360     4.363449433275     1.007825032230
         O           -1.372226515727     3.236346852185    -0.044669346154    15.994914619570
         H           -2.808335223126     4.432023814916    -0.482736207927     1.007825032230
         H            0.092139266425     4.370428191856    -0.049752709431     1.007825032230
         O            3.541055741285     0.822482509118     0.389262794857    15.994914619570
         H            4.321300981773    -0.091572348587    -0.904370011313     1.007825032230
         H            4.783119811217     0.641590365485     1.758845583735     1.007825032230

  Charge       = 1
  Multiplicity = 1
  Basis Set: AUG-CC-PVTZ
    Blend: AUG-CC-PVTZ
  Basis Set: (AUG-CC-PVTZ AUX)
    Blend: AUG-CC-PVTZ-JKFIT + DEF2-UNIVERSAL-JKFIT

    Orbital Energies [Eh]
    ---------------------

    Doubly Occupied:

       1A    -20.757995     2A    -20.755647     3A    -20.750860
       4A    -20.736616     5A     -2.524575     6A     -1.551713
       7A     -1.545879     8A     -1.526156     9A     -1.523182
      10A     -0.909705    11A     -0.898365    12A     -0.889112
      13A     -0.880549    14A     -0.805047    15A     -0.796927
      16A     -0.787846    17A     -0.767947    18A     -0.720343
      19A     -0.711093    20A     -0.696666    21A     -0.678837

  @DF-RHF Final Energy:  -311.61706700898065

   => Energetics <=

    Nuclear Repulsion Energy =            167.9744365361511598
    One-Electron Energy =                -756.7528809475783191
    Two-Electron Energy =                 277.1613774024464760
    Total Energy =                       -311.6170670089806549
 Dipole X            :        -17.8681998           18.6319721            0.7637722
 Dipole Y            :        -12.2175262           12.8121636            0.5946374
 Dipole Z            :         -9.8316138            9.7039742           -0.1276396
 Magnitude           :                                                    0.9763368
  Basis Set: (AUG-CC-PVTZ AUX)
    Blend: AUG-CC-PVTZ-RI + DEF2-QZVPP-RI
	 Reference Energy          =    -311.6170670089806549 [Eh]
	 Singles Energy            =      -0.0000000000000000 [Eh]
	 Same-Spin Energy          =      -0.2769099822132759 [Eh]
	 Opposite-Spin Energy      =      -0.8814833093074782 [Eh]
	 Correlation Energy        =      -1.1583932915207540 [Eh]
	 Total Energy              =    -312.7754603005014360 [Eh]

	 ================> DF-SCS-MP2 Energies <==================
	-----------------------------------------------------------
	 SCS Same-Spin Scale       =       0.3333333333333333 [-]
	 SCS Opposite-Spin Scale   =       1.2000000000000000 [-]
	 SCS Same-Spin Energy      =      -0.0923033274044253 [Eh]
	 SCS Opposite-Spin Energy  =      -1.0577799711689737 [Eh]
	 SCS Correlation Energy    =      -1.1500832985733991 [Eh]
	 SCS Total Energy          =    -312.7671503075540613 [Eh]
	-----------------------------------------------------------

*** Psi4 exiting successfully. Buy a developer a beer!
