                               Psi4 1.8.2 release

  ==> Input File <==

--------------------------------------------------------------------------
MEMORY 60 GB

molecule dimer {
0 1
Gh(Li)     0.000000     0.000000     0.000000
Gh(O)      1.624602    -0.599215     0.407332
Gh(H)      1.779901    -1.053384     1.285034
Gh(H)      1.968336    -1.288296    -0.194457
O          0.015130     0.160288    -2.112000
H         -0.400199    -0.626732    -2.426521
H         -0.526316     0.911430    -2.400797
Gh(O)     -0.104266     2.062866     0.061524
Gh(H)      0.705352     2.549678    -0.205842
Gh(H)     -0.844368     2.633268     0.033918
Gh(O)     -1.648907    -0.748215     0.007261
Gh(H)     -1.595409    -1.659784    -0.142717
Gh(H)     -2.314959    -0.624781     0.666327

units ang
no_reorient
no_com
symmetry c1
}

set {
basis        aug-cc-pVTZ
scf_type     df
}

energy("mp2")
--------------------------------------------------------------------------

    Molecular point group: c1

    Geometry (in Angstrom), charge = 0, multiplicity = 1:

       Center              X                  Y                   Z               Mass
    ------------   -----------------  -----------------  -----------------  -----------------
      Gh(LI)          0.000000000000     0.000000000000     0.000000000000     7.016003436600
      Gh(O)           1.624602000000    -0.599215000000     0.407332000000    15.994914619570
      Gh(H)           1.779901000000    -1.053384000000     1.285034000000     1.007825032230
      Gh(H)           1.968336000000    -1.288296000000    -0.194457000000     1.007825032230
         O            0.015130000000     0.160288000000    -2.112000000000    15.994914619570
         H           -0.400199000000    -0.626732000000    -2.426521000000     1.007825032230
         H           -0.526316000000     0.911430000000    -2.400797000000     1.007825032230
      Gh(O)          -0.104266000000     2.062866000000     0.061524000000    15.994914619570
      Gh(H)           0.705352000000     2.549678000000    -0.205842000000     1.007825032230
      Gh(H)          -0.844368000000     2.633268000000     0.033918000000     1.007825032230
      Gh(O)          -1.648907000000    -0.748215000000     0.007261000000    15.994914619570
      Gh(H)          -1.595409000000    -1.659784000000    -0.142717000000     1.007825032230
      Gh(H)          -2.314959000000    -0.624781000000     0.666327000000     1.007825032230

  Charge       = 0
  Multiplicity = 1
  Basis Set: AUG-CC-PVTZ
    Blend: AUG-CC-PVTZ
  Basis Set: (AUG-CC-PVTZ AUX)
    Blend: AUG-CC-PVTZ-JKFIT + DEF2-UNIVERSAL-JKFIT

    Orbital Energies [Eh]
    ---------------------

    Doubly Occupied:

       1A    -20.565523     2A     -1.351683     3A     -0.723674
       4A     -0.578997     5A     -0.509484

  @DF-RHF Final Energy:   -76.06039305259367

   => Energetics <=

    Nuclear Repulsion Energy =              9.1927988992117715
    One-Electron Energy =                -123.0476596108124312
    Two-Electron Energy =                  37.7944676590069975
    Total Energy =                        -76.0603930525936676
 Dipole X            :          0.8803425           -1.5221272           -0.6417846
 Dipole Y            :         -2.9893801            2.9612046           -0.0281755
 Dipole Z            :         40.6459114          -41.0511216           -0.4052102
 Magnitude           :                                                    0.7595240
  Basis Set: (AUG-CC-PVTZ AUX)
    Blend: AUG-CC-PVTZ-RI + DEF2-QZVPP-RI
	 Reference Energy          =     -76.0603930525936676 [Eh]
	 Singles Energy            =      -0.0000000000000000 [Eh]
	 Same-Spin Energy          =      -0.0683768251245673 [Eh]
	 Opposite-Spin Energy      =      -0.2158378729500440 [Eh]
	 Correlation Energy        =      -0.2842146980746113 [Eh]
	 Total Energy              =     -76.3446077506682741 [Eh]

	 ================> DF-SCS-MP2 Energies <==================
	-----------------------------------------------------------
	 SCS Same-Spin Scale       =       0.3333333333333333 [-]
	 SCS Opposite-Spin Scale   =       1.2000000000000000 [-]
	 SCS Same-Spin Energy      =      -0.0227922750415224 [Eh]
	 SCS Opposite-Spin Energy  =      -0.2590054475400528 [Eh]
	 SCS Correlation Energy    =      -0.2817977225815752 [Eh]
	 SCS Total Energy          =     -76.3421907751752400 [Eh]
	-----------------------------------------------------------

*** Psi4 exiting successfully. Buy a developer a beer!
