                               Psi4 1.9 release

  ==> Input File <==

--------------------------------------------------------------------------
MEMORY 60 GB

molecule dimer {
1 1
Li     0.000000     0.000000     0.000000
--
0 1
O      1.296978    -1.022674    -0.940549
H      2.066028    -0.402028    -0.993363
H      1.641941    -1.811888    -0.528858
O     -0.396746     1.474444    -1.474878
H     -1.280057     1.910080    -1.499885
H     -0.029846     1.581237    -2.348859
O     -1.483670    -0.955584    -0.302297
H     -2.040982    -0.609953    -1.043081
H     -1.234753    -1.872425    -0.358799
O      0.250460     0.847898     1.880600
H     -0.509855     0.604026     2.413481
H      0.341405     1.822100     1.938332

units ang
no_reorient
no_com
symmetry c1
}

set {
basis        aug-cc-pVTZ
scf_type     df
}

energy("mp2", bsse_type="cp")
--------------------------------------------------------------------------

                               Psi4 1.9 release
    Molecular point group: c1
  Charge       = 0
  Multiplicity = 1
  Basis Set: AUG-CC-PVTZ
    Blend: AUG-CC-PVTZ
  Basis Set: (AUG-CC-PVTZ AUX)
    Blend: AUG-CC-PVTZ-JKFIT + DEF2-UNIVERSAL-JKFIT
  @DF-RHF Final Energy:  -304.21297362392272
    Total Energy =                       -304.2129736239227213
 Dipole X            :          6.8122827           -7.0107762           -0.1984935
 Dipole Y            :         -7.1554549            7.5094334            0.3539785
 Dipole Z            :         16.7282551          -17.2305682           -0.5023131
 Magnitude           :                                                    0.6457700
  Basis Set: (AUG-CC-PVTZ AUX)
    Blend: AUG-CC-PVTZ-RI + DEF2-QZVPP-RI
	 Reference Energy          =    -304.2129736239227213 [Eh]
	 Singles Energy            =      -0.0000000000000000 [Eh]
	 Same-Spin Energy          =      -0.2775880732922712 [Eh]
	 Opposite-Spin Energy      =      -0.8700078754450886 [Eh]
	 Correlation Energy        =      -1.1475959487373597 [Eh]
	 Total Energy              =    -305.3605695726600970 [Eh]
	 SCS Total Energy          =    -305.3495124322209335 [Eh]
                               Psi4 1.9 release
    Molecular point group: c1
  Multiplicity = 1
  Basis Set: AUG-CC-PVTZ
    Blend: AUG-CC-PVTZ
  Basis Set: (AUG-CC-PVTZ AUX)
    Blend: AUG-CC-PVTZ-JKFIT + DEF2-UNIVERSAL-JKFIT
  @DF-RHF Final Energy:    -7.23638487575076
    Total Energy =                         -7.2363848757507583
  Basis Set: (AUG-CC-PVTZ AUX)
	 Singles Energy            =      -0.0000000000000000 [Eh]
	 Same-Spin Energy          =      -0.0000000000000000 [Eh]
	 Opposite-Spin Energy      =      -0.0170159729472658 [Eh]
	 Correlation Energy        =      -0.0170159729472658 [Eh]
	 Total Energy              =      -7.2534008486980239 [Eh]
	 SCS Total Energy          =      -7.2568040432874774 [Eh]
                               Psi4 1.9 release
    Molecular point group: c1

    Geometry (in Bohr), charge = 1, multiplicity = 1:

       Center              X                  Y                   Z               Mass
    ------------   -----------------  -----------------  -----------------  -----------------
         LI           0.000000000000     0.000000000000     0.000000000000     7.016003436600
         O            2.450933210744    -1.932573775626    -1.777380017573    15.994914619570
         H            3.904227087527    -0.759722814766    -1.877184013163     1.007825032230
         H            3.102818804160    -3.423972090004    -0.999396779257     1.007825032230
         O           -0.749741281371     2.786295347325    -2.787115488463    15.994914619570
         H           -2.418957154975     3.609528077714    -2.834371869682     1.007825032230
         H           -0.056400765940     2.988104869441    -4.438700217317     1.007825032230
         O           -2.803729960558    -1.805792049869    -0.571258538548    15.994914619570
         H           -3.856897006989    -1.152644119401    -1.971137416669     1.007825032230
         H           -2.333345002587    -3.538370440460    -0.678031844088     1.007825032230
         O            0.473300805382     1.602295002323     3.553818951536    15.994914619570
         H           -0.963486313695     1.141443712656     4.560818098996     1.007825032230
         H            0.645161947862     3.443269973197     3.662916620211     1.007825032230

  Charge       = 1
  Multiplicity = 1
  Basis Set: AUG-CC-PVTZ
    Blend: AUG-CC-PVTZ
  Basis Set: (AUG-CC-PVTZ AUX)
    Blend: AUG-CC-PVTZ-JKFIT + DEF2-UNIVERSAL-JKFIT

    Orbital Energies [Eh]
    ---------------------

    Doubly Occupied:

       1A    -20.756726     2A    -20.747449     3A    -20.746500
       4A    -20.743004     5A     -2.534884     6A     -1.542086
       7A     -1.533923     8A     -1.528580     9A     -1.523729
      10A     -0.922627    11A     -0.904289    12A     -0.892780
      13A     -0.890926    14A     -0.795394    15A     -0.776692
      16A     -0.768877    17A     -0.766530    18A     -0.711222
      19A     -0.707789    20A     -0.691143    21A     -0.686942

  @DF-RHF Final Energy:  -311.61678973682990

   => Energetics <=

    Nuclear Repulsion Energy =            162.9819526322937122
    One-Electron Energy =                -746.8532889765003802
    Two-Electron Energy =                 272.2545466073767102
    Total Energy =                       -311.6167897368299009
 Dipole X            :          6.7185972           -7.0107762           -0.2921791
 Dipole Y            :         -7.1488520            7.5094334            0.3605813
 Dipole Z            :         16.5366081          -17.2305682           -0.6939600
 Magnitude           :                                                    0.8348461
  Basis Set: (AUG-CC-PVTZ AUX)
    Blend: AUG-CC-PVTZ-RI + DEF2-QZVPP-RI
	 Reference Energy          =    -311.6167897368299009 [Eh]
	 Singles Energy            =      -0.0000000000000000 [Eh]
	 Same-Spin Energy          =      -0.2760008909737652 [Eh]
	 Opposite-Spin Energy      =      -0.8795489358449994 [Eh]
	 Correlation Energy        =      -1.1555498268187645 [Eh]
	 Total Energy              =    -312.7723395636486430 [Eh]

	 ================> DF-SCS-MP2 Energies <==================
	-----------------------------------------------------------
	 SCS Same-Spin Scale       =       0.3333333333333333 [-]
	 SCS Opposite-Spin Scale   =       1.2000000000000000 [-]
	 SCS Same-Spin Energy      =      -0.0920002969912551 [Eh]
	 SCS Opposite-Spin Energy  =      -1.0554587230139991 [Eh]
	 SCS Correlation Energy    =      -1.1474590200052541 [Eh]
	 SCS Total Energy          =    -312.7642487568351726 [Eh]
	-----------------------------------------------------------

*** Psi4 exiting successfully. Buy a developer a beer!
