                               Psi4 1.8.2 release

  ==> Input File <==

--------------------------------------------------------------------------
MEMORY 60 GB

molecule dimer {
0 1
Gh(Li)     0.000000     0.000000     0.000000
O          0.266584     0.944052    -1.709450
H          0.979641     0.533414    -2.222257
H          0.507280     1.865020    -1.611472
Gh(O)      1.380118    -0.496219     0.894533
Gh(H)      1.295780    -0.523941     1.838069
Gh(H)      1.512954    -1.400379     0.559638
Gh(O)     -1.093945     1.554286     0.618531
Gh(H)     -1.031922     1.943137     1.492156
Gh(H)     -1.412017     2.309903     0.160618
Gh(O)     -1.327662    -1.629141    -0.158356
Gh(H)     -2.193596    -1.227361    -0.264880
Gh(H)     -1.324595    -2.080127     0.693064

units ang
no_reorient
no_com
symmetry c1
}

set {
basis        aug-cc-pVTZ
scf_type     df
}

energy("mp2")
--------------------------------------------------------------------------

    Molecular point group: c1

    Geometry (in Angstrom), charge = 0, multiplicity = 1:

       Center              X                  Y                   Z               Mass
    ------------   -----------------  -----------------  -----------------  -----------------
      Gh(LI)          0.000000000000     0.000000000000     0.000000000000     7.016003436600
         O            0.266584000000     0.944052000000    -1.709450000000    15.994914619570
         H            0.979641000000     0.533414000000    -2.222257000000     1.007825032230
         H            0.507280000000     1.865020000000    -1.611472000000     1.007825032230
      Gh(O)           1.380118000000    -0.496219000000     0.894533000000    15.994914619570
      Gh(H)           1.295780000000    -0.523941000000     1.838069000000     1.007825032230
      Gh(H)           1.512954000000    -1.400379000000     0.559638000000     1.007825032230
      Gh(O)          -1.093945000000     1.554286000000     0.618531000000    15.994914619570
      Gh(H)          -1.031922000000     1.943137000000     1.492156000000     1.007825032230
      Gh(H)          -1.412017000000     2.309903000000     0.160618000000     1.007825032230
      Gh(O)          -1.327662000000    -1.629141000000    -0.158356000000    15.994914619570
      Gh(H)          -2.193596000000    -1.227361000000    -0.264880000000     1.007825032230
      Gh(H)          -1.324595000000    -2.080127000000     0.693064000000     1.007825032230

  Charge       = 0
  Multiplicity = 1
  Basis Set: AUG-CC-PVTZ
    Blend: AUG-CC-PVTZ
  Basis Set: (AUG-CC-PVTZ AUX)
    Blend: AUG-CC-PVTZ-JKFIT + DEF2-UNIVERSAL-JKFIT

    Orbital Energies [Eh]
    ---------------------

    Doubly Occupied:

       1A    -20.567307     2A     -1.349310     3A     -0.717391
       4A     -0.580634     5A     -0.509361

  @DF-RHF Final Energy:   -76.06023639641754

   => Energetics <=

    Nuclear Repulsion Energy =              9.1340712828810453
    One-Electron Energy =                -122.9406030985158935
    Two-Electron Energy =                  37.7462954192173257
    Total Energy =                        -76.0602363964175368
 Dipole X            :         -6.2060748            6.8400395            0.6339647
 Dipole Y            :        -18.4628797           18.8043812            0.3415015
 Dipole Z            :         32.8123887          -33.0878365           -0.2754478
 Magnitude           :                                                    0.7709773
  Basis Set: (AUG-CC-PVTZ AUX)
    Blend: AUG-CC-PVTZ-RI + DEF2-QZVPP-RI
	 Reference Energy          =     -76.0602363964175368 [Eh]
	 Singles Energy            =      -0.0000000000000000 [Eh]
	 Same-Spin Energy          =      -0.0685133717486705 [Eh]
	 Opposite-Spin Energy      =      -0.2162953740950823 [Eh]
	 Correlation Energy        =      -0.2848087458437527 [Eh]
	 Total Energy              =     -76.3450451422612844 [Eh]

	 ================> DF-SCS-MP2 Energies <==================
	-----------------------------------------------------------
	 SCS Same-Spin Scale       =       0.3333333333333333 [-]
	 SCS Opposite-Spin Scale   =       1.2000000000000000 [-]
	 SCS Same-Spin Energy      =      -0.0228377905828902 [Eh]
	 SCS Opposite-Spin Energy  =      -0.2595544489140987 [Eh]
	 SCS Correlation Energy    =      -0.2823922394969888 [Eh]
	 SCS Total Energy          =     -76.3426286359145223 [Eh]
	-----------------------------------------------------------

*** Psi4 exiting successfully. Buy a developer a beer!
