                               Psi4 1.8.2 release

  ==> Input File <==

--------------------------------------------------------------------------
MEMORY 60 GB

molecule dimer {
0 1
Gh(Li)     0.000000     0.000000     0.000000
O          1.056062    -1.621139     0.605492
H          0.657898    -1.924066     1.466835
H          0.678270    -2.222927    -0.068093
Gh(O)     -1.664286    -1.351635    -0.323212
Gh(H)     -2.097255    -1.625415     0.520939
Gh(H)     -1.181759    -2.115258    -0.708871
Gh(O)      1.307126     0.723288    -1.076590
Gh(H)      1.447275     1.658691    -1.070913
Gh(H)      1.155631     0.530295    -2.029499
Gh(O)     -0.786428     0.739205     1.471793
Gh(H)     -1.448992     0.238338     1.921415
Gh(H)     -1.179357     1.636730     1.603301

units ang
no_reorient
no_com
symmetry c1
}

set {
basis        aug-cc-pVTZ
scf_type     df
}

energy("mp2")
--------------------------------------------------------------------------

    Molecular point group: c1

    Geometry (in Angstrom), charge = 0, multiplicity = 1:

       Center              X                  Y                   Z               Mass
    ------------   -----------------  -----------------  -----------------  -----------------
      Gh(LI)          0.000000000000     0.000000000000     0.000000000000     7.016003436600
         O            1.056062000000    -1.621139000000     0.605492000000    15.994914619570
         H            0.657898000000    -1.924066000000     1.466835000000     1.007825032230
         H            0.678270000000    -2.222927000000    -0.068093000000     1.007825032230
      Gh(O)          -1.664286000000    -1.351635000000    -0.323212000000    15.994914619570
      Gh(H)          -2.097255000000    -1.625415000000     0.520939000000     1.007825032230
      Gh(H)          -1.181759000000    -2.115258000000    -0.708871000000     1.007825032230
      Gh(O)           1.307126000000     0.723288000000    -1.076590000000    15.994914619570
      Gh(H)           1.447275000000     1.658691000000    -1.070913000000     1.007825032230
      Gh(H)           1.155631000000     0.530295000000    -2.029499000000     1.007825032230
      Gh(O)          -0.786428000000     0.739205000000     1.471793000000    15.994914619570
      Gh(H)          -1.448992000000     0.238338000000     1.921415000000     1.007825032230
      Gh(H)          -1.179357000000     1.636730000000     1.603301000000     1.007825032230

  Charge       = 0
  Multiplicity = 1
  Basis Set: AUG-CC-PVTZ
    Blend: AUG-CC-PVTZ
  Basis Set: (AUG-CC-PVTZ AUX)
    Blend: AUG-CC-PVTZ-JKFIT + DEF2-UNIVERSAL-JKFIT

    Orbital Energies [Eh]
    ---------------------

    Doubly Occupied:

       1A    -20.572105     2A     -1.338267     3A     -0.701746
       4A     -0.578605     5A     -0.507862

  @DF-RHF Final Energy:   -76.05696952742414

   => Energetics <=

    Nuclear Repulsion Energy =              8.9122599633938862
    One-Electron Energy =                -122.5412880444437320
    Two-Electron Energy =                  37.5720585536257090
    Total Energy =                        -76.0569695274241440
 Dipole X            :        -18.9967525           18.4903352           -0.5064173
 Dipole Y            :         31.7534096          -32.3447508           -0.5913412
 Dipole Z            :        -11.6771728           11.7969517            0.1197789
 Magnitude           :                                                    0.7877118
  Basis Set: (AUG-CC-PVTZ AUX)
    Blend: AUG-CC-PVTZ-RI + DEF2-QZVPP-RI
	 Reference Energy          =     -76.0569695274241440 [Eh]
	 Singles Energy            =      -0.0000000000000000 [Eh]
	 Same-Spin Energy          =      -0.0689712593834160 [Eh]
	 Opposite-Spin Energy      =      -0.2178048714643234 [Eh]
	 Correlation Energy        =      -0.2867761308477394 [Eh]
	 Total Energy              =     -76.3437456582718852 [Eh]

	 ================> DF-SCS-MP2 Energies <==================
	-----------------------------------------------------------
	 SCS Same-Spin Scale       =       0.3333333333333333 [-]
	 SCS Opposite-Spin Scale   =       1.2000000000000000 [-]
	 SCS Same-Spin Energy      =      -0.0229904197944720 [Eh]
	 SCS Opposite-Spin Energy  =      -0.2613658457571881 [Eh]
	 SCS Correlation Energy    =      -0.2843562655516600 [Eh]
	 SCS Total Energy          =     -76.3413257929758089 [Eh]
	-----------------------------------------------------------

*** Psi4 exiting successfully. Buy a developer a beer!
