                               Psi4 1.8.2 release

  ==> Input File <==

--------------------------------------------------------------------------
MEMORY 60 GB

molecule dimer {
0 1
Gh(Li)     0.000000     0.000000     0.000000
Gh(O)      0.552963    -1.749645     0.131307
Gh(H)      1.284114    -2.048599    -0.399136
Gh(H)      0.552090    -2.127656     1.036364
O          1.541907     1.226823    -0.519578
H          1.551480     2.047459     0.018367
H          1.441348     1.555636    -1.465228
Gh(O)     -0.063798     0.553262     1.985834
Gh(H)      0.380477     1.157738     2.576072
Gh(H)     -0.932985     0.385820     2.447181
Gh(O)     -1.255138     0.486686    -1.137426
Gh(H)     -1.106484     0.045005    -1.941916
Gh(H)     -1.576557     1.362913    -1.297025

units ang
no_reorient
no_com
symmetry c1
}

set {
basis        aug-cc-pVTZ
scf_type     df
}

energy("mp2")
--------------------------------------------------------------------------

    Molecular point group: c1

    Geometry (in Angstrom), charge = 0, multiplicity = 1:

       Center              X                  Y                   Z               Mass
    ------------   -----------------  -----------------  -----------------  -----------------
      Gh(LI)          0.000000000000     0.000000000000     0.000000000000     7.016003436600
      Gh(O)           0.552963000000    -1.749645000000     0.131307000000    15.994914619570
      Gh(H)           1.284114000000    -2.048599000000    -0.399136000000     1.007825032230
      Gh(H)           0.552090000000    -2.127656000000     1.036364000000     1.007825032230
         O            1.541907000000     1.226823000000    -0.519578000000    15.994914619570
         H            1.551480000000     2.047459000000     0.018367000000     1.007825032230
         H            1.441348000000     1.555636000000    -1.465228000000     1.007825032230
      Gh(O)          -0.063798000000     0.553262000000     1.985834000000    15.994914619570
      Gh(H)           0.380477000000     1.157738000000     2.576072000000     1.007825032230
      Gh(H)          -0.932985000000     0.385820000000     2.447181000000     1.007825032230
      Gh(O)          -1.255138000000     0.486686000000    -1.137426000000    15.994914619570
      Gh(H)          -1.106484000000     0.045005000000    -1.941916000000     1.007825032230
      Gh(H)          -1.576557000000     1.362913000000    -1.297025000000     1.007825032230

  Charge       = 0
  Multiplicity = 1
  Basis Set: AUG-CC-PVTZ
    Blend: AUG-CC-PVTZ
  Basis Set: (AUG-CC-PVTZ AUX)
    Blend: AUG-CC-PVTZ-JKFIT + DEF2-UNIVERSAL-JKFIT

    Orbital Energies [Eh]
    ---------------------

    Doubly Occupied:

       1A    -20.573427     2A     -1.335847     3A     -0.697397
       4A     -0.578627     5A     -0.507610

  @DF-RHF Final Energy:   -76.05569573154077

   => Energetics <=

    Nuclear Repulsion Energy =              8.8591248573494727
    One-Electron Energy =                -122.4438207179655791
    Two-Electron Energy =                  37.5290001290753494
    Total Energy =                        -76.0556957315407658
 Dipole X            :        -29.0244052           28.9658808           -0.0585244
 Dipole Y            :        -24.6080934           25.3557385            0.7476451
 Dipole Z            :         10.3284713          -10.5890520           -0.2605807
 Magnitude           :                                                    0.7939148
  Basis Set: (AUG-CC-PVTZ AUX)
    Blend: AUG-CC-PVTZ-RI + DEF2-QZVPP-RI
	 Reference Energy          =     -76.0556957315407658 [Eh]
	 Singles Energy            =      -0.0000000000000000 [Eh]
	 Same-Spin Energy          =      -0.0690787608978978 [Eh]
	 Opposite-Spin Energy      =      -0.2180255303355930 [Eh]
	 Correlation Energy        =      -0.2871042912334907 [Eh]
	 Total Energy              =     -76.3428000227742558 [Eh]

	 ================> DF-SCS-MP2 Energies <==================
	-----------------------------------------------------------
	 SCS Same-Spin Scale       =       0.3333333333333333 [-]
	 SCS Opposite-Spin Scale   =       1.2000000000000000 [-]
	 SCS Same-Spin Energy      =      -0.0230262536326326 [Eh]
	 SCS Opposite-Spin Energy  =      -0.2616306364027116 [Eh]
	 SCS Correlation Energy    =      -0.2846568900353442 [Eh]
	 SCS Total Energy          =     -76.3403526215761161 [Eh]
	-----------------------------------------------------------

*** Psi4 exiting successfully. Buy a developer a beer!
