                               Psi4 1.8.2 release

  ==> Input File <==

--------------------------------------------------------------------------
MEMORY 60 GB

molecule dimer {
1 1
Li         0.000000     0.000000     0.000000
Gh(O)      0.430496    -1.782940     0.114535
Gh(H)     -0.122461    -2.196776     0.778018
Gh(H)      0.095863    -2.257410    -0.608199
Gh(O)     -0.871002     0.606188     1.579229
Gh(H)     -1.261790     1.443134     1.764322
Gh(H)     -0.325521     0.477508     2.360804
Gh(O)     -1.263445     0.240469    -1.487618
Gh(H)     -1.400715    -0.414623    -2.199240
Gh(H)     -1.655584     1.079449    -1.825628
Gh(O)      1.839475     0.772754    -0.481884
Gh(H)      2.223970     0.990559     0.396906
Gh(H)      1.766020     1.624400    -0.919013

units ang
no_reorient
no_com
symmetry c1
}

set {
basis        aug-cc-pVTZ
scf_type     df
}

energy("mp2")
--------------------------------------------------------------------------

    Molecular point group: c1

    Geometry (in Angstrom), charge = 1, multiplicity = 1:

       Center              X                  Y                   Z               Mass
    ------------   -----------------  -----------------  -----------------  -----------------
         LI           0.000000000000     0.000000000000     0.000000000000     7.016003436600
      Gh(O)           0.430496000000    -1.782940000000     0.114535000000    15.994914619570
      Gh(H)          -0.122461000000    -2.196776000000     0.778018000000     1.007825032230
      Gh(H)           0.095863000000    -2.257410000000    -0.608199000000     1.007825032230
      Gh(O)          -0.871002000000     0.606188000000     1.579229000000    15.994914619570
      Gh(H)          -1.261790000000     1.443134000000     1.764322000000     1.007825032230
      Gh(H)          -0.325521000000     0.477508000000     2.360804000000     1.007825032230
      Gh(O)          -1.263445000000     0.240469000000    -1.487618000000    15.994914619570
      Gh(H)          -1.400715000000    -0.414623000000    -2.199240000000     1.007825032230
      Gh(H)          -1.655584000000     1.079449000000    -1.825628000000     1.007825032230
      Gh(O)           1.839475000000     0.772754000000    -0.481884000000    15.994914619570
      Gh(H)           2.223970000000     0.990559000000     0.396906000000     1.007825032230
      Gh(H)           1.766020000000     1.624400000000    -0.919013000000     1.007825032230

  Charge       = 1
  Multiplicity = 1
  Basis Set: AUG-CC-PVTZ
    Blend: AUG-CC-PVTZ
  Basis Set: (AUG-CC-PVTZ AUX)
    Blend: AUG-CC-PVTZ-JKFIT + DEF2-UNIVERSAL-JKFIT

    Orbital Energies [Eh]
    ---------------------

    Doubly Occupied:

       1A     -2.792353

  @DF-RHF Final Energy:    -7.23638490693682

   => Energetics <=

    Nuclear Repulsion Energy =              0.0000000000000000
    One-Electron Energy =                  -8.8880644625611076
    Two-Electron Energy =                   1.6516795556242849
    Total Energy =                         -7.2363849069368227
 Dipole X            :          0.0000007            0.0000000            0.0000007
 Dipole Y            :          0.0000053            0.0000000            0.0000053
 Dipole Z            :         -0.0000043            0.0000000           -0.0000043
 Magnitude           :                                                    0.0000069
  Basis Set: (AUG-CC-PVTZ AUX)
    Blend: AUG-CC-PVTZ-RI + DEF2-QZVPP-RI
	 Reference Energy          =      -7.2363849069368227 [Eh]
	 Singles Energy            =      -0.0000000000000000 [Eh]
	 Same-Spin Energy          =       0.0000000000000000 [Eh]
	 Opposite-Spin Energy      =      -0.0172196185809993 [Eh]
	 Correlation Energy        =      -0.0172196185809993 [Eh]
	 Total Energy              =      -7.2536045255178223 [Eh]

	 ================> DF-SCS-MP2 Energies <==================
	-----------------------------------------------------------
	 SCS Same-Spin Scale       =       0.3333333333333333 [-]
	 SCS Opposite-Spin Scale   =       1.2000000000000000 [-]
	 SCS Same-Spin Energy      =       0.0000000000000000 [Eh]
	 SCS Opposite-Spin Energy  =      -0.0206635422971991 [Eh]
	 SCS Correlation Energy    =      -0.0206635422971991 [Eh]
	 SCS Total Energy          =      -7.2570484492340217 [Eh]
	-----------------------------------------------------------

*** Psi4 exiting successfully. Buy a developer a beer!
