                               Psi4 1.8.2 release

  ==> Input File <==

--------------------------------------------------------------------------
MEMORY 60 GB

molecule dimer {
0 1
Gh(Li)     0.000000     0.000000     0.000000
Gh(O)     -1.498553    -0.172311    -1.210425
Gh(H)     -2.174307     0.521597    -1.476675
Gh(H)     -1.991752    -1.002923    -1.332405
Gh(O)     -0.367263     1.242081     1.322828
Gh(H)     -0.175908     2.107081     0.882067
Gh(H)     -0.029996     1.416719     2.241664
O          0.117002    -1.599248     1.214210
H         -0.543417    -1.979387     1.825647
H          0.867799    -2.228187     1.292257

units ang
no_reorient
no_com
symmetry c1
}

set {
basis        aug-cc-pVTZ
scf_type     df
}

energy("mp2")
--------------------------------------------------------------------------

    Molecular point group: c1

    Geometry (in Angstrom), charge = 0, multiplicity = 1:

       Center              X                  Y                   Z               Mass
    ------------   -----------------  -----------------  -----------------  -----------------
      Gh(LI)          0.000000000000     0.000000000000     0.000000000000     7.016003436600
      Gh(O)          -1.498553000000    -0.172311000000    -1.210425000000    15.994914619570
      Gh(H)          -2.174307000000     0.521597000000    -1.476675000000     1.007825032230
      Gh(H)          -1.991752000000    -1.002923000000    -1.332405000000     1.007825032230
      Gh(O)          -0.367263000000     1.242081000000     1.322828000000    15.994914619570
      Gh(H)          -0.175908000000     2.107081000000     0.882067000000     1.007825032230
      Gh(H)          -0.029996000000     1.416719000000     2.241664000000     1.007825032230
         O            0.117002000000    -1.599248000000     1.214210000000    15.994914619570
         H           -0.543417000000    -1.979387000000     1.825647000000     1.007825032230
         H            0.867799000000    -2.228187000000     1.292257000000     1.007825032230

  Charge       = 0
  Multiplicity = 1
  Basis Set: AUG-CC-PVTZ
    Blend: AUG-CC-PVTZ
  Basis Set: (AUG-CC-PVTZ AUX)
    Blend: AUG-CC-PVTZ-JKFIT + DEF2-UNIVERSAL-JKFIT

    Orbital Energies [Eh]
    ---------------------

    Doubly Occupied:

       1A    -20.571774     2A     -1.343484     3A     -0.701903
       4A     -0.584282     5A     -0.509079

  @DF-RHF Final Energy:   -76.05814980707584

   => Energetics <=

    Nuclear Repulsion Energy =              8.9879193871619556
    One-Electron Energy =                -122.6710922547023728
    Two-Electron Energy =                  37.6250230604645921
    Total Energy =                        -76.0581498070758357
 Dipole X            :         -2.3237675            2.3818070            0.0580396
 Dipole Y            :         31.4705601          -32.1282883           -0.6577282
 Dipole Z            :        -23.7982670           24.2481795            0.4499125
 Magnitude           :                                                    0.7989970
  Basis Set: (AUG-CC-PVTZ AUX)
    Blend: AUG-CC-PVTZ-RI + DEF2-QZVPP-RI
	 Reference Energy          =     -76.0581498070758357 [Eh]
	 Singles Energy            =      -0.0000000000000000 [Eh]
	 Same-Spin Energy          =      -0.0688414936240879 [Eh]
	 Opposite-Spin Energy      =      -0.2170784043070804 [Eh]
	 Correlation Energy        =      -0.2859198979311683 [Eh]
	 Total Energy              =     -76.3440697050070014 [Eh]

	 ================> DF-SCS-MP2 Energies <==================
	-----------------------------------------------------------
	 SCS Same-Spin Scale       =       0.3333333333333333 [-]
	 SCS Opposite-Spin Scale   =       1.2000000000000000 [-]
	 SCS Same-Spin Energy      =      -0.0229471645413626 [Eh]
	 SCS Opposite-Spin Energy  =      -0.2604940851684965 [Eh]
	 SCS Correlation Energy    =      -0.2834412497098592 [Eh]
	 SCS Total Energy          =     -76.3415910567856884 [Eh]
	-----------------------------------------------------------

*** Psi4 exiting successfully. Buy a developer a beer!
