                               Psi4 1.9 release

  ==> Input File <==

--------------------------------------------------------------------------
MEMORY 60 GB

molecule dimer {
1 1
Li     0.000000     0.000000     0.000000
--
0 1
O     -0.398786    -1.589021    -1.083653
H      0.104594    -1.896182    -1.796161
H     -0.340299    -2.316178    -0.427544
O      1.473191    -0.539863     0.795211
H      2.355782    -0.467384     0.412253
H      1.505819    -1.406148     1.233169
O      0.501553     1.463017    -1.262223
H     -0.051961     1.314977    -2.033203
H      1.407051     1.606647    -1.681690
O     -1.690669     0.465935     0.912623
H     -1.690927     0.654825     1.943650
H     -2.533637     0.109345     0.695255

units ang
no_reorient
no_com
symmetry c1
}

set {
basis        aug-cc-pVTZ
scf_type     df
}

energy("mp2", bsse_type="cp")
--------------------------------------------------------------------------

                               Psi4 1.9 release
    Molecular point group: c1
  Charge       = 0
  Multiplicity = 1
  Basis Set: AUG-CC-PVTZ
    Blend: AUG-CC-PVTZ
  Basis Set: (AUG-CC-PVTZ AUX)
    Blend: AUG-CC-PVTZ-JKFIT + DEF2-UNIVERSAL-JKFIT
  @DF-RHF Final Energy:  -304.20094180139364
    Total Energy =                       -304.2009418013936397
 Dipole X            :          0.8914498           -0.3047486            0.5867012
 Dipole Y            :          6.3290094           -7.5580617           -1.2290523
 Dipole Z            :         12.5329989          -12.7719162           -0.2389173
 Magnitude           :                                                    1.3827036
  Basis Set: (AUG-CC-PVTZ AUX)
    Blend: AUG-CC-PVTZ-RI + DEF2-QZVPP-RI
	 Reference Energy          =    -304.2009418013936397 [Eh]
	 Singles Energy            =      -0.0000000000000000 [Eh]
	 Same-Spin Energy          =      -0.2783155530286819 [Eh]
	 Opposite-Spin Energy      =      -0.8726709350200377 [Eh]
	 Correlation Energy        =      -1.1509864880487197 [Eh]
	 Total Energy              =    -305.3519282894423554 [Eh]
	 SCS Total Energy          =    -305.3409187744272231 [Eh]
                               Psi4 1.9 release
    Molecular point group: c1
  Multiplicity = 1
  Basis Set: AUG-CC-PVTZ
    Blend: AUG-CC-PVTZ
  Basis Set: (AUG-CC-PVTZ AUX)
    Blend: AUG-CC-PVTZ-JKFIT + DEF2-UNIVERSAL-JKFIT
  @DF-RHF Final Energy:    -7.23638489220047
    Total Energy =                         -7.2363848922004701
  Basis Set: (AUG-CC-PVTZ AUX)
	 Singles Energy            =      -0.0000000000000000 [Eh]
	 Same-Spin Energy          =      -0.0000000000000000 [Eh]
	 Opposite-Spin Energy      =      -0.0173377084385183 [Eh]
	 Correlation Energy        =      -0.0173377084385183 [Eh]
	 Total Energy              =      -7.2537226006389890 [Eh]
	 SCS Total Energy          =      -7.2571901423266931 [Eh]
                               Psi4 1.9 release
    Molecular point group: c1

    Geometry (in Bohr), charge = 1, multiplicity = 1:

       Center              X                  Y                   Z               Mass
    ------------   -----------------  -----------------  -----------------  -----------------
         LI           0.000000000000     0.000000000000     0.000000000000     7.016003436600
         O           -0.753596322667    -3.002814497601    -2.047807385031    15.994914619570
         H            0.197654014366    -3.583264664023    -3.394252367228     1.007825032230
         H           -0.643071910767    -4.376942077811    -0.807941066583     1.007825032230
         O            2.783927520489    -1.020193215268     1.502731001951    15.994914619570
         H            4.451782791283    -0.883227755421     0.779045264398     1.007825032230
         H            2.845585504511    -2.657234611860     2.330351676405     1.007825032230
         O            0.947797807402     2.764701446889    -2.385255779254    15.994914619570
         H           -0.098192059205     2.484946391276    -3.842196827459     1.007825032230
         H            2.658941034552     3.036122810288    -3.177933527921     1.007825032230
         O           -3.194901378802     0.880489542265     1.724607525794    15.994914619570
         H           -3.195388928142     1.237439910103     3.672966183746     1.007825032230
         H           -4.787880031327     0.206632103188     1.313841537355     1.007825032230

  Charge       = 1
  Multiplicity = 1
  Basis Set: AUG-CC-PVTZ
    Blend: AUG-CC-PVTZ
  Basis Set: (AUG-CC-PVTZ AUX)
    Blend: AUG-CC-PVTZ-JKFIT + DEF2-UNIVERSAL-JKFIT

    Orbital Energies [Eh]
    ---------------------

    Doubly Occupied:

       1A    -20.763437     2A    -20.750865     3A    -20.743943
       4A    -20.743322     5A     -2.524569     6A     -1.555354
       7A     -1.547019     8A     -1.519029     9A     -1.513032
      10A     -0.913632    11A     -0.904427    12A     -0.878312
      13A     -0.872341    14A     -0.814581    15A     -0.791131
      16A     -0.774663    17A     -0.761477    18A     -0.733455
      19A     -0.693184    20A     -0.688046    21A     -0.685935

  @DF-RHF Final Energy:  -311.61030415770995

   => Energetics <=

    Nuclear Repulsion Energy =            164.6048281366151969
    One-Electron Energy =                -750.0867460155852768
    Two-Electron Energy =                 273.8716137212601325
    Total Energy =                       -311.6103041577099475
 Dipole X            :          0.9874300           -0.3047486            0.6826814
 Dipole Y            :          6.1830876           -7.5580617           -1.3749740
 Dipole Z            :         12.4539531          -12.7719162           -0.3179631
 Magnitude           :                                                    1.5677079
  Basis Set: (AUG-CC-PVTZ AUX)
    Blend: AUG-CC-PVTZ-RI + DEF2-QZVPP-RI
	 Reference Energy          =    -311.6103041577099475 [Eh]
	 Singles Energy            =      -0.0000000000000000 [Eh]
	 Same-Spin Energy          =      -0.2765337519880894 [Eh]
	 Opposite-Spin Energy      =      -0.8815645034485237 [Eh]
	 Correlation Energy        =      -1.1580982554366130 [Eh]
	 Total Energy              =    -312.7684024131465321 [Eh]

	 ================> DF-SCS-MP2 Energies <==================
	-----------------------------------------------------------
	 SCS Same-Spin Scale       =       0.3333333333333333 [-]
	 SCS Opposite-Spin Scale   =       1.2000000000000000 [-]
	 SCS Same-Spin Energy      =      -0.0921779173293631 [Eh]
	 SCS Opposite-Spin Energy  =      -1.0578774041382284 [Eh]
	 SCS Correlation Energy    =      -1.1500553214675915 [Eh]
	 SCS Total Energy          =    -312.7603594791775663 [Eh]
	-----------------------------------------------------------

*** Psi4 exiting successfully. Buy a developer a beer!
