                               Psi4 1.9 release

  ==> Input File <==

--------------------------------------------------------------------------
MEMORY 60 GB

molecule dimer {
1 1
Li     0.000000     0.000000     0.000000
--
0 1
O     -1.823214    -0.719894     0.345269
H     -2.765845    -0.448248     0.422513
H     -1.777057    -1.712165     0.634199
O      0.476037     1.149236     1.715289
H      0.711857     2.093154     1.538815
H      0.685084     0.967159     2.641652
O      1.728929    -0.875103     0.471180
H      2.397221    -1.337494    -0.064528
H      2.188841    -0.670296     1.297771
O      0.027016     0.508388    -1.723464
H      0.534035     1.318936    -1.962317
H      0.013326    -0.084920    -2.476549

units ang
no_reorient
no_com
symmetry c1
}

set {
basis        aug-cc-pVTZ
scf_type     df
}

energy("mp2", bsse_type="cp")
--------------------------------------------------------------------------

                               Psi4 1.9 release
    Molecular point group: c1
  Charge       = 0
  Multiplicity = 1
  Basis Set: AUG-CC-PVTZ
    Blend: AUG-CC-PVTZ
  Basis Set: (AUG-CC-PVTZ AUX)
    Blend: AUG-CC-PVTZ-JKFIT + DEF2-UNIVERSAL-JKFIT
  @DF-RHF Final Energy:  -304.20147211667671
    Total Energy =                       -304.2014721166767117
 Dipole X            :         -9.2293874            9.9354354            0.7060480
 Dipole Y            :         -1.1326458            1.1851266            0.0524809
 Dipole Z            :        -15.8119295           16.0584164            0.2464869
 Magnitude           :                                                    0.7496758
  Basis Set: (AUG-CC-PVTZ AUX)
    Blend: AUG-CC-PVTZ-RI + DEF2-QZVPP-RI
	 Reference Energy          =    -304.2014721166767117 [Eh]
	 Singles Energy            =      -0.0000000000000000 [Eh]
	 Same-Spin Energy          =      -0.2788382566555851 [Eh]
	 Opposite-Spin Energy      =      -0.8738251632568808 [Eh]
	 Correlation Energy        =      -1.1526634199124659 [Eh]
	 Total Energy              =    -305.3541355365891832 [Eh]
	 SCS Total Energy          =    -305.3430083981368170 [Eh]
                               Psi4 1.9 release
    Molecular point group: c1
  Multiplicity = 1
  Basis Set: AUG-CC-PVTZ
    Blend: AUG-CC-PVTZ
  Basis Set: (AUG-CC-PVTZ AUX)
    Blend: AUG-CC-PVTZ-JKFIT + DEF2-UNIVERSAL-JKFIT
  @DF-RHF Final Energy:    -7.23638479565460
    Total Energy =                         -7.2363847956546010
  Basis Set: (AUG-CC-PVTZ AUX)
	 Singles Energy            =      -0.0000000000000000 [Eh]
	 Same-Spin Energy          =      -0.0000000000000000 [Eh]
	 Opposite-Spin Energy      =      -0.0167976161383115 [Eh]
	 Correlation Energy        =      -0.0167976161383115 [Eh]
	 Total Energy              =      -7.2531824117929125 [Eh]
	 SCS Total Energy          =      -7.2565419350205751 [Eh]
                               Psi4 1.9 release
    Molecular point group: c1

    Geometry (in Bohr), charge = 1, multiplicity = 1:

       Center              X                  Y                   Z               Mass
    ------------   -----------------  -----------------  -----------------  -----------------
         LI           0.000000000000     0.000000000000     0.000000000000     7.016003436600
         O           -3.445375128100    -1.360402499360     0.652463849611    15.994914619570
         H           -5.226689555467    -0.847065956284     0.798433854446     1.007825032230
         H           -3.358151039328    -3.235522931595     1.198462419039     1.007825032230
         O            0.899579555585     2.171741293517     3.241426436010    15.994914619570
         H            1.345214770490     3.955487798407     2.907938907746     1.007825032230
         H            1.294621132933     1.827665629772     4.991998798768     1.007825032230
         O            3.267202300362    -1.653705001567     0.890401155793    15.994914619570
         H            4.530091152196    -2.527497354443    -0.121940247424     1.007825032230
         H            4.136310022173    -1.266675862990     2.452431763562     1.007825032230
         O            0.051052841005     0.960714085469    -3.256874947086    15.994914619570
         H            1.009179891409     2.492427817007    -3.708241701330     1.007825032230
         H            0.025182490348    -0.160475542574    -4.679999346276     1.007825032230

  Charge       = 1
  Multiplicity = 1
  Basis Set: AUG-CC-PVTZ
    Blend: AUG-CC-PVTZ
  Basis Set: (AUG-CC-PVTZ AUX)
    Blend: AUG-CC-PVTZ-JKFIT + DEF2-UNIVERSAL-JKFIT

    Orbital Energies [Eh]
    ---------------------

    Doubly Occupied:

       1A    -20.749237     2A    -20.738258     3A    -20.738114
       4A    -20.736593     5A     -2.527688     6A     -1.534164
       7A     -1.523073     8A     -1.512225     9A     -1.497128
      10A     -0.905476    11A     -0.887968    12A     -0.878606
      13A     -0.862455    14A     -0.791746    15A     -0.783670
      16A     -0.761248    17A     -0.750252    18A     -0.702689
      19A     -0.690799    20A     -0.675619    21A     -0.671382

  @DF-RHF Final Energy:  -311.61701329811524

   => Energetics <=

    Nuclear Repulsion Energy =            161.3295416629952967
    One-Electron Energy =                -744.0563259028572247
    Two-Electron Energy =                 271.1097709417466604
    Total Energy =                       -311.6170132981152392
 Dipole X            :         -9.1251034            9.9354354            0.8103320
 Dipole Y            :         -1.1418830            1.1851266            0.0432437
 Dipole Z            :        -15.7551039           16.0584164            0.3033125
 Magnitude           :                                                    0.8663178
  Basis Set: (AUG-CC-PVTZ AUX)
    Blend: AUG-CC-PVTZ-RI + DEF2-QZVPP-RI
	 Reference Energy          =    -311.6170132981152392 [Eh]
	 Singles Energy            =      -0.0000000000000000 [Eh]
	 Same-Spin Energy          =      -0.2767587742618210 [Eh]
	 Opposite-Spin Energy      =      -0.8816403988878668 [Eh]
	 Correlation Energy        =      -1.1583991731496879 [Eh]
	 Total Energy              =    -312.7754124712649286 [Eh]

	 ================> DF-SCS-MP2 Energies <==================
	-----------------------------------------------------------
	 SCS Same-Spin Scale       =       0.3333333333333333 [-]
	 SCS Opposite-Spin Scale   =       1.2000000000000000 [-]
	 SCS Same-Spin Energy      =      -0.0922529247539403 [Eh]
	 SCS Opposite-Spin Energy  =      -1.0579684786654402 [Eh]
	 SCS Correlation Energy    =      -1.1502214034193805 [Eh]
	 SCS Total Energy          =    -312.7672347015346190 [Eh]
	-----------------------------------------------------------

*** Psi4 exiting successfully. Buy a developer a beer!
