                               Psi4 1.8.2 release

  ==> Input File <==

--------------------------------------------------------------------------
MEMORY 60 GB

molecule dimer {
0 1
Gh(Li)     0.000000     0.000000     0.000000
Gh(O)     -0.877901    -0.669804    -1.764505
Gh(H)     -0.604585    -0.141250    -2.476090
Gh(H)     -0.318802    -1.470888    -1.866124
O         -0.675625    -0.903094     1.504513
H         -1.561938    -0.688831     1.846484
H         -0.636237    -1.802238     1.249660
Gh(O)     -0.291915     1.880346     0.276855
Gh(H)     -0.395520     2.489150    -0.423060
Gh(H)     -0.773999     2.031365     1.070741
Gh(O)      1.738779    -0.892995    -0.171427
Gh(H)      1.936336    -1.888660    -0.006936
Gh(H)      2.351816    -0.434925     0.435878

units ang
no_reorient
no_com
symmetry c1
}

set {
basis        aug-cc-pVTZ
scf_type     df
}

energy("mp2")
--------------------------------------------------------------------------

    Molecular point group: c1

    Geometry (in Angstrom), charge = 0, multiplicity = 1:

       Center              X                  Y                   Z               Mass
    ------------   -----------------  -----------------  -----------------  -----------------
      Gh(LI)          0.000000000000     0.000000000000     0.000000000000     7.016003436600
      Gh(O)          -0.877901000000    -0.669804000000    -1.764505000000    15.994914619570
      Gh(H)          -0.604585000000    -0.141250000000    -2.476090000000     1.007825032230
      Gh(H)          -0.318802000000    -1.470888000000    -1.866124000000     1.007825032230
         O           -0.675625000000    -0.903094000000     1.504513000000    15.994914619570
         H           -1.561938000000    -0.688831000000     1.846484000000     1.007825032230
         H           -0.636237000000    -1.802238000000     1.249660000000     1.007825032230
      Gh(O)          -0.291915000000     1.880346000000     0.276855000000    15.994914619570
      Gh(H)          -0.395520000000     2.489150000000    -0.423060000000     1.007825032230
      Gh(H)          -0.773999000000     2.031365000000     1.070741000000     1.007825032230
      Gh(O)           1.738779000000    -0.892995000000    -0.171427000000    15.994914619570
      Gh(H)           1.936336000000    -1.888660000000    -0.006936000000     1.007825032230
      Gh(H)           2.351816000000    -0.434925000000     0.435878000000     1.007825032230

  Charge       = 0
  Multiplicity = 1
  Basis Set: AUG-CC-PVTZ
    Blend: AUG-CC-PVTZ
  Basis Set: (AUG-CC-PVTZ AUX)
    Blend: AUG-CC-PVTZ-JKFIT + DEF2-UNIVERSAL-JKFIT

    Orbital Energies [Eh]
    ---------------------

    Doubly Occupied:

       1A    -20.563844     2A     -1.351171     3A     -0.729953
       4A     -0.574157     5A     -0.508867

  @DF-RHF Final Energy:   -76.05969481400403

   => Energetics <=

    Nuclear Repulsion Energy =              9.2107488770272887
    One-Electron Energy =                -123.0849018153900403
    Two-Electron Energy =                  37.8144581243587226
    Total Energy =                        -76.0596948140040325
 Dipole X            :         13.7969196          -14.3679184           -0.5709989
 Dipole Y            :         17.8918107          -18.3602408           -0.4684301
 Dipole Z            :        -28.5386579           28.5958044            0.0571465
 Magnitude           :                                                    0.7407646
  Basis Set: (AUG-CC-PVTZ AUX)
    Blend: AUG-CC-PVTZ-RI + DEF2-QZVPP-RI
	 Reference Energy          =     -76.0596948140040325 [Eh]
	 Singles Energy            =      -0.0000000000000000 [Eh]
	 Same-Spin Energy          =      -0.0683137007058135 [Eh]
	 Opposite-Spin Energy      =      -0.2156349197761487 [Eh]
	 Correlation Energy        =      -0.2839486204819622 [Eh]
	 Total Energy              =     -76.3436434344859975 [Eh]

	 ================> DF-SCS-MP2 Energies <==================
	-----------------------------------------------------------
	 SCS Same-Spin Scale       =       0.3333333333333333 [-]
	 SCS Opposite-Spin Scale   =       1.2000000000000000 [-]
	 SCS Same-Spin Energy      =      -0.0227712335686045 [Eh]
	 SCS Opposite-Spin Energy  =      -0.2587619037313784 [Eh]
	 SCS Correlation Energy    =      -0.2815331372999829 [Eh]
	 SCS Total Energy          =     -76.3412279513040204 [Eh]
	-----------------------------------------------------------

*** Psi4 exiting successfully. Buy a developer a beer!
