                               Psi4 1.8.2 release

  ==> Input File <==

--------------------------------------------------------------------------
MEMORY 60 GB

molecule dimer {
1 1
Li         0.000000     0.000000     0.000000
O          0.893831    -0.282893     1.641377
H          0.718451     0.374103     2.337286
H          1.825254    -0.373815     1.492424
O          1.120839     1.073113    -0.996718
H          1.303960     0.761379    -1.868653
H          0.652772     1.948855    -1.098737
O         -1.672896     0.785810     0.484622
H         -2.287744     0.750544    -0.303037
H         -1.709276     1.657872     0.942048

units ang
no_reorient
no_com
symmetry c1
}

set {
basis        aug-cc-pVTZ
scf_type     df
}

energy("mp2")
--------------------------------------------------------------------------

    Molecular point group: c1

    Geometry (in Angstrom), charge = 1, multiplicity = 1:

       Center              X                  Y                   Z               Mass
    ------------   -----------------  -----------------  -----------------  -----------------
         LI           0.000000000000     0.000000000000     0.000000000000     7.016003436600
         O            0.893831000000    -0.282893000000     1.641377000000    15.994914619570
         H            0.718451000000     0.374103000000     2.337286000000     1.007825032230
         H            1.825254000000    -0.373815000000     1.492424000000     1.007825032230
         O            1.120839000000     1.073113000000    -0.996718000000    15.994914619570
         H            1.303960000000     0.761379000000    -1.868653000000     1.007825032230
         H            0.652772000000     1.948855000000    -1.098737000000     1.007825032230
         O           -1.672896000000     0.785810000000     0.484622000000    15.994914619570
         H           -2.287744000000     0.750544000000    -0.303037000000     1.007825032230
         H           -1.709276000000     1.657872000000     0.942048000000     1.007825032230

  Charge       = 1
  Multiplicity = 1
  Basis Set: AUG-CC-PVTZ
    Blend: AUG-CC-PVTZ
  Basis Set: (AUG-CC-PVTZ AUX)
    Blend: AUG-CC-PVTZ-JKFIT + DEF2-UNIVERSAL-JKFIT

    Orbital Energies [Eh]
    ---------------------

    Doubly Occupied:

       1A    -20.780145     2A    -20.776972     3A    -20.754477
       4A     -2.573612     5A     -1.566337     6A     -1.546712
       7A     -1.543968     8A     -0.930923     9A     -0.924496
      10A     -0.918904    11A     -0.813303    12A     -0.798583
      13A     -0.779191    14A     -0.740654    15A     -0.719889
      16A     -0.708159

  @DF-RHF Final Energy:  -235.53110241063271

   => Energetics <=

    Nuclear Repulsion Energy =            101.0400973029578040
    One-Electron Energy =                -519.3897457452258095
    Two-Electron Energy =                 182.8185460316352930
    Total Energy =                       -235.5311024106327125
 Dipole X            :         -6.1891412            6.1181943           -0.0709468
 Dipole Y            :        -31.8459911           33.4995114            1.6535203
 Dipole Z            :        -20.2716797           19.9093589           -0.3623208
 Magnitude           :                                                    1.6942370
  Basis Set: (AUG-CC-PVTZ AUX)
    Blend: AUG-CC-PVTZ-RI + DEF2-QZVPP-RI
	 Reference Energy          =    -235.5311024106327125 [Eh]
	 Singles Energy            =      -0.0000000000000000 [Eh]
	 Same-Spin Energy          =      -0.2064899805820579 [Eh]
	 Opposite-Spin Energy      =      -0.6621190215801223 [Eh]
	 Correlation Energy        =      -0.8686090021621802 [Eh]
	 Total Energy              =    -236.3997114127948862 [Eh]

	 ================> DF-SCS-MP2 Energies <==================
	-----------------------------------------------------------
	 SCS Same-Spin Scale       =       0.3333333333333333 [-]
	 SCS Opposite-Spin Scale   =       1.2000000000000000 [-]
	 SCS Same-Spin Energy      =      -0.0688299935273526 [Eh]
	 SCS Opposite-Spin Energy  =      -0.7945428258961467 [Eh]
	 SCS Correlation Energy    =      -0.8633728194234993 [Eh]
	 SCS Total Energy          =    -236.3944752300562016 [Eh]
	-----------------------------------------------------------

*** Psi4 exiting successfully. Buy a developer a beer!
