                               Psi4 1.8.2 release

  ==> Input File <==

--------------------------------------------------------------------------
MEMORY 60 GB

molecule dimer {
1 1
Li         0.000000     0.000000     0.000000
O         -1.513363     0.722143    -0.727441
H         -2.027594     0.178981    -1.343150
H         -1.819754     1.661892    -0.823652
O         -0.252767    -2.026350    -0.783049
H          0.479598    -2.628908    -0.595592
H         -1.049144    -2.293358    -0.295986
O          0.516511     0.763586     1.671608
H          0.437421     1.575636     1.228955
H         -0.235072     0.629634     2.234292
O          1.457213     0.460443    -1.122910
H          1.677956    -0.213540    -1.788812
H          2.254305     0.527812    -0.514055

units ang
no_reorient
no_com
symmetry c1
}

set {
basis        aug-cc-pVTZ
scf_type     df
}

energy("mp2")
--------------------------------------------------------------------------

    Molecular point group: c1

    Geometry (in Angstrom), charge = 1, multiplicity = 1:

       Center              X                  Y                   Z               Mass
    ------------   -----------------  -----------------  -----------------  -----------------
         LI           0.000000000000     0.000000000000     0.000000000000     7.016003436600
         O           -1.513363000000     0.722143000000    -0.727441000000    15.994914619570
         H           -2.027594000000     0.178981000000    -1.343150000000     1.007825032230
         H           -1.819754000000     1.661892000000    -0.823652000000     1.007825032230
         O           -0.252767000000    -2.026350000000    -0.783049000000    15.994914619570
         H            0.479598000000    -2.628908000000    -0.595592000000     1.007825032230
         H           -1.049144000000    -2.293358000000    -0.295986000000     1.007825032230
         O            0.516511000000     0.763586000000     1.671608000000    15.994914619570
         H            0.437421000000     1.575636000000     1.228955000000     1.007825032230
         H           -0.235072000000     0.629634000000     2.234292000000     1.007825032230
         O            1.457213000000     0.460443000000    -1.122910000000    15.994914619570
         H            1.677956000000    -0.213540000000    -1.788812000000     1.007825032230
         H            2.254305000000     0.527812000000    -0.514055000000     1.007825032230

  Charge       = 1
  Multiplicity = 1
  Basis Set: AUG-CC-PVTZ
    Blend: AUG-CC-PVTZ
  Basis Set: (AUG-CC-PVTZ AUX)
    Blend: AUG-CC-PVTZ-JKFIT + DEF2-UNIVERSAL-JKFIT

    Orbital Energies [Eh]
    ---------------------

    Doubly Occupied:

       1A    -20.762752     2A    -20.757177     3A    -20.751074
       4A    -20.749856     5A     -2.544207     6A     -1.563463
       7A     -1.542005     8A     -1.530653     9A     -1.524410
      10A     -0.938848    11A     -0.914026    12A     -0.904021
      13A     -0.887759    14A     -0.805664    15A     -0.783396
      16A     -0.773418    17A     -0.764056    18A     -0.723809
      19A     -0.708102    20A     -0.705610    21A     -0.692673

  @DF-RHF Final Energy:  -311.60902934723902

   => Energetics <=

    Nuclear Repulsion Energy =            165.0075932381948007
    One-Electron Energy =                -750.5792797241909966
    Two-Electron Energy =                 273.9626571387572085
    Total Energy =                       -311.6090293472390158
 Dipole X            :         -3.1085761            2.6049270           -0.5036491
 Dipole Y            :          2.0302593           -2.2738602           -0.2436009
 Dipole Z            :         17.9693858          -18.1268879           -0.1575021
 Magnitude           :                                                    0.5812149
  Basis Set: (AUG-CC-PVTZ AUX)
    Blend: AUG-CC-PVTZ-RI + DEF2-QZVPP-RI
	 Reference Energy          =    -311.6090293472390158 [Eh]
	 Singles Energy            =      -0.0000000000000000 [Eh]
	 Same-Spin Energy          =      -0.2763408865208157 [Eh]
	 Opposite-Spin Energy      =      -0.8802206327921570 [Eh]
	 Correlation Energy        =      -1.1565615193129728 [Eh]
	 Total Energy              =    -312.7655908665519746 [Eh]

	 ================> DF-SCS-MP2 Energies <==================
	-----------------------------------------------------------
	 SCS Same-Spin Scale       =       0.3333333333333333 [-]
	 SCS Opposite-Spin Scale   =       1.2000000000000000 [-]
	 SCS Same-Spin Energy      =      -0.0921136288402719 [Eh]
	 SCS Opposite-Spin Energy  =      -1.0562647593505883 [Eh]
	 SCS Correlation Energy    =      -1.1483783881908602 [Eh]
	 SCS Total Energy          =    -312.7574077354298652 [Eh]
	-----------------------------------------------------------

*** Psi4 exiting successfully. Buy a developer a beer!
