                               Psi4 1.8.2 release

  ==> Input File <==

--------------------------------------------------------------------------
MEMORY 60 GB

molecule dimer {
1 1
Li         0.000000     0.000000     0.000000
O         -0.640365     1.689708    -0.437904
H         -0.947848     2.436251     0.118257
H         -0.375875     2.071206    -1.343003
O         -0.938579    -0.924804    -1.558802
H         -1.517519    -0.334733    -2.007314
H         -0.339862    -1.423081    -2.166337
O          1.855579     0.005682    -0.344725
H          2.067217    -0.495737    -1.130002
H          2.498269    -0.321495     0.326646
O         -0.731485    -1.139576     1.603199
H         -0.628082    -0.542600     2.334045
H         -1.652610    -1.061287     1.341316

units ang
no_reorient
no_com
symmetry c1
}

set {
basis        aug-cc-pVTZ
scf_type     df
}

energy("mp2")
--------------------------------------------------------------------------

    Molecular point group: c1

    Geometry (in Angstrom), charge = 1, multiplicity = 1:

       Center              X                  Y                   Z               Mass
    ------------   -----------------  -----------------  -----------------  -----------------
         LI           0.000000000000     0.000000000000     0.000000000000     7.016003436600
         O           -0.640365000000     1.689708000000    -0.437904000000    15.994914619570
         H           -0.947848000000     2.436251000000     0.118257000000     1.007825032230
         H           -0.375875000000     2.071206000000    -1.343003000000     1.007825032230
         O           -0.938579000000    -0.924804000000    -1.558802000000    15.994914619570
         H           -1.517519000000    -0.334733000000    -2.007314000000     1.007825032230
         H           -0.339862000000    -1.423081000000    -2.166337000000     1.007825032230
         O            1.855579000000     0.005682000000    -0.344725000000    15.994914619570
         H            2.067217000000    -0.495737000000    -1.130002000000     1.007825032230
         H            2.498269000000    -0.321495000000     0.326646000000     1.007825032230
         O           -0.731485000000    -1.139576000000     1.603199000000    15.994914619570
         H           -0.628082000000    -0.542600000000     2.334045000000     1.007825032230
         H           -1.652610000000    -1.061287000000     1.341316000000     1.007825032230

  Charge       = 1
  Multiplicity = 1
  Basis Set: AUG-CC-PVTZ
    Blend: AUG-CC-PVTZ
  Basis Set: (AUG-CC-PVTZ AUX)
    Blend: AUG-CC-PVTZ-JKFIT + DEF2-UNIVERSAL-JKFIT

    Orbital Energies [Eh]
    ---------------------

    Doubly Occupied:

       1A    -20.763495     2A    -20.757068     3A    -20.745848
       4A    -20.739931     5A     -2.537963     6A     -1.542705
       7A     -1.534007     8A     -1.530977     9A     -1.528577
      10A     -0.915630    11A     -0.902403    12A     -0.895983
      13A     -0.893700    14A     -0.801683    15A     -0.788777
      16A     -0.768742    17A     -0.757916    18A     -0.713216
      19A     -0.705858    20A     -0.695020    21A     -0.691760

  @DF-RHF Final Energy:  -311.61473965474960

   => Energetics <=

    Nuclear Repulsion Energy =            162.8957219991129932
    One-Electron Energy =                -746.5984002619627518
    Two-Electron Energy =                 272.0879386081001599
    Total Energy =                       -311.6147396547495987
 Dipole X            :          8.5555001           -8.5701158           -0.0146158
 Dipole Y            :          5.7054640           -4.9575000            0.7479640
 Dipole Z            :         15.0903299          -15.9346393           -0.8443095
 Magnitude           :                                                    1.1280613
  Basis Set: (AUG-CC-PVTZ AUX)
    Blend: AUG-CC-PVTZ-RI + DEF2-QZVPP-RI
	 Reference Energy          =    -311.6147396547495987 [Eh]
	 Singles Energy            =      -0.0000000000000000 [Eh]
	 Same-Spin Energy          =      -0.2763141002147549 [Eh]
	 Opposite-Spin Energy      =      -0.8806198800750193 [Eh]
	 Correlation Energy        =      -1.1569339802897742 [Eh]
	 Total Energy              =    -312.7716736350393489 [Eh]

	 ================> DF-SCS-MP2 Energies <==================
	-----------------------------------------------------------
	 SCS Same-Spin Scale       =       0.3333333333333333 [-]
	 SCS Opposite-Spin Scale   =       1.2000000000000000 [-]
	 SCS Same-Spin Energy      =      -0.0921047000715850 [Eh]
	 SCS Opposite-Spin Energy  =      -1.0567438560900231 [Eh]
	 SCS Correlation Energy    =      -1.1488485561616080 [Eh]
	 SCS Total Energy          =    -312.7635882109112231 [Eh]
	-----------------------------------------------------------

*** Psi4 exiting successfully. Buy a developer a beer!
