                               Psi4 1.8.2 release

  ==> Input File <==

--------------------------------------------------------------------------
MEMORY 60 GB

molecule dimer {
0 1
Gh(Li)     0.000000     0.000000     0.000000
O         -1.823214    -0.719894     0.345269
H         -2.765845    -0.448248     0.422513
H         -1.777057    -1.712165     0.634199
Gh(O)      0.476037     1.149236     1.715289
Gh(H)      0.711857     2.093154     1.538815
Gh(H)      0.685084     0.967159     2.641652
Gh(O)      1.728929    -0.875103     0.471180
Gh(H)      2.397221    -1.337494    -0.064528
Gh(H)      2.188841    -0.670296     1.297771
Gh(O)      0.027016     0.508388    -1.723464
Gh(H)      0.534035     1.318936    -1.962317
Gh(H)      0.013326    -0.084920    -2.476549

units ang
no_reorient
no_com
symmetry c1
}

set {
basis        aug-cc-pVTZ
scf_type     df
}

energy("mp2")
--------------------------------------------------------------------------

    Molecular point group: c1

    Geometry (in Angstrom), charge = 0, multiplicity = 1:

       Center              X                  Y                   Z               Mass
    ------------   -----------------  -----------------  -----------------  -----------------
      Gh(LI)          0.000000000000     0.000000000000     0.000000000000     7.016003436600
         O           -1.823214000000    -0.719894000000     0.345269000000    15.994914619570
         H           -2.765845000000    -0.448248000000     0.422513000000     1.007825032230
         H           -1.777057000000    -1.712165000000     0.634199000000     1.007825032230
      Gh(O)           0.476037000000     1.149236000000     1.715289000000    15.994914619570
      Gh(H)           0.711857000000     2.093154000000     1.538815000000     1.007825032230
      Gh(H)           0.685084000000     0.967159000000     2.641652000000     1.007825032230
      Gh(O)           1.728929000000    -0.875103000000     0.471180000000    15.994914619570
      Gh(H)           2.397221000000    -1.337494000000    -0.064528000000     1.007825032230
      Gh(H)           2.188841000000    -0.670296000000     1.297771000000     1.007825032230
      Gh(O)           0.027016000000     0.508388000000    -1.723464000000    15.994914619570
      Gh(H)           0.534035000000     1.318936000000    -1.962317000000     1.007825032230
      Gh(H)           0.013326000000    -0.084920000000    -2.476549000000     1.007825032230

  Charge       = 0
  Multiplicity = 1
  Basis Set: AUG-CC-PVTZ
    Blend: AUG-CC-PVTZ
  Basis Set: (AUG-CC-PVTZ AUX)
    Blend: AUG-CC-PVTZ-JKFIT + DEF2-UNIVERSAL-JKFIT

    Orbital Energies [Eh]
    ---------------------

    Doubly Occupied:

       1A    -20.574663     2A     -1.327444     3A     -0.693991
       4A     -0.570667     5A     -0.505682

  @DF-RHF Final Energy:   -76.05150767751776

   => Energetics <=

    Nuclear Repulsion Energy =              8.7212500831659838
    One-Electron Energy =                -122.2006198059091986
    Two-Electron Energy =                  37.4278620452254529
    Total Energy =                        -76.0515076775177619
 Dipole X            :         35.5620826          -36.1478416           -0.5857590
 Dipole Y            :         14.5053632          -14.9658089           -0.4604457
 Dipole Z            :         -6.9805017            7.2166071            0.2361054
 Magnitude           :                                                    0.7815814
  Basis Set: (AUG-CC-PVTZ AUX)
    Blend: AUG-CC-PVTZ-RI + DEF2-QZVPP-RI
	 Reference Energy          =     -76.0515076775177619 [Eh]
	 Singles Energy            =      -0.0000000000000000 [Eh]
	 Same-Spin Energy          =      -0.0692832228472456 [Eh]
	 Opposite-Spin Energy      =      -0.2186830139567938 [Eh]
	 Correlation Energy        =      -0.2879662368040394 [Eh]
	 Total Energy              =     -76.3394739143218004 [Eh]

	 ================> DF-SCS-MP2 Energies <==================
	-----------------------------------------------------------
	 SCS Same-Spin Scale       =       0.3333333333333333 [-]
	 SCS Opposite-Spin Scale   =       1.2000000000000000 [-]
	 SCS Same-Spin Energy      =      -0.0230944076157485 [Eh]
	 SCS Opposite-Spin Energy  =      -0.2624196167481526 [Eh]
	 SCS Correlation Energy    =      -0.2855140243639011 [Eh]
	 SCS Total Energy          =     -76.3370217018816675 [Eh]
	-----------------------------------------------------------

*** Psi4 exiting successfully. Buy a developer a beer!
