                               Psi4 1.8.2 release

  ==> Input File <==

--------------------------------------------------------------------------
MEMORY 60 GB

molecule dimer {
0 1
Gh(Li)     0.000000     0.000000     0.000000
O          1.263765    -0.267496     1.619238
H          2.159690     0.080433     1.842446
H          0.723105    -0.277224     2.376080
Gh(O)     -1.351525    -1.332306     0.260912
Gh(H)     -2.108274    -1.702532    -0.181780
Gh(H)     -1.298557    -1.835541     1.074812
Gh(O)      1.333124     0.996804    -0.988147
Gh(H)      2.221731     0.663227    -1.128336
Gh(H)      1.028669     1.301661    -1.813392
Gh(O)     -1.085799     1.589562     0.765920
Gh(H)     -1.584621     2.287494     0.264073
Gh(H)     -1.694977     1.307918     1.432451

units ang
no_reorient
no_com
symmetry c1
}

set {
basis        aug-cc-pVTZ
scf_type     df
}

energy("mp2")
--------------------------------------------------------------------------

    Molecular point group: c1

    Geometry (in Angstrom), charge = 0, multiplicity = 1:

       Center              X                  Y                   Z               Mass
    ------------   -----------------  -----------------  -----------------  -----------------
      Gh(LI)          0.000000000000     0.000000000000     0.000000000000     7.016003436600
         O            1.263765000000    -0.267496000000     1.619238000000    15.994914619570
         H            2.159690000000     0.080433000000     1.842446000000     1.007825032230
         H            0.723105000000    -0.277224000000     2.376080000000     1.007825032230
      Gh(O)          -1.351525000000    -1.332306000000     0.260912000000    15.994914619570
      Gh(H)          -2.108274000000    -1.702532000000    -0.181780000000     1.007825032230
      Gh(H)          -1.298557000000    -1.835541000000     1.074812000000     1.007825032230
      Gh(O)           1.333124000000     0.996804000000    -0.988147000000    15.994914619570
      Gh(H)           2.221731000000     0.663227000000    -1.128336000000     1.007825032230
      Gh(H)           1.028669000000     1.301661000000    -1.813392000000     1.007825032230
      Gh(O)          -1.085799000000     1.589562000000     0.765920000000    15.994914619570
      Gh(H)          -1.584621000000     2.287494000000     0.264073000000     1.007825032230
      Gh(H)          -1.694977000000     1.307918000000     1.432451000000     1.007825032230

  Charge       = 0
  Multiplicity = 1
  Basis Set: AUG-CC-PVTZ
    Blend: AUG-CC-PVTZ
  Basis Set: (AUG-CC-PVTZ AUX)
    Blend: AUG-CC-PVTZ-JKFIT + DEF2-UNIVERSAL-JKFIT

    Orbital Energies [Eh]
    ---------------------

    Doubly Occupied:

       1A    -20.564368     2A     -1.349573     3A     -0.728098
       4A     -0.573122     5A     -0.508525

  @DF-RHF Final Energy:   -76.05853553460319

   => Energetics <=

    Nuclear Repulsion Energy =              9.1780168855114486
    One-Electron Energy =                -123.0257290287299128
    Two-Electron Energy =                  37.7891766086152643
    Total Energy =                        -76.0585355346031946
 Dipole X            :        -24.3199040           24.5530509            0.2331469
 Dipole Y            :          4.6427941           -4.4158345            0.2269596
 Dipole Z            :        -31.7851346           32.4511896            0.6660550
 Magnitude           :                                                    0.7412809
  Basis Set: (AUG-CC-PVTZ AUX)
    Blend: AUG-CC-PVTZ-RI + DEF2-QZVPP-RI
	 Reference Energy          =     -76.0585355346031946 [Eh]
	 Singles Energy            =      -0.0000000000000000 [Eh]
	 Same-Spin Energy          =      -0.0683584672738648 [Eh]
	 Opposite-Spin Energy      =      -0.2157101544773654 [Eh]
	 Correlation Energy        =      -0.2840686217512302 [Eh]
	 Total Energy              =     -76.3426041563544260 [Eh]

	 ================> DF-SCS-MP2 Energies <==================
	-----------------------------------------------------------
	 SCS Same-Spin Scale       =       0.3333333333333333 [-]
	 SCS Opposite-Spin Scale   =       1.2000000000000000 [-]
	 SCS Same-Spin Energy      =      -0.0227861557579549 [Eh]
	 SCS Opposite-Spin Energy  =      -0.2588521853728385 [Eh]
	 SCS Correlation Energy    =      -0.2816383411307934 [Eh]
	 SCS Total Energy          =     -76.3401738757339814 [Eh]
	-----------------------------------------------------------

*** Psi4 exiting successfully. Buy a developer a beer!
