                               Psi4 1.8.2 release

  ==> Input File <==

--------------------------------------------------------------------------
MEMORY 60 GB

molecule dimer {
1 1
Li         0.000000     0.000000     0.000000
Gh(O)      0.417117    -1.590090    -0.715265
Gh(H)      0.113479    -1.780133    -1.561165
Gh(H)     -0.072674    -2.333038    -0.261775
Gh(O)     -0.978605     0.856936    -1.604785
Gh(H)     -0.831895     0.649771    -2.541595
Gh(H)     -1.405275     1.676017    -1.545406
Gh(O)      1.758787     1.151787     0.325826
Gh(H)      1.656124     1.242794     1.331459
Gh(H)      2.733052     0.921730     0.180866
Gh(O)     -0.660341    -0.397747     1.752656
Gh(H)     -1.486978    -0.023294     2.186827
Gh(H)     -0.498526    -1.285573     1.955375

units ang
no_reorient
no_com
symmetry c1
}

set {
basis        aug-cc-pVTZ
scf_type     df
}

energy("mp2")
--------------------------------------------------------------------------

    Molecular point group: c1

    Geometry (in Angstrom), charge = 1, multiplicity = 1:

       Center              X                  Y                   Z               Mass
    ------------   -----------------  -----------------  -----------------  -----------------
         LI           0.000000000000     0.000000000000     0.000000000000     7.016003436600
      Gh(O)           0.417117000000    -1.590090000000    -0.715265000000    15.994914619570
      Gh(H)           0.113479000000    -1.780133000000    -1.561165000000     1.007825032230
      Gh(H)          -0.072674000000    -2.333038000000    -0.261775000000     1.007825032230
      Gh(O)          -0.978605000000     0.856936000000    -1.604785000000    15.994914619570
      Gh(H)          -0.831895000000     0.649771000000    -2.541595000000     1.007825032230
      Gh(H)          -1.405275000000     1.676017000000    -1.545406000000     1.007825032230
      Gh(O)           1.758787000000     1.151787000000     0.325826000000    15.994914619570
      Gh(H)           1.656124000000     1.242794000000     1.331459000000     1.007825032230
      Gh(H)           2.733052000000     0.921730000000     0.180866000000     1.007825032230
      Gh(O)          -0.660341000000    -0.397747000000     1.752656000000    15.994914619570
      Gh(H)          -1.486978000000    -0.023294000000     2.186827000000     1.007825032230
      Gh(H)          -0.498526000000    -1.285573000000     1.955375000000     1.007825032230

  Charge       = 1
  Multiplicity = 1
  Basis Set: AUG-CC-PVTZ
    Blend: AUG-CC-PVTZ
  Basis Set: (AUG-CC-PVTZ AUX)
    Blend: AUG-CC-PVTZ-JKFIT + DEF2-UNIVERSAL-JKFIT

    Orbital Energies [Eh]
    ---------------------

    Doubly Occupied:

       1A     -2.792353

  @DF-RHF Final Energy:    -7.23638481085937

   => Energetics <=

    Nuclear Repulsion Energy =              0.0000000000000000
    One-Electron Energy =                  -8.8880635504807746
    Two-Electron Energy =                   1.6516787396214054
    Total Energy =                         -7.2363848108593691
 Dipole X            :         -0.0000018            0.0000000           -0.0000018
 Dipole Y            :          0.0000085            0.0000000            0.0000085
 Dipole Z            :         -0.0000026            0.0000000           -0.0000026
 Magnitude           :                                                    0.0000090
  Basis Set: (AUG-CC-PVTZ AUX)
    Blend: AUG-CC-PVTZ-RI + DEF2-QZVPP-RI
	 Reference Energy          =      -7.2363848108593682 [Eh]
	 Singles Energy            =      -0.0000000000000000 [Eh]
	 Same-Spin Energy          =       0.0000000000000000 [Eh]
	 Opposite-Spin Energy      =      -0.0169471492417128 [Eh]
	 Correlation Energy        =      -0.0169471492417128 [Eh]
	 Total Energy              =      -7.2533319601010806 [Eh]

	 ================> DF-SCS-MP2 Energies <==================
	-----------------------------------------------------------
	 SCS Same-Spin Scale       =       0.3333333333333333 [-]
	 SCS Opposite-Spin Scale   =       1.2000000000000000 [-]
	 SCS Same-Spin Energy      =       0.0000000000000000 [Eh]
	 SCS Opposite-Spin Energy  =      -0.0203365790900554 [Eh]
	 SCS Correlation Energy    =      -0.0203365790900554 [Eh]
	 SCS Total Energy          =      -7.2567213899494236 [Eh]
	-----------------------------------------------------------

*** Psi4 exiting successfully. Buy a developer a beer!
