                               Psi4 1.8.2 release

  ==> Input File <==

--------------------------------------------------------------------------
MEMORY 60 GB

molecule dimer {
0 1
Gh(Li)     0.000000     0.000000     0.000000
O          1.625213     0.972567    -0.130984
H          2.385363     0.442167     0.052306
H          1.744821     1.783338     0.393105
Gh(O)     -0.494873    -0.049516    -1.857659
Gh(H)     -1.472930    -0.211893    -1.914216
Gh(H)     -0.138603    -0.782973    -2.357050
Gh(O)     -0.071954    -1.647819     0.654952
Gh(H)      0.228828    -1.705075     1.564639
Gh(H)     -0.688509    -2.401562     0.512174
Gh(O)     -1.490186     0.845902     1.174509
Gh(H)     -1.068979     0.975324     2.036246
Gh(H)     -2.159523     0.106016     1.305168

units ang
no_reorient
no_com
symmetry c1
}

set {
basis        aug-cc-pVTZ
scf_type     df
}

energy("mp2")
--------------------------------------------------------------------------

    Molecular point group: c1

    Geometry (in Angstrom), charge = 0, multiplicity = 1:

       Center              X                  Y                   Z               Mass
    ------------   -----------------  -----------------  -----------------  -----------------
      Gh(LI)          0.000000000000     0.000000000000     0.000000000000     7.016003436600
         O            1.625213000000     0.972567000000    -0.130984000000    15.994914619570
         H            2.385363000000     0.442167000000     0.052306000000     1.007825032230
         H            1.744821000000     1.783338000000     0.393105000000     1.007825032230
      Gh(O)          -0.494873000000    -0.049516000000    -1.857659000000    15.994914619570
      Gh(H)          -1.472930000000    -0.211893000000    -1.914216000000     1.007825032230
      Gh(H)          -0.138603000000    -0.782973000000    -2.357050000000     1.007825032230
      Gh(O)          -0.071954000000    -1.647819000000     0.654952000000    15.994914619570
      Gh(H)           0.228828000000    -1.705075000000     1.564639000000     1.007825032230
      Gh(H)          -0.688509000000    -2.401562000000     0.512174000000     1.007825032230
      Gh(O)          -1.490186000000     0.845902000000     1.174509000000    15.994914619570
      Gh(H)          -1.068979000000     0.975324000000     2.036246000000     1.007825032230
      Gh(H)          -2.159523000000     0.106016000000     1.305168000000     1.007825032230

  Charge       = 0
  Multiplicity = 1
  Basis Set: AUG-CC-PVTZ
    Blend: AUG-CC-PVTZ
  Basis Set: (AUG-CC-PVTZ AUX)
    Blend: AUG-CC-PVTZ-JKFIT + DEF2-UNIVERSAL-JKFIT

    Orbital Energies [Eh]
    ---------------------

    Doubly Occupied:

       1A    -20.566819     2A     -1.352240     3A     -0.718481
       4A     -0.582856     5A     -0.509962

  @DF-RHF Final Energy:   -76.06028954504428

   => Energetics <=

    Nuclear Repulsion Energy =              9.1793587968297743
    One-Electron Energy =                -123.0185754096071378
    Two-Electron Energy =                  37.7789270677330862
    Total Energy =                        -76.0602895450442702
 Dipole X            :        -31.7865301           32.3745763            0.5880462
 Dipole Y            :        -18.7259716           18.9086771            0.1827055
 Dipole Z            :          1.6083313           -1.1384863            0.4698450
 Magnitude           :                                                    0.7745540
  Basis Set: (AUG-CC-PVTZ AUX)
    Blend: AUG-CC-PVTZ-RI + DEF2-QZVPP-RI
	 Reference Energy          =     -76.0602895450442844 [Eh]
	 Singles Energy            =      -0.0000000000000000 [Eh]
	 Same-Spin Energy          =      -0.0684447074469457 [Eh]
	 Opposite-Spin Energy      =      -0.2160746362883611 [Eh]
	 Correlation Energy        =      -0.2845193437353067 [Eh]
	 Total Energy              =     -76.3448088887795961 [Eh]

	 ================> DF-SCS-MP2 Energies <==================
	-----------------------------------------------------------
	 SCS Same-Spin Scale       =       0.3333333333333333 [-]
	 SCS Opposite-Spin Scale   =       1.2000000000000000 [-]
	 SCS Same-Spin Energy      =      -0.0228149024823152 [Eh]
	 SCS Opposite-Spin Energy  =      -0.2592895635460333 [Eh]
	 SCS Correlation Energy    =      -0.2821044660283485 [Eh]
	 SCS Total Energy          =     -76.3423940110726278 [Eh]
	-----------------------------------------------------------

*** Psi4 exiting successfully. Buy a developer a beer!
