                               Psi4 1.8.2 release

  ==> Input File <==

--------------------------------------------------------------------------
MEMORY 60 GB

molecule dimer {
1 1
Li         0.000000     0.000000     0.000000
Gh(O)      1.248744    -1.546356    -0.063915
Gh(H)      1.572886    -2.181593    -0.699843
Gh(H)      1.029516    -2.049213     0.724090
Gh(O)      0.765829     1.000564     1.387872
Gh(H)      0.151349     0.926457     2.100303
Gh(H)      1.657507     0.667016     1.546448
Gh(O)     -1.671574    -0.529749     0.598972
Gh(H)     -1.713174    -1.282973     1.185456
Gh(H)     -2.204628    -0.664548    -0.213532
Gh(O)     -0.147700     1.539800    -1.361374
Gh(H)      0.650302     2.003122    -1.769900
Gh(H)     -0.810619     1.511850    -2.060867

units ang
no_reorient
no_com
symmetry c1
}

set {
basis        aug-cc-pVTZ
scf_type     df
}

energy("mp2")
--------------------------------------------------------------------------

    Molecular point group: c1

    Geometry (in Angstrom), charge = 1, multiplicity = 1:

       Center              X                  Y                   Z               Mass
    ------------   -----------------  -----------------  -----------------  -----------------
         LI           0.000000000000     0.000000000000     0.000000000000     7.016003436600
      Gh(O)           1.248744000000    -1.546356000000    -0.063915000000    15.994914619570
      Gh(H)           1.572886000000    -2.181593000000    -0.699843000000     1.007825032230
      Gh(H)           1.029516000000    -2.049213000000     0.724090000000     1.007825032230
      Gh(O)           0.765829000000     1.000564000000     1.387872000000    15.994914619570
      Gh(H)           0.151349000000     0.926457000000     2.100303000000     1.007825032230
      Gh(H)           1.657507000000     0.667016000000     1.546448000000     1.007825032230
      Gh(O)          -1.671574000000    -0.529749000000     0.598972000000    15.994914619570
      Gh(H)          -1.713174000000    -1.282973000000     1.185456000000     1.007825032230
      Gh(H)          -2.204628000000    -0.664548000000    -0.213532000000     1.007825032230
      Gh(O)          -0.147700000000     1.539800000000    -1.361374000000    15.994914619570
      Gh(H)           0.650302000000     2.003122000000    -1.769900000000     1.007825032230
      Gh(H)          -0.810619000000     1.511850000000    -2.060867000000     1.007825032230

  Charge       = 1
  Multiplicity = 1
  Basis Set: AUG-CC-PVTZ
    Blend: AUG-CC-PVTZ
  Basis Set: (AUG-CC-PVTZ AUX)
    Blend: AUG-CC-PVTZ-JKFIT + DEF2-UNIVERSAL-JKFIT

    Orbital Energies [Eh]
    ---------------------

    Doubly Occupied:

       1A     -2.792352

  @DF-RHF Final Energy:    -7.23638494099640

   => Energetics <=

    Nuclear Repulsion Energy =              0.0000000000000000
    One-Electron Energy =                  -8.8880662890049642
    Two-Electron Energy =                   1.6516813480085641
    Total Energy =                         -7.2363849409964001
 Dipole X            :          0.0000031            0.0000000            0.0000031
 Dipole Y            :         -0.0000009            0.0000000           -0.0000009
 Dipole Z            :         -0.0000112            0.0000000           -0.0000112
 Magnitude           :                                                    0.0000116
  Basis Set: (AUG-CC-PVTZ AUX)
    Blend: AUG-CC-PVTZ-RI + DEF2-QZVPP-RI
	 Reference Energy          =      -7.2363849409964001 [Eh]
	 Singles Energy            =      -0.0000000000000000 [Eh]
	 Same-Spin Energy          =       0.0000000000000000 [Eh]
	 Opposite-Spin Energy      =      -0.0172451591952891 [Eh]
	 Correlation Energy        =      -0.0172451591952891 [Eh]
	 Total Energy              =      -7.2536301001916890 [Eh]

	 ================> DF-SCS-MP2 Energies <==================
	-----------------------------------------------------------
	 SCS Same-Spin Scale       =       0.3333333333333333 [-]
	 SCS Opposite-Spin Scale   =       1.2000000000000000 [-]
	 SCS Same-Spin Energy      =       0.0000000000000000 [Eh]
	 SCS Opposite-Spin Energy  =      -0.0206941910343469 [Eh]
	 SCS Correlation Energy    =      -0.0206941910343469 [Eh]
	 SCS Total Energy          =      -7.2570791320307473 [Eh]
	-----------------------------------------------------------

*** Psi4 exiting successfully. Buy a developer a beer!
