                               Psi4 1.8.2 release

  ==> Input File <==

--------------------------------------------------------------------------
MEMORY 60 GB

molecule dimer {
1 1
Li         0.000000     0.000000     0.000000
Gh(O)     -1.588684    -0.034020     1.157610
Gh(H)     -1.734204     0.297682     2.041051
Gh(H)     -2.231280    -0.760891     1.129331
Gh(O)      0.752858    -1.834769    -0.351999
Gh(H)      0.203711    -2.620276    -0.124323
Gh(H)      1.157037    -2.060091    -1.215316
Gh(O)      0.239663     0.677904    -1.813970
Gh(H)      0.022632     0.033005    -2.467301
Gh(H)     -0.269429     1.542115    -2.063452

units ang
no_reorient
no_com
symmetry c1
}

set {
basis        aug-cc-pVTZ
scf_type     df
}

energy("mp2")
--------------------------------------------------------------------------

    Molecular point group: c1

    Geometry (in Angstrom), charge = 1, multiplicity = 1:

       Center              X                  Y                   Z               Mass
    ------------   -----------------  -----------------  -----------------  -----------------
         LI           0.000000000000     0.000000000000     0.000000000000     7.016003436600
      Gh(O)          -1.588684000000    -0.034020000000     1.157610000000    15.994914619570
      Gh(H)          -1.734204000000     0.297682000000     2.041051000000     1.007825032230
      Gh(H)          -2.231280000000    -0.760891000000     1.129331000000     1.007825032230
      Gh(O)           0.752858000000    -1.834769000000    -0.351999000000    15.994914619570
      Gh(H)           0.203711000000    -2.620276000000    -0.124323000000     1.007825032230
      Gh(H)           1.157037000000    -2.060091000000    -1.215316000000     1.007825032230
      Gh(O)           0.239663000000     0.677904000000    -1.813970000000    15.994914619570
      Gh(H)           0.022632000000     0.033005000000    -2.467301000000     1.007825032230
      Gh(H)          -0.269429000000     1.542115000000    -2.063452000000     1.007825032230

  Charge       = 1
  Multiplicity = 1
  Basis Set: AUG-CC-PVTZ
    Blend: AUG-CC-PVTZ
  Basis Set: (AUG-CC-PVTZ AUX)
    Blend: AUG-CC-PVTZ-JKFIT + DEF2-UNIVERSAL-JKFIT

    Orbital Energies [Eh]
    ---------------------

    Doubly Occupied:

       1A     -2.792360

  @DF-RHF Final Energy:    -7.23638436762925

   => Energetics <=

    Nuclear Repulsion Energy =              0.0000000000000000
    One-Electron Energy =                  -8.8880484808321381
    Two-Electron Energy =                   1.6516641132028882
    Total Energy =                         -7.2363843676292499
 Dipole X            :         -0.0000302            0.0000000           -0.0000302
 Dipole Y            :         -0.0000233            0.0000000           -0.0000233
 Dipole Z            :         -0.0000218            0.0000000           -0.0000218
 Magnitude           :                                                    0.0000439
  Basis Set: (AUG-CC-PVTZ AUX)
    Blend: AUG-CC-PVTZ-RI + DEF2-QZVPP-RI
	 Reference Energy          =      -7.2363843676292507 [Eh]
	 Singles Energy            =      -0.0000000000000000 [Eh]
	 Same-Spin Energy          =       0.0000000000000000 [Eh]
	 Opposite-Spin Energy      =      -0.0154466765520611 [Eh]
	 Correlation Energy        =      -0.0154466765520611 [Eh]
	 Total Energy              =      -7.2518310441813121 [Eh]

	 ================> DF-SCS-MP2 Energies <==================
	-----------------------------------------------------------
	 SCS Same-Spin Scale       =       0.3333333333333333 [-]
	 SCS Opposite-Spin Scale   =       1.2000000000000000 [-]
	 SCS Same-Spin Energy      =       0.0000000000000000 [Eh]
	 SCS Opposite-Spin Energy  =      -0.0185360118624734 [Eh]
	 SCS Correlation Energy    =      -0.0185360118624734 [Eh]
	 SCS Total Energy          =      -7.2549203794917245 [Eh]
	-----------------------------------------------------------

*** Psi4 exiting successfully. Buy a developer a beer!
