                               Psi4 1.8.2 release

  ==> Input File <==

--------------------------------------------------------------------------
MEMORY 60 GB

molecule dimer {
1 1
Li         0.000000     0.000000     0.000000
O          1.296978    -1.022674    -0.940549
H          2.066028    -0.402028    -0.993363
H          1.641941    -1.811888    -0.528858
O         -0.396746     1.474444    -1.474878
H         -1.280057     1.910080    -1.499885
H         -0.029846     1.581237    -2.348859
O         -1.483670    -0.955584    -0.302297
H         -2.040982    -0.609953    -1.043081
H         -1.234753    -1.872425    -0.358799
O          0.250460     0.847898     1.880600
H         -0.509855     0.604026     2.413481
H          0.341405     1.822100     1.938332

units ang
no_reorient
no_com
symmetry c1
}

set {
basis        aug-cc-pVTZ
scf_type     df
}

energy("mp2")
--------------------------------------------------------------------------

    Molecular point group: c1

    Geometry (in Angstrom), charge = 1, multiplicity = 1:

       Center              X                  Y                   Z               Mass
    ------------   -----------------  -----------------  -----------------  -----------------
         LI           0.000000000000     0.000000000000     0.000000000000     7.016003436600
         O            1.296978000000    -1.022674000000    -0.940549000000    15.994914619570
         H            2.066028000000    -0.402028000000    -0.993363000000     1.007825032230
         H            1.641941000000    -1.811888000000    -0.528858000000     1.007825032230
         O           -0.396746000000     1.474444000000    -1.474878000000    15.994914619570
         H           -1.280057000000     1.910080000000    -1.499885000000     1.007825032230
         H           -0.029846000000     1.581237000000    -2.348859000000     1.007825032230
         O           -1.483670000000    -0.955584000000    -0.302297000000    15.994914619570
         H           -2.040982000000    -0.609953000000    -1.043081000000     1.007825032230
         H           -1.234753000000    -1.872425000000    -0.358799000000     1.007825032230
         O            0.250460000000     0.847898000000     1.880600000000    15.994914619570
         H           -0.509855000000     0.604026000000     2.413481000000     1.007825032230
         H            0.341405000000     1.822100000000     1.938332000000     1.007825032230

  Charge       = 1
  Multiplicity = 1
  Basis Set: AUG-CC-PVTZ
    Blend: AUG-CC-PVTZ
  Basis Set: (AUG-CC-PVTZ AUX)
    Blend: AUG-CC-PVTZ-JKFIT + DEF2-UNIVERSAL-JKFIT

    Orbital Energies [Eh]
    ---------------------

    Doubly Occupied:

       1A    -20.756726     2A    -20.747449     3A    -20.746500
       4A    -20.743004     5A     -2.534884     6A     -1.542086
       7A     -1.533923     8A     -1.528580     9A     -1.523729
      10A     -0.922627    11A     -0.904289    12A     -0.892780
      13A     -0.890926    14A     -0.795394    15A     -0.776692
      16A     -0.768877    17A     -0.766530    18A     -0.711222
      19A     -0.707789    20A     -0.691143    21A     -0.686942

  @DF-RHF Final Energy:  -311.61678973675959

   => Energetics <=

    Nuclear Repulsion Energy =            162.9819526322937122
    One-Electron Energy =                -746.8532889764794618
    Two-Electron Energy =                 272.2545466074261071
    Total Energy =                       -311.6167897367595856
 Dipole X            :          6.7185972           -7.0107762           -0.2921791
 Dipole Y            :         -7.1488520            7.5094334            0.3605813
 Dipole Z            :         16.5366081          -17.2305682           -0.6939600
 Magnitude           :                                                    0.8348461
  Basis Set: (AUG-CC-PVTZ AUX)
    Blend: AUG-CC-PVTZ-RI + DEF2-QZVPP-RI
	 Reference Energy          =    -311.6167897367595856 [Eh]
	 Singles Energy            =      -0.0000000000000000 [Eh]
	 Same-Spin Energy          =      -0.2760008909736710 [Eh]
	 Opposite-Spin Energy      =      -0.8795489358482013 [Eh]
	 Correlation Energy        =      -1.1555498268218722 [Eh]
	 Total Energy              =    -312.7723395635814541 [Eh]

	 ================> DF-SCS-MP2 Energies <==================
	-----------------------------------------------------------
	 SCS Same-Spin Scale       =       0.3333333333333333 [-]
	 SCS Opposite-Spin Scale   =       1.2000000000000000 [-]
	 SCS Same-Spin Energy      =      -0.0920002969912237 [Eh]
	 SCS Opposite-Spin Energy  =      -1.0554587230178414 [Eh]
	 SCS Correlation Energy    =      -1.1474590200090651 [Eh]
	 SCS Total Energy          =    -312.7642487567686658 [Eh]
	-----------------------------------------------------------

*** Psi4 exiting successfully. Buy a developer a beer!
