                               Psi4 1.8.2 release

  ==> Input File <==

--------------------------------------------------------------------------
MEMORY 60 GB

molecule dimer {
1 1
Li         0.000000     0.000000     0.000000
O         -0.984691    -0.969052     1.267687
H         -1.298677    -0.512598     2.085258
H         -1.774992    -1.550102     1.066930
O          0.635689     1.405102     0.678468
H          1.386421     1.451552     1.210237
H         -0.135008     1.841375     1.074997
O          1.465994    -1.501291    -0.557694
H          1.460995    -2.365831    -0.942800
H          1.959287    -0.902242    -1.128803
O         -0.443803     0.020399    -1.936730
H         -0.816450    -0.798888    -2.251870
H         -1.133766     0.682308    -2.119070

units ang
no_reorient
no_com
symmetry c1
}

set {
basis        aug-cc-pVTZ
scf_type     df
}

energy("mp2")
--------------------------------------------------------------------------

    Molecular point group: c1

    Geometry (in Angstrom), charge = 1, multiplicity = 1:

       Center              X                  Y                   Z               Mass
    ------------   -----------------  -----------------  -----------------  -----------------
         LI           0.000000000000     0.000000000000     0.000000000000     7.016003436600
         O           -0.984691000000    -0.969052000000     1.267687000000    15.994914619570
         H           -1.298677000000    -0.512598000000     2.085258000000     1.007825032230
         H           -1.774992000000    -1.550102000000     1.066930000000     1.007825032230
         O            0.635689000000     1.405102000000     0.678468000000    15.994914619570
         H            1.386421000000     1.451552000000     1.210237000000     1.007825032230
         H           -0.135008000000     1.841375000000     1.074997000000     1.007825032230
         O            1.465994000000    -1.501291000000    -0.557694000000    15.994914619570
         H            1.460995000000    -2.365831000000    -0.942800000000     1.007825032230
         H            1.959287000000    -0.902242000000    -1.128803000000     1.007825032230
         O           -0.443803000000     0.020399000000    -1.936730000000    15.994914619570
         H           -0.816450000000    -0.798888000000    -2.251870000000     1.007825032230
         H           -1.133766000000     0.682308000000    -2.119070000000     1.007825032230

  Charge       = 1
  Multiplicity = 1
  Basis Set: AUG-CC-PVTZ
    Blend: AUG-CC-PVTZ
  Basis Set: (AUG-CC-PVTZ AUX)
    Blend: AUG-CC-PVTZ-JKFIT + DEF2-UNIVERSAL-JKFIT

    Orbital Energies [Eh]
    ---------------------

    Doubly Occupied:

       1A    -20.763466     2A    -20.760700     3A    -20.750152
       4A    -20.719452     5A     -2.529810     6A     -1.566641
       7A     -1.538447     8A     -1.534012     9A     -1.510340
      10A     -0.949042    11A     -0.898228    12A     -0.887235
      13A     -0.883624    14A     -0.804445    15A     -0.801349
      16A     -0.782852    17A     -0.742526    18A     -0.725709
      19A     -0.710636    20A     -0.699074    21A     -0.668334

  @DF-RHF Final Energy:  -311.60875566149008

   => Energetics <=

    Nuclear Repulsion Energy =            165.9586490485254444
    One-Electron Energy =                -752.6826628388730569
    Two-Electron Energy =                 275.1152581288575334
    Total Energy =                       -311.6087556614900791
 Dipole X            :        -10.5762328            9.5116001           -1.0646327
 Dipole Y            :         19.7341903          -19.8669969           -0.1328066
 Dipole Z            :         10.2665406          -10.1880294            0.0785112
 Magnitude           :                                                    1.0757530
  Basis Set: (AUG-CC-PVTZ AUX)
    Blend: AUG-CC-PVTZ-RI + DEF2-QZVPP-RI
	 Reference Energy          =    -311.6087556614900791 [Eh]
	 Singles Energy            =      -0.0000000000000000 [Eh]
	 Same-Spin Energy          =      -0.2760685066658121 [Eh]
	 Opposite-Spin Energy      =      -0.8795054547827482 [Eh]
	 Correlation Energy        =      -1.1555739614485603 [Eh]
	 Total Energy              =    -312.7643296229386465 [Eh]

	 ================> DF-SCS-MP2 Energies <==================
	-----------------------------------------------------------
	 SCS Same-Spin Scale       =       0.3333333333333333 [-]
	 SCS Opposite-Spin Scale   =       1.2000000000000000 [-]
	 SCS Same-Spin Energy      =      -0.0920228355552707 [Eh]
	 SCS Opposite-Spin Energy  =      -1.0554065457392978 [Eh]
	 SCS Correlation Energy    =      -1.1474293812945686 [Eh]
	 SCS Total Energy          =    -312.7561850427846366 [Eh]
	-----------------------------------------------------------

*** Psi4 exiting successfully. Buy a developer a beer!
