                               Psi4 1.8.2 release

  ==> Input File <==

--------------------------------------------------------------------------
MEMORY 60 GB

molecule dimer {
0 1
Gh(Li)     0.000000     0.000000     0.000000
Gh(O)      0.778758    -0.677263     1.669262
Gh(H)      0.156902    -1.291452     2.063438
Gh(H)      1.726307    -1.001041     1.653786
O         -0.201146     1.717887    -0.567701
H         -0.877478     2.173081    -0.028194
H         -0.676930     1.554022    -1.382573
Gh(O)      0.498720    -1.024337    -1.589394
Gh(H)      0.287247    -0.644818    -2.452001
Gh(H)      1.305141    -1.493530    -1.587149
Gh(O)     -1.985305    -0.778725    -0.196160
Gh(H)     -2.154204    -1.191439    -1.039674
Gh(H)     -2.698583    -0.134123    -0.133709

units ang
no_reorient
no_com
symmetry c1
}

set {
basis        aug-cc-pVTZ
scf_type     df
}

energy("mp2")
--------------------------------------------------------------------------

    Molecular point group: c1

    Geometry (in Angstrom), charge = 0, multiplicity = 1:

       Center              X                  Y                   Z               Mass
    ------------   -----------------  -----------------  -----------------  -----------------
      Gh(LI)          0.000000000000     0.000000000000     0.000000000000     7.016003436600
      Gh(O)           0.778758000000    -0.677263000000     1.669262000000    15.994914619570
      Gh(H)           0.156902000000    -1.291452000000     2.063438000000     1.007825032230
      Gh(H)           1.726307000000    -1.001041000000     1.653786000000     1.007825032230
         O           -0.201146000000     1.717887000000    -0.567701000000    15.994914619570
         H           -0.877478000000     2.173081000000    -0.028194000000     1.007825032230
         H           -0.676930000000     1.554022000000    -1.382573000000     1.007825032230
      Gh(O)           0.498720000000    -1.024337000000    -1.589394000000    15.994914619570
      Gh(H)           0.287247000000    -0.644818000000    -2.452001000000     1.007825032230
      Gh(H)           1.305141000000    -1.493530000000    -1.587149000000     1.007825032230
      Gh(O)          -1.985305000000    -0.778725000000    -0.196160000000    15.994914619570
      Gh(H)          -2.154204000000    -1.191439000000    -1.039674000000     1.007825032230
      Gh(H)          -2.698583000000    -0.134123000000    -0.133709000000     1.007825032230

  Charge       = 0
  Multiplicity = 1
  Basis Set: AUG-CC-PVTZ
    Blend: AUG-CC-PVTZ
  Basis Set: (AUG-CC-PVTZ AUX)
    Blend: AUG-CC-PVTZ-JKFIT + DEF2-UNIVERSAL-JKFIT

    Orbital Energies [Eh]
    ---------------------

    Doubly Occupied:

       1A    -20.569935     2A     -1.350125     3A     -0.706923
       4A     -0.587976     5A     -0.510262

  @DF-RHF Final Energy:   -76.05937086991435

   => Energetics <=

    Nuclear Repulsion Energy =              9.1028930408544326
    One-Electron Energy =                -122.8740834413437142
    Two-Electron Energy =                  37.7118195305749353
    Total Energy =                        -76.0593708699143463
 Dipole X            :          5.2234934           -5.9782922           -0.7547989
 Dipole Y            :        -32.8242354           33.0138915            0.1896561
 Dipole Z            :         11.0643860          -11.2483585           -0.1839726
 Magnitude           :                                                    0.7997104
  Basis Set: (AUG-CC-PVTZ AUX)
    Blend: AUG-CC-PVTZ-RI + DEF2-QZVPP-RI
	 Reference Energy          =     -76.0593708699143463 [Eh]
	 Singles Energy            =      -0.0000000000000000 [Eh]
	 Same-Spin Energy          =      -0.0686848100442922 [Eh]
	 Opposite-Spin Energy      =      -0.2168598445778861 [Eh]
	 Correlation Energy        =      -0.2855446546221784 [Eh]
	 Total Energy              =     -76.3449155245365176 [Eh]

	 ================> DF-SCS-MP2 Energies <==================
	-----------------------------------------------------------
	 SCS Same-Spin Scale       =       0.3333333333333333 [-]
	 SCS Opposite-Spin Scale   =       1.2000000000000000 [-]
	 SCS Same-Spin Energy      =      -0.0228949366814307 [Eh]
	 SCS Opposite-Spin Energy  =      -0.2602318134934633 [Eh]
	 SCS Correlation Energy    =      -0.2831267501748941 [Eh]
	 SCS Total Energy          =     -76.3424976200892473 [Eh]
	-----------------------------------------------------------

*** Psi4 exiting successfully. Buy a developer a beer!
