                               Psi4 1.8.2 release

  ==> Input File <==

--------------------------------------------------------------------------
MEMORY 60 GB

molecule dimer {
0 1
Gh(Li)     0.000000     0.000000     0.000000
Gh(O)      1.014907    -1.846591     0.065476
Gh(H)      0.268180    -2.329649    -0.359526
Gh(H)      1.399774    -2.433915     0.796256
O          1.462449     1.073689     0.580959
H          1.086336     1.782468     1.119353
H          2.002930     0.547479     1.110363
Gh(O)     -0.252680     0.490401    -1.807295
Gh(H)      0.113651     0.060304    -2.550227
Gh(H)     -1.152599     0.460089    -2.081251
Gh(O)     -1.692409     0.463443     0.935552
Gh(H)     -2.421769     0.480840     0.338377
Gh(H)     -1.923923    -0.014474     1.749577

units ang
no_reorient
no_com
symmetry c1
}

set {
basis        aug-cc-pVTZ
scf_type     df
}

energy("mp2")
--------------------------------------------------------------------------

    Molecular point group: c1

    Geometry (in Angstrom), charge = 0, multiplicity = 1:

       Center              X                  Y                   Z               Mass
    ------------   -----------------  -----------------  -----------------  -----------------
      Gh(LI)          0.000000000000     0.000000000000     0.000000000000     7.016003436600
      Gh(O)           1.014907000000    -1.846591000000     0.065476000000    15.994914619570
      Gh(H)           0.268180000000    -2.329649000000    -0.359526000000     1.007825032230
      Gh(H)           1.399774000000    -2.433915000000     0.796256000000     1.007825032230
         O            1.462449000000     1.073689000000     0.580959000000    15.994914619570
         H            1.086336000000     1.782468000000     1.119353000000     1.007825032230
         H            2.002930000000     0.547479000000     1.110363000000     1.007825032230
      Gh(O)          -0.252680000000     0.490401000000    -1.807295000000    15.994914619570
      Gh(H)           0.113651000000     0.060304000000    -2.550227000000     1.007825032230
      Gh(H)          -1.152599000000     0.460089000000    -2.081251000000     1.007825032230
      Gh(O)          -1.692409000000     0.463443000000     0.935552000000    15.994914619570
      Gh(H)          -2.421769000000     0.480840000000     0.338377000000     1.007825032230
      Gh(H)          -1.923923000000    -0.014474000000     1.749577000000     1.007825032230

  Charge       = 0
  Multiplicity = 1
  Basis Set: AUG-CC-PVTZ
    Blend: AUG-CC-PVTZ
  Basis Set: (AUG-CC-PVTZ AUX)
    Blend: AUG-CC-PVTZ-JKFIT + DEF2-UNIVERSAL-JKFIT

    Orbital Energies [Eh]
    ---------------------

    Doubly Occupied:

       1A    -20.562462     2A     -1.357673     3A     -0.734091
       4A     -0.578283     5A     -0.510178

  @DF-RHF Final Energy:   -76.05999578721072

   => Energetics <=

    Nuclear Repulsion Energy =              9.3189385624217387
    One-Electron Energy =                -123.2724917300186576
    Two-Electron Energy =                  37.8935573803862127
    Total Energy =                        -76.0599957872107098
 Dipole X            :        -27.8307762           27.9468913            0.1161151
 Dipole Y            :        -20.5158291           20.6347869            0.1189578
 Dipole Z            :        -12.2699342           12.9963798            0.7264455
 Magnitude           :                                                    0.7452227
  Basis Set: (AUG-CC-PVTZ AUX)
    Blend: AUG-CC-PVTZ-RI + DEF2-QZVPP-RI
	 Reference Energy          =     -76.0599957872107240 [Eh]
	 Singles Energy            =      -0.0000000000000000 [Eh]
	 Same-Spin Energy          =      -0.0681374588915412 [Eh]
	 Opposite-Spin Energy      =      -0.2151265671535126 [Eh]
	 Correlation Energy        =      -0.2832640260450537 [Eh]
	 Total Energy              =     -76.3432598132557843 [Eh]

	 ================> DF-SCS-MP2 Energies <==================
	-----------------------------------------------------------
	 SCS Same-Spin Scale       =       0.3333333333333333 [-]
	 SCS Opposite-Spin Scale   =       1.2000000000000000 [-]
	 SCS Same-Spin Energy      =      -0.0227124862971804 [Eh]
	 SCS Opposite-Spin Energy  =      -0.2581518805842151 [Eh]
	 SCS Correlation Energy    =      -0.2808643668813955 [Eh]
	 SCS Total Energy          =     -76.3408601540921126 [Eh]
	-----------------------------------------------------------

*** Psi4 exiting successfully. Buy a developer a beer!
