                               Psi4 1.8.2 release

  ==> Input File <==

--------------------------------------------------------------------------
MEMORY 60 GB

molecule dimer {
0 1
Gh(Li)     0.000000     0.000000     0.000000
Gh(O)     -1.829508    -0.641529    -0.116596
Gh(H)     -2.245218    -1.401823     0.337083
Gh(H)     -2.405229     0.147066     0.040068
Gh(O)      1.045908    -1.319112     0.956515
Gh(H)      0.891268    -2.074872     0.424262
Gh(H)      1.373886    -1.802633     1.730328
O         -0.336450     1.237982     1.473212
H         -0.080217     1.043728     2.387034
H         -1.249922     1.540474     1.565383
Gh(O)      0.944052     0.330530    -1.628880
Gh(H)      1.016951    -0.286313    -2.447950
Gh(H)      1.828938     0.753977    -1.669468

units ang
no_reorient
no_com
symmetry c1
}

set {
basis        aug-cc-pVTZ
scf_type     df
}

energy("mp2")
--------------------------------------------------------------------------

    Molecular point group: c1

    Geometry (in Angstrom), charge = 0, multiplicity = 1:

       Center              X                  Y                   Z               Mass
    ------------   -----------------  -----------------  -----------------  -----------------
      Gh(LI)          0.000000000000     0.000000000000     0.000000000000     7.016003436600
      Gh(O)          -1.829508000000    -0.641529000000    -0.116596000000    15.994914619570
      Gh(H)          -2.245218000000    -1.401823000000     0.337083000000     1.007825032230
      Gh(H)          -2.405229000000     0.147066000000     0.040068000000     1.007825032230
      Gh(O)           1.045908000000    -1.319112000000     0.956515000000    15.994914619570
      Gh(H)           0.891268000000    -2.074872000000     0.424262000000     1.007825032230
      Gh(H)           1.373886000000    -1.802633000000     1.730328000000     1.007825032230
         O           -0.336450000000     1.237982000000     1.473212000000    15.994914619570
         H           -0.080217000000     1.043728000000     2.387034000000     1.007825032230
         H           -1.249922000000     1.540474000000     1.565383000000     1.007825032230
      Gh(O)           0.944052000000     0.330530000000    -1.628880000000    15.994914619570
      Gh(H)           1.016951000000    -0.286313000000    -2.447950000000     1.007825032230
      Gh(H)           1.828938000000     0.753977000000    -1.669468000000     1.007825032230

  Charge       = 0
  Multiplicity = 1
  Basis Set: AUG-CC-PVTZ
    Blend: AUG-CC-PVTZ
  Basis Set: (AUG-CC-PVTZ AUX)
    Blend: AUG-CC-PVTZ-JKFIT + DEF2-UNIVERSAL-JKFIT

    Orbital Energies [Eh]
    ---------------------

    Doubly Occupied:

       1A    -20.569511     2A     -1.349277     3A     -0.708837
       4A     -0.586032     5A     -0.509946

  @DF-RHF Final Energy:   -76.05971984765445

   => Energetics <=

    Nuclear Repulsion Energy =              9.0991371069356592
    One-Electron Energy =                -122.8705043825798953
    Two-Electron Energy =                  37.7116474279897886
    Total Energy =                        -76.0597198476544492
 Dipole X            :          7.1675877           -7.5999853           -0.4323976
 Dipole Y            :        -23.5276002           23.5990095            0.0714092
 Dipole Z            :        -29.0794445           29.7407233            0.6612788
 Magnitude           :                                                    0.7933200
  Basis Set: (AUG-CC-PVTZ AUX)
    Blend: AUG-CC-PVTZ-RI + DEF2-QZVPP-RI
	 Reference Energy          =     -76.0597198476544492 [Eh]
	 Singles Energy            =      -0.0000000000000000 [Eh]
	 Same-Spin Energy          =      -0.0686551022677523 [Eh]
	 Opposite-Spin Energy      =      -0.2166883084992912 [Eh]
	 Correlation Energy        =      -0.2853434107670436 [Eh]
	 Total Energy              =     -76.3450632584214901 [Eh]

	 ================> DF-SCS-MP2 Energies <==================
	-----------------------------------------------------------
	 SCS Same-Spin Scale       =       0.3333333333333333 [-]
	 SCS Opposite-Spin Scale   =       1.2000000000000000 [-]
	 SCS Same-Spin Energy      =      -0.0228850340892508 [Eh]
	 SCS Opposite-Spin Energy  =      -0.2600259701991495 [Eh]
	 SCS Correlation Energy    =      -0.2829110042884003 [Eh]
	 SCS Total Energy          =     -76.3426308519428432 [Eh]
	-----------------------------------------------------------

*** Psi4 exiting successfully. Buy a developer a beer!
