                               Psi4 1.8.2 release

  ==> Input File <==

--------------------------------------------------------------------------
MEMORY 60 GB

molecule dimer {
1 1
Li         0.000000     0.000000     0.000000
O         -0.979497     1.661715    -0.383017
H         -1.942918     1.715495    -0.206976
H         -0.939941     1.583322    -1.344780
O         -0.874120    -1.338989    -0.808144
H         -1.695116    -1.751423    -0.533523
H         -0.327135    -2.063220    -1.130349
O          0.608715     0.248553     1.781960
H          1.153588     0.893218     2.259355
H         -0.175350     0.061724     2.297094
O          1.616898    -0.021797    -1.057657
H          1.564752    -0.251149    -1.971527
H          2.506419    -0.320433    -0.827794

units ang
no_reorient
no_com
symmetry c1
}

set {
basis        aug-cc-pVTZ
scf_type     df
}

energy("mp2")
--------------------------------------------------------------------------

    Molecular point group: c1

    Geometry (in Angstrom), charge = 1, multiplicity = 1:

       Center              X                  Y                   Z               Mass
    ------------   -----------------  -----------------  -----------------  -----------------
         LI           0.000000000000     0.000000000000     0.000000000000     7.016003436600
         O           -0.979497000000     1.661715000000    -0.383017000000    15.994914619570
         H           -1.942918000000     1.715495000000    -0.206976000000     1.007825032230
         H           -0.939941000000     1.583322000000    -1.344780000000     1.007825032230
         O           -0.874120000000    -1.338989000000    -0.808144000000    15.994914619570
         H           -1.695116000000    -1.751423000000    -0.533523000000     1.007825032230
         H           -0.327135000000    -2.063220000000    -1.130349000000     1.007825032230
         O            0.608715000000     0.248553000000     1.781960000000    15.994914619570
         H            1.153588000000     0.893218000000     2.259355000000     1.007825032230
         H           -0.175350000000     0.061724000000     2.297094000000     1.007825032230
         O            1.616898000000    -0.021797000000    -1.057657000000    15.994914619570
         H            1.564752000000    -0.251149000000    -1.971527000000     1.007825032230
         H            2.506419000000    -0.320433000000    -0.827794000000     1.007825032230

  Charge       = 1
  Multiplicity = 1
  Basis Set: AUG-CC-PVTZ
    Blend: AUG-CC-PVTZ
  Basis Set: (AUG-CC-PVTZ AUX)
    Blend: AUG-CC-PVTZ-JKFIT + DEF2-UNIVERSAL-JKFIT

    Orbital Energies [Eh]
    ---------------------

    Doubly Occupied:

       1A    -20.764653     2A    -20.747625     3A    -20.741546
       4A    -20.740164     5A     -2.523087     6A     -1.558135
       7A     -1.542685     8A     -1.528929     9A     -1.523866
      10A     -0.921137    11A     -0.902610    12A     -0.896893
      13A     -0.880587    14A     -0.815098    15A     -0.797403
      16A     -0.772584    17A     -0.766902    18A     -0.721322
      19A     -0.699688    20A     -0.693978    21A     -0.687255

  @DF-RHF Final Energy:  -311.62421614585179

   => Energetics <=

    Nuclear Repulsion Energy =            166.8910469828582563
    One-Electron Energy =                -754.5782289671320768
    Two-Electron Energy =                 276.0629658384220306
    Total Energy =                       -311.6242161458517899
 Dipole X            :         -6.2175096            5.8964501           -0.3210595
 Dipole Y            :         -8.8437721            8.0566395           -0.7871326
 Dipole Z            :          9.4192794           -9.8140356           -0.3947563
 Magnitude           :                                                    0.9372777
  Basis Set: (AUG-CC-PVTZ AUX)
    Blend: AUG-CC-PVTZ-RI + DEF2-QZVPP-RI
	 Reference Energy          =    -311.6242161458517899 [Eh]
	 Singles Energy            =      -0.0000000000000000 [Eh]
	 Same-Spin Energy          =      -0.2759414288520683 [Eh]
	 Opposite-Spin Energy      =      -0.8793022821663686 [Eh]
	 Correlation Energy        =      -1.1552437110184370 [Eh]
	 Total Energy              =    -312.7794598568702327 [Eh]

	 ================> DF-SCS-MP2 Energies <==================
	-----------------------------------------------------------
	 SCS Same-Spin Scale       =       0.3333333333333333 [-]
	 SCS Opposite-Spin Scale   =       1.2000000000000000 [-]
	 SCS Same-Spin Energy      =      -0.0919804762840228 [Eh]
	 SCS Opposite-Spin Energy  =      -1.0551627385996423 [Eh]
	 SCS Correlation Energy    =      -1.1471432148836651 [Eh]
	 SCS Total Energy          =    -312.7713593607354596 [Eh]
	-----------------------------------------------------------

*** Psi4 exiting successfully. Buy a developer a beer!
