                               Psi4 1.8.2 release

  ==> Input File <==

--------------------------------------------------------------------------
MEMORY 60 GB

molecule dimer {
1 1
Li         0.000000     0.000000     0.000000
Gh(O)     -1.513363     0.722143    -0.727441
Gh(H)     -2.027594     0.178981    -1.343150
Gh(H)     -1.819754     1.661892    -0.823652
Gh(O)     -0.252767    -2.026350    -0.783049
Gh(H)      0.479598    -2.628908    -0.595592
Gh(H)     -1.049144    -2.293358    -0.295986
Gh(O)      0.516511     0.763586     1.671608
Gh(H)      0.437421     1.575636     1.228955
Gh(H)     -0.235072     0.629634     2.234292
Gh(O)      1.457213     0.460443    -1.122910
Gh(H)      1.677956    -0.213540    -1.788812
Gh(H)      2.254305     0.527812    -0.514055

units ang
no_reorient
no_com
symmetry c1
}

set {
basis        aug-cc-pVTZ
scf_type     df
}

energy("mp2")
--------------------------------------------------------------------------

    Molecular point group: c1

    Geometry (in Angstrom), charge = 1, multiplicity = 1:

       Center              X                  Y                   Z               Mass
    ------------   -----------------  -----------------  -----------------  -----------------
         LI           0.000000000000     0.000000000000     0.000000000000     7.016003436600
      Gh(O)          -1.513363000000     0.722143000000    -0.727441000000    15.994914619570
      Gh(H)          -2.027594000000     0.178981000000    -1.343150000000     1.007825032230
      Gh(H)          -1.819754000000     1.661892000000    -0.823652000000     1.007825032230
      Gh(O)          -0.252767000000    -2.026350000000    -0.783049000000    15.994914619570
      Gh(H)           0.479598000000    -2.628908000000    -0.595592000000     1.007825032230
      Gh(H)          -1.049144000000    -2.293358000000    -0.295986000000     1.007825032230
      Gh(O)           0.516511000000     0.763586000000     1.671608000000    15.994914619570
      Gh(H)           0.437421000000     1.575636000000     1.228955000000     1.007825032230
      Gh(H)          -0.235072000000     0.629634000000     2.234292000000     1.007825032230
      Gh(O)           1.457213000000     0.460443000000    -1.122910000000    15.994914619570
      Gh(H)           1.677956000000    -0.213540000000    -1.788812000000     1.007825032230
      Gh(H)           2.254305000000     0.527812000000    -0.514055000000     1.007825032230

  Charge       = 1
  Multiplicity = 1
  Basis Set: AUG-CC-PVTZ
    Blend: AUG-CC-PVTZ
  Basis Set: (AUG-CC-PVTZ AUX)
    Blend: AUG-CC-PVTZ-JKFIT + DEF2-UNIVERSAL-JKFIT

    Orbital Energies [Eh]
    ---------------------

    Doubly Occupied:

       1A     -2.792351

  @DF-RHF Final Energy:    -7.23638492643526

   => Energetics <=

    Nuclear Repulsion Energy =              0.0000000000000000
    One-Electron Energy =                  -8.8880671073492419
    Two-Electron Energy =                   1.6516821809139819
    Total Energy =                         -7.2363849264352602
 Dipole X            :          0.0000017            0.0000000            0.0000017
 Dipole Y            :         -0.0000085            0.0000000           -0.0000085
 Dipole Z            :          0.0000086            0.0000000            0.0000086
 Magnitude           :                                                    0.0000122
  Basis Set: (AUG-CC-PVTZ AUX)
    Blend: AUG-CC-PVTZ-RI + DEF2-QZVPP-RI
	 Reference Energy          =      -7.2363849264352602 [Eh]
	 Singles Energy            =      -0.0000000000000000 [Eh]
	 Same-Spin Energy          =       0.0000000000000000 [Eh]
	 Opposite-Spin Energy      =      -0.0172652771559005 [Eh]
	 Correlation Energy        =      -0.0172652771559005 [Eh]
	 Total Energy              =      -7.2536502035911603 [Eh]

	 ================> DF-SCS-MP2 Energies <==================
	-----------------------------------------------------------
	 SCS Same-Spin Scale       =       0.3333333333333333 [-]
	 SCS Opposite-Spin Scale   =       1.2000000000000000 [-]
	 SCS Same-Spin Energy      =       0.0000000000000000 [Eh]
	 SCS Opposite-Spin Energy  =      -0.0207183325870806 [Eh]
	 SCS Correlation Energy    =      -0.0207183325870806 [Eh]
	 SCS Total Energy          =      -7.2571032590223412 [Eh]
	-----------------------------------------------------------

*** Psi4 exiting successfully. Buy a developer a beer!
