                               Psi4 1.8.2 release

  ==> Input File <==

--------------------------------------------------------------------------
MEMORY 60 GB

molecule dimer {
1 1
Li         0.000000     0.000000     0.000000
Gh(O)      1.299347     0.956897     0.998050
Gh(H)      1.806091     0.778889     1.791766
Gh(H)      1.907700     1.397453     0.354713
Gh(O)      0.788217    -1.762217    -0.333958
Gh(H)      1.729744    -1.520162    -0.415695
Gh(H)      0.651676    -2.440430    -1.018478
Gh(O)     -0.077999     0.850460    -1.769933
Gh(H)     -0.317966     0.168123    -2.426238
Gh(H)      0.304412     1.595957    -2.317515
Gh(O)     -1.921903    -0.461436     0.503499
Gh(H)     -1.892553    -1.068522     1.298601
Gh(H)     -2.648587     0.212851     0.631248

units ang
no_reorient
no_com
symmetry c1
}

set {
basis        aug-cc-pVTZ
scf_type     df
}

energy("mp2")
--------------------------------------------------------------------------

    Molecular point group: c1

    Geometry (in Angstrom), charge = 1, multiplicity = 1:

       Center              X                  Y                   Z               Mass
    ------------   -----------------  -----------------  -----------------  -----------------
         LI           0.000000000000     0.000000000000     0.000000000000     7.016003436600
      Gh(O)           1.299347000000     0.956897000000     0.998050000000    15.994914619570
      Gh(H)           1.806091000000     0.778889000000     1.791766000000     1.007825032230
      Gh(H)           1.907700000000     1.397453000000     0.354713000000     1.007825032230
      Gh(O)           0.788217000000    -1.762217000000    -0.333958000000    15.994914619570
      Gh(H)           1.729744000000    -1.520162000000    -0.415695000000     1.007825032230
      Gh(H)           0.651676000000    -2.440430000000    -1.018478000000     1.007825032230
      Gh(O)          -0.077999000000     0.850460000000    -1.769933000000    15.994914619570
      Gh(H)          -0.317966000000     0.168123000000    -2.426238000000     1.007825032230
      Gh(H)           0.304412000000     1.595957000000    -2.317515000000     1.007825032230
      Gh(O)          -1.921903000000    -0.461436000000     0.503499000000    15.994914619570
      Gh(H)          -1.892553000000    -1.068522000000     1.298601000000     1.007825032230
      Gh(H)          -2.648587000000     0.212851000000     0.631248000000     1.007825032230

  Charge       = 1
  Multiplicity = 1
  Basis Set: AUG-CC-PVTZ
    Blend: AUG-CC-PVTZ
  Basis Set: (AUG-CC-PVTZ AUX)
    Blend: AUG-CC-PVTZ-JKFIT + DEF2-UNIVERSAL-JKFIT

    Orbital Energies [Eh]
    ---------------------

    Doubly Occupied:

       1A     -2.792353

  @DF-RHF Final Energy:    -7.23638490460697

   => Energetics <=

    Nuclear Repulsion Energy =              0.0000000000000000
    One-Electron Energy =                  -8.8880637994228309
    Two-Electron Energy =                   1.6516788948158578
    Total Energy =                         -7.2363849046069735
 Dipole X            :         -0.0000025            0.0000000           -0.0000025
 Dipole Y            :          0.0000013            0.0000000            0.0000013
 Dipole Z            :          0.0000037            0.0000000            0.0000037
 Magnitude           :                                                    0.0000047
  Basis Set: (AUG-CC-PVTZ AUX)
    Blend: AUG-CC-PVTZ-RI + DEF2-QZVPP-RI
	 Reference Energy          =      -7.2363849046069735 [Eh]
	 Singles Energy            =      -0.0000000000000000 [Eh]
	 Same-Spin Energy          =       0.0000000000000000 [Eh]
	 Opposite-Spin Energy      =      -0.0169682508942614 [Eh]
	 Correlation Energy        =      -0.0169682508942614 [Eh]
	 Total Energy              =      -7.2533531555012347 [Eh]

	 ================> DF-SCS-MP2 Energies <==================
	-----------------------------------------------------------
	 SCS Same-Spin Scale       =       0.3333333333333333 [-]
	 SCS Opposite-Spin Scale   =       1.2000000000000000 [-]
	 SCS Same-Spin Energy      =       0.0000000000000000 [Eh]
	 SCS Opposite-Spin Energy  =      -0.0203619010731137 [Eh]
	 SCS Correlation Energy    =      -0.0203619010731137 [Eh]
	 SCS Total Energy          =      -7.2567468056800868 [Eh]
	-----------------------------------------------------------

*** Psi4 exiting successfully. Buy a developer a beer!
