                               Psi4 1.8.2 release

  ==> Input File <==

--------------------------------------------------------------------------
MEMORY 60 GB

molecule dimer {
0 1
Gh(Li)     0.000000     0.000000     0.000000
O          1.401258    -0.552767    -1.148847
H          2.222717    -0.099344    -1.190559
H          1.562451    -1.490832    -1.304563
Gh(O)     -0.330704     1.780111     0.510752
Gh(H)     -0.929458     1.795993     1.257868
Gh(H)     -0.397182     2.647959     0.120718
Gh(O)      0.494746    -0.773349     1.790483
Gh(H)      1.287530    -0.312464     2.047423
Gh(H)     -0.132202    -0.417194     2.419929
Gh(O)     -1.664275    -0.879300    -0.710838
Gh(H)     -2.365985    -1.429029    -0.223341
Gh(H)     -2.197362    -0.354210    -1.323729

units ang
no_reorient
no_com
symmetry c1
}

set {
basis        aug-cc-pVTZ
scf_type     df
}

energy("mp2")
--------------------------------------------------------------------------

    Molecular point group: c1

    Geometry (in Angstrom), charge = 0, multiplicity = 1:

       Center              X                  Y                   Z               Mass
    ------------   -----------------  -----------------  -----------------  -----------------
      Gh(LI)          0.000000000000     0.000000000000     0.000000000000     7.016003436600
         O            1.401258000000    -0.552767000000    -1.148847000000    15.994914619570
         H            2.222717000000    -0.099344000000    -1.190559000000     1.007825032230
         H            1.562451000000    -1.490832000000    -1.304563000000     1.007825032230
      Gh(O)          -0.330704000000     1.780111000000     0.510752000000    15.994914619570
      Gh(H)          -0.929458000000     1.795993000000     1.257868000000     1.007825032230
      Gh(H)          -0.397182000000     2.647959000000     0.120718000000     1.007825032230
      Gh(O)           0.494746000000    -0.773349000000     1.790483000000    15.994914619570
      Gh(H)           1.287530000000    -0.312464000000     2.047423000000     1.007825032230
      Gh(H)          -0.132202000000    -0.417194000000     2.419929000000     1.007825032230
      Gh(O)          -1.664275000000    -0.879300000000    -0.710838000000    15.994914619570
      Gh(H)          -2.365985000000    -1.429029000000    -0.223341000000     1.007825032230
      Gh(H)          -2.197362000000    -0.354210000000    -1.323729000000     1.007825032230

  Charge       = 0
  Multiplicity = 1
  Basis Set: AUG-CC-PVTZ
    Blend: AUG-CC-PVTZ
  Basis Set: (AUG-CC-PVTZ AUX)
    Blend: AUG-CC-PVTZ-JKFIT + DEF2-UNIVERSAL-JKFIT

    Orbital Energies [Eh]
    ---------------------

    Doubly Occupied:

       1A    -20.564218     2A     -1.353632     3A     -0.728240
       4A     -0.578172     5A     -0.509625

  @DF-RHF Final Energy:   -76.06059400530279

   => Energetics <=

    Nuclear Repulsion Energy =              9.2394210930772953
    One-Electron Energy =                -123.1322535617549221
    Two-Electron Energy =                  37.8322384633748214
    Total Energy =                        -76.0605940053028036
 Dipole X            :        -27.6715749           28.3368817            0.6653068
 Dipole Y            :         11.0378366          -11.3616231           -0.3237865
 Dipole Z            :         21.9499544          -22.0831468           -0.1331924
 Magnitude           :                                                    0.7518052
  Basis Set: (AUG-CC-PVTZ AUX)
    Blend: AUG-CC-PVTZ-RI + DEF2-QZVPP-RI
	 Reference Energy          =     -76.0605940053027894 [Eh]
	 Singles Energy            =      -0.0000000000000000 [Eh]
	 Same-Spin Energy          =      -0.0682749475337705 [Eh]
	 Opposite-Spin Energy      =      -0.2154827300248474 [Eh]
	 Correlation Energy        =      -0.2837576775586179 [Eh]
	 Total Energy              =     -76.3443516828614008 [Eh]

	 ================> DF-SCS-MP2 Energies <==================
	-----------------------------------------------------------
	 SCS Same-Spin Scale       =       0.3333333333333333 [-]
	 SCS Opposite-Spin Scale   =       1.2000000000000000 [-]
	 SCS Same-Spin Energy      =      -0.0227583158445902 [Eh]
	 SCS Opposite-Spin Energy  =      -0.2585792760298168 [Eh]
	 SCS Correlation Energy    =      -0.2813375918744070 [Eh]
	 SCS Total Energy          =     -76.3419315971771937 [Eh]
	-----------------------------------------------------------

*** Psi4 exiting successfully. Buy a developer a beer!
