                               Psi4 1.9 release

  ==> Input File <==

--------------------------------------------------------------------------
MEMORY 60 GB

molecule dimer {
1 1
Li     0.000000     0.000000     0.000000
--
0 1
O      0.814019    -1.627178    -0.750547
H      0.515286    -1.888018    -1.619965
H      1.776685    -1.477163    -0.804751
O     -1.975126    -0.101471     0.138953
H     -2.662290     0.539971     0.324561
H     -2.473143    -0.849112    -0.390923
O      0.507752     1.359512    -1.147321
H      1.373943     1.714330    -1.381481
H      0.123691     1.025614    -1.939705
O      0.223291    -0.134039     1.993173
H      1.169830    -0.151311     2.130046
H      0.009339     0.679243     2.474654

units ang
no_reorient
no_com
symmetry c1
}

set {
basis        aug-cc-pVTZ
scf_type     df
}

energy("mp2", bsse_type="cp")
--------------------------------------------------------------------------

                               Psi4 1.9 release
    Molecular point group: c1
  Charge       = 0
  Multiplicity = 1
  Basis Set: AUG-CC-PVTZ
    Blend: AUG-CC-PVTZ
  Basis Set: (AUG-CC-PVTZ AUX)
    Blend: AUG-CC-PVTZ-JKFIT + DEF2-UNIVERSAL-JKFIT
  @DF-RHF Final Energy:  -304.20771759270934
    Total Energy =                       -304.2077175927093435
 Dipole X            :          7.2470439           -6.8165653            0.4304786
 Dipole Y            :          8.7513830           -8.3749903            0.3763927
 Dipole Z            :         -2.3111892            1.2595025           -1.0516867
 Magnitude           :                                                    1.1970916
  Basis Set: (AUG-CC-PVTZ AUX)
    Blend: AUG-CC-PVTZ-RI + DEF2-QZVPP-RI
	 Reference Energy          =    -304.2077175927093435 [Eh]
	 Singles Energy            =      -0.0000000000000000 [Eh]
	 Same-Spin Energy          =      -0.2778420207209072 [Eh]
	 Opposite-Spin Energy      =      -0.8713387622578781 [Eh]
	 Correlation Energy        =      -1.1491807829787852 [Eh]
	 Total Energy              =    -305.3568983756881039 [Eh]
	 SCS Total Energy          =    -305.3459381143257474 [Eh]
                               Psi4 1.9 release
    Molecular point group: c1
  Multiplicity = 1
  Basis Set: AUG-CC-PVTZ
    Blend: AUG-CC-PVTZ
  Basis Set: (AUG-CC-PVTZ AUX)
    Blend: AUG-CC-PVTZ-JKFIT + DEF2-UNIVERSAL-JKFIT
  @DF-RHF Final Energy:    -7.23638492000111
    Total Energy =                         -7.2363849200011057
  Basis Set: (AUG-CC-PVTZ AUX)
	 Singles Energy            =      -0.0000000000000000 [Eh]
	 Same-Spin Energy          =      -0.0000000000000000 [Eh]
	 Opposite-Spin Energy      =      -0.0170822342948585 [Eh]
	 Correlation Energy        =      -0.0170822342948585 [Eh]
	 Total Energy              =      -7.2534671542959641 [Eh]
	 SCS Total Energy          =      -7.2568836011549358 [Eh]
                               Psi4 1.9 release
    Molecular point group: c1

    Geometry (in Bohr), charge = 1, multiplicity = 1:

       Center              X                  Y                   Z               Mass
    ------------   -----------------  -----------------  -----------------  -----------------
         LI           0.000000000000     0.000000000000     0.000000000000     7.016003436600
         O            1.538272970919    -3.074920777370    -1.418328274284    15.994914619570
         H            0.973749416283    -3.567836939935    -3.061290182827     1.007825032230
         H            3.357448061209    -2.791433512660    -1.520758989188     1.007825032230
         O           -3.732447203271    -0.191752399676     0.262583114311    15.994914619570
         H           -5.030998966545     1.020397305690     0.613331401005     1.007825032230
         H           -4.673562939093    -1.604589129840    -0.738737406142     1.007825032230
         O            0.959512219653     2.569105344273    -2.168122467986    15.994914619570
         H            2.596375981990     3.239614188656    -2.610620737524     1.007825032230
         H            0.233742114184     1.938129570435    -3.665511214181     1.007825032230
         O            0.421958836280    -0.253297000130     3.766551090657    15.994914619570
         H            2.210658313344    -0.285936349769     4.025203574627     1.007825032230
         H            0.017648152286     1.283583242634     4.676418315269     1.007825032230

  Charge       = 1
  Multiplicity = 1
  Basis Set: AUG-CC-PVTZ
    Blend: AUG-CC-PVTZ
  Basis Set: (AUG-CC-PVTZ AUX)
    Blend: AUG-CC-PVTZ-JKFIT + DEF2-UNIVERSAL-JKFIT

    Orbital Energies [Eh]
    ---------------------

    Doubly Occupied:

       1A    -20.760654     2A    -20.755939     3A    -20.746128
       4A    -20.738772     5A     -2.534855     6A     -1.557745
       7A     -1.541929     8A     -1.528091     9A     -1.512060
      10A     -0.925662    11A     -0.910558    12A     -0.875492
      13A     -0.869839    14A     -0.800273    15A     -0.791503
      16A     -0.777511    17A     -0.759480    18A     -0.730010
      19A     -0.697453    20A     -0.690857    21A     -0.685237

  @DF-RHF Final Energy:  -311.61236845935446

   => Energetics <=

    Nuclear Repulsion Energy =            163.2391616642175620
    One-Electron Energy =                -747.3229657008030244
    Two-Electron Energy =                 272.4714355772309773
    Total Energy =                       -311.6123684593544567
 Dipole X            :          7.2140407           -6.8165653            0.3974754
 Dipole Y            :          8.7135507           -8.3749903            0.3385604
 Dipole Z            :         -2.3863845            1.2595025           -1.1268820
 Magnitude           :                                                    1.2419634
  Basis Set: (AUG-CC-PVTZ AUX)
    Blend: AUG-CC-PVTZ-RI + DEF2-QZVPP-RI
	 Reference Energy          =    -311.6123684593544567 [Eh]
	 Singles Energy            =      -0.0000000000000000 [Eh]
	 Same-Spin Energy          =      -0.2763282533182873 [Eh]
	 Opposite-Spin Energy      =      -0.8809693978107273 [Eh]
	 Correlation Energy        =      -1.1572976511290145 [Eh]
	 Total Energy              =    -312.7696661104834561 [Eh]

	 ================> DF-SCS-MP2 Energies <==================
	-----------------------------------------------------------
	 SCS Same-Spin Scale       =       0.3333333333333333 [-]
	 SCS Opposite-Spin Scale   =       1.2000000000000000 [-]
	 SCS Same-Spin Energy      =      -0.0921094177727624 [Eh]
	 SCS Opposite-Spin Energy  =      -1.0571632773728727 [Eh]
	 SCS Correlation Energy    =      -1.1492726951456351 [Eh]
	 SCS Total Energy          =    -312.7616411545000688 [Eh]
	-----------------------------------------------------------

*** Psi4 exiting successfully. Buy a developer a beer!
