                               Psi4 1.8.2 release

  ==> Input File <==

--------------------------------------------------------------------------
MEMORY 60 GB

molecule dimer {
0 1
Gh(Li)     0.000000     0.000000     0.000000
Gh(O)     -1.794227     0.878304     0.383152
Gh(H)     -2.284044     0.065626     0.360832
Gh(H)     -2.211283     1.348316    -0.381184
Gh(O)      0.587966    -1.606327     0.751206
Gh(H)      0.384051    -2.413930     0.275990
Gh(H)      1.532090    -1.679654     1.064559
Gh(O)      1.426308     1.329057     0.381484
Gh(H)      1.492507     1.221218     1.387216
Gh(H)      2.369890     1.360172     0.089581
O         -0.005725    -0.582202    -1.970709
H         -0.732065    -0.750880    -2.621085
H          0.674197    -1.253645    -2.250473

units ang
no_reorient
no_com
symmetry c1
}

set {
basis        aug-cc-pVTZ
scf_type     df
}

energy("mp2")
--------------------------------------------------------------------------

    Molecular point group: c1

    Geometry (in Angstrom), charge = 0, multiplicity = 1:

       Center              X                  Y                   Z               Mass
    ------------   -----------------  -----------------  -----------------  -----------------
      Gh(LI)          0.000000000000     0.000000000000     0.000000000000     7.016003436600
      Gh(O)          -1.794227000000     0.878304000000     0.383152000000    15.994914619570
      Gh(H)          -2.284044000000     0.065626000000     0.360832000000     1.007825032230
      Gh(H)          -2.211283000000     1.348316000000    -0.381184000000     1.007825032230
      Gh(O)           0.587966000000    -1.606327000000     0.751206000000    15.994914619570
      Gh(H)           0.384051000000    -2.413930000000     0.275990000000     1.007825032230
      Gh(H)           1.532090000000    -1.679654000000     1.064559000000     1.007825032230
      Gh(O)           1.426308000000     1.329057000000     0.381484000000    15.994914619570
      Gh(H)           1.492507000000     1.221218000000     1.387216000000     1.007825032230
      Gh(H)           2.369890000000     1.360172000000     0.089581000000     1.007825032230
         O           -0.005725000000    -0.582202000000    -1.970709000000    15.994914619570
         H           -0.732065000000    -0.750880000000    -2.621085000000     1.007825032230
         H            0.674197000000    -1.253645000000    -2.250473000000     1.007825032230

  Charge       = 0
  Multiplicity = 1
  Basis Set: AUG-CC-PVTZ
    Blend: AUG-CC-PVTZ
  Basis Set: (AUG-CC-PVTZ AUX)
    Blend: AUG-CC-PVTZ-JKFIT + DEF2-UNIVERSAL-JKFIT

    Orbital Energies [Eh]
    ---------------------

    Doubly Occupied:

       1A    -20.574364     2A     -1.337922     3A     -0.693466
       4A     -0.583599     5A     -0.508411

  @DF-RHF Final Energy:   -76.05592742445232

   => Energetics <=

    Nuclear Repulsion Energy =              8.8742066028338424
    One-Electron Energy =                -122.4647405643514020
    Two-Electron Energy =                  37.5346065370652440
    Total Energy =                        -76.0559274244523209
 Dipole X            :          0.1649451           -0.1959041           -0.0309590
 Dipole Y            :         12.0479991          -12.5896219           -0.5416228
 Dipole Z            :         38.3981666          -38.9987127           -0.6005461
 Magnitude           :                                                    0.8093018
  Basis Set: (AUG-CC-PVTZ AUX)
    Blend: AUG-CC-PVTZ-RI + DEF2-QZVPP-RI
	 Reference Energy          =     -76.0559274244523209 [Eh]
	 Singles Energy            =      -0.0000000000000000 [Eh]
	 Same-Spin Energy          =      -0.0691074563734356 [Eh]
	 Opposite-Spin Energy      =      -0.2180134821846842 [Eh]
	 Correlation Energy        =      -0.2871209385581198 [Eh]
	 Total Energy              =     -76.3430483630104391 [Eh]

	 ================> DF-SCS-MP2 Energies <==================
	-----------------------------------------------------------
	 SCS Same-Spin Scale       =       0.3333333333333333 [-]
	 SCS Opposite-Spin Scale   =       1.2000000000000000 [-]
	 SCS Same-Spin Energy      =      -0.0230358187911452 [Eh]
	 SCS Opposite-Spin Energy  =      -0.2616161786216211 [Eh]
	 SCS Correlation Energy    =      -0.2846519974127663 [Eh]
	 SCS Total Energy          =     -76.3405794218650868 [Eh]
	-----------------------------------------------------------

*** Psi4 exiting successfully. Buy a developer a beer!
