                               Psi4 1.8.2 release

  ==> Input File <==

--------------------------------------------------------------------------
MEMORY 60 GB

molecule dimer {
0 1
Gh(Li)     0.000000     0.000000     0.000000
Gh(O)      1.014907    -1.846591     0.065476
Gh(H)      0.268180    -2.329649    -0.359526
Gh(H)      1.399774    -2.433915     0.796256
Gh(O)      1.462449     1.073689     0.580959
Gh(H)      1.086336     1.782468     1.119353
Gh(H)      2.002930     0.547479     1.110363
Gh(O)     -0.252680     0.490401    -1.807295
Gh(H)      0.113651     0.060304    -2.550227
Gh(H)     -1.152599     0.460089    -2.081251
O         -1.692409     0.463443     0.935552
H         -2.421769     0.480840     0.338377
H         -1.923923    -0.014474     1.749577

units ang
no_reorient
no_com
symmetry c1
}

set {
basis        aug-cc-pVTZ
scf_type     df
}

energy("mp2")
--------------------------------------------------------------------------

    Molecular point group: c1

    Geometry (in Angstrom), charge = 0, multiplicity = 1:

       Center              X                  Y                   Z               Mass
    ------------   -----------------  -----------------  -----------------  -----------------
      Gh(LI)          0.000000000000     0.000000000000     0.000000000000     7.016003436600
      Gh(O)           1.014907000000    -1.846591000000     0.065476000000    15.994914619570
      Gh(H)           0.268180000000    -2.329649000000    -0.359526000000     1.007825032230
      Gh(H)           1.399774000000    -2.433915000000     0.796256000000     1.007825032230
      Gh(O)           1.462449000000     1.073689000000     0.580959000000    15.994914619570
      Gh(H)           1.086336000000     1.782468000000     1.119353000000     1.007825032230
      Gh(H)           2.002930000000     0.547479000000     1.110363000000     1.007825032230
      Gh(O)          -0.252680000000     0.490401000000    -1.807295000000    15.994914619570
      Gh(H)           0.113651000000     0.060304000000    -2.550227000000     1.007825032230
      Gh(H)          -1.152599000000     0.460089000000    -2.081251000000     1.007825032230
         O           -1.692409000000     0.463443000000     0.935552000000    15.994914619570
         H           -2.421769000000     0.480840000000     0.338377000000     1.007825032230
         H           -1.923923000000    -0.014474000000     1.749577000000     1.007825032230

  Charge       = 0
  Multiplicity = 1
  Basis Set: AUG-CC-PVTZ
    Blend: AUG-CC-PVTZ
  Basis Set: (AUG-CC-PVTZ AUX)
    Blend: AUG-CC-PVTZ-JKFIT + DEF2-UNIVERSAL-JKFIT

    Orbital Energies [Eh]
    ---------------------

    Doubly Occupied:

       1A    -20.564066     2A     -1.349202     3A     -0.729414
       4A     -0.572538     5A     -0.508432

  @DF-RHF Final Energy:   -76.05968495259064

   => Energetics <=

    Nuclear Repulsion Energy =              9.1816347159138196
    One-Electron Energy =                -123.0353304901360332
    Two-Electron Energy =                  37.7940108216315807
    Total Energy =                        -76.0596849525906293
 Dipole X            :         33.1446745          -33.7976837           -0.6530092
 Dipole Y            :         -8.1984065            7.8875468           -0.3108597
 Dipole Z            :        -17.9456438           18.0891577            0.1435139
 Magnitude           :                                                    0.7373269
  Basis Set: (AUG-CC-PVTZ AUX)
    Blend: AUG-CC-PVTZ-RI + DEF2-QZVPP-RI
	 Reference Energy          =     -76.0596849525906435 [Eh]
	 Singles Energy            =      -0.0000000000000000 [Eh]
	 Same-Spin Energy          =      -0.0683528716201150 [Eh]
	 Opposite-Spin Energy      =      -0.2156921773319777 [Eh]
	 Correlation Energy        =      -0.2840450489520927 [Eh]
	 Total Energy              =     -76.3437300015427383 [Eh]

	 ================> DF-SCS-MP2 Energies <==================
	-----------------------------------------------------------
	 SCS Same-Spin Scale       =       0.3333333333333333 [-]
	 SCS Opposite-Spin Scale   =       1.2000000000000000 [-]
	 SCS Same-Spin Energy      =      -0.0227842905400383 [Eh]
	 SCS Opposite-Spin Energy  =      -0.2588306127983732 [Eh]
	 SCS Correlation Energy    =      -0.2816149033384115 [Eh]
	 SCS Total Energy          =     -76.3412998559290514 [Eh]
	-----------------------------------------------------------

*** Psi4 exiting successfully. Buy a developer a beer!
