                               Psi4 1.8.2 release

  ==> Input File <==

--------------------------------------------------------------------------
MEMORY 60 GB

molecule dimer {
0 1
Gh(Li)     0.000000     0.000000     0.000000
Gh(O)      1.023000     0.620441     1.583861
Gh(H)      1.455219     0.253028     2.357655
Gh(H)      1.073738     1.617144     1.656624
Gh(O)      0.990010    -1.210458    -1.226372
Gh(H)      0.996585    -0.767777    -2.058657
Gh(H)      0.892016    -2.180068    -1.332978
O         -0.199397     1.811129    -0.706428
H         -0.471302     2.120332    -1.569275
H         -0.590440     2.361535    -0.067867

units ang
no_reorient
no_com
symmetry c1
}

set {
basis        aug-cc-pVTZ
scf_type     df
}

energy("mp2")
--------------------------------------------------------------------------

    Molecular point group: c1

    Geometry (in Angstrom), charge = 0, multiplicity = 1:

       Center              X                  Y                   Z               Mass
    ------------   -----------------  -----------------  -----------------  -----------------
      Gh(LI)          0.000000000000     0.000000000000     0.000000000000     7.016003436600
      Gh(O)           1.023000000000     0.620441000000     1.583861000000    15.994914619570
      Gh(H)           1.455219000000     0.253028000000     2.357655000000     1.007825032230
      Gh(H)           1.073738000000     1.617144000000     1.656624000000     1.007825032230
      Gh(O)           0.990010000000    -1.210458000000    -1.226372000000    15.994914619570
      Gh(H)           0.996585000000    -0.767777000000    -2.058657000000     1.007825032230
      Gh(H)           0.892016000000    -2.180068000000    -1.332978000000     1.007825032230
         O           -0.199397000000     1.811129000000    -0.706428000000    15.994914619570
         H           -0.471302000000     2.120332000000    -1.569275000000     1.007825032230
         H           -0.590440000000     2.361535000000    -0.067867000000     1.007825032230

  Charge       = 0
  Multiplicity = 1
  Basis Set: AUG-CC-PVTZ
    Blend: AUG-CC-PVTZ
  Basis Set: (AUG-CC-PVTZ AUX)
    Blend: AUG-CC-PVTZ-JKFIT + DEF2-UNIVERSAL-JKFIT

    Orbital Energies [Eh]
    ---------------------

    Doubly Occupied:

       1A    -20.562835     2A     -1.358802     3A     -0.732680
       4A     -0.580761     5A     -0.510565

  @DF-RHF Final Energy:   -76.06083432585265

   => Energetics <=

    Nuclear Repulsion Energy =              9.3303590313324936
    One-Electron Energy =                -123.2910971060770748
    Two-Electron Energy =                  37.8999037488919299
    Total Energy =                        -76.0608343258526531
 Dipole X            :          4.5708445           -5.0208474           -0.4500029
 Dipole Y            :        -35.2658258           35.8498035            0.5839777
 Dipole Z            :         13.6253625          -13.7733936           -0.1480310
 Magnitude           :                                                    0.7519613
  Basis Set: (AUG-CC-PVTZ AUX)
    Blend: AUG-CC-PVTZ-RI + DEF2-QZVPP-RI
	 Reference Energy          =     -76.0608343258526531 [Eh]
	 Singles Energy            =      -0.0000000000000000 [Eh]
	 Same-Spin Energy          =      -0.0681032872531944 [Eh]
	 Opposite-Spin Energy      =      -0.2148461703727739 [Eh]
	 Correlation Energy        =      -0.2829494576259682 [Eh]
	 Total Energy              =     -76.3437837834786279 [Eh]

	 ================> DF-SCS-MP2 Energies <==================
	-----------------------------------------------------------
	 SCS Same-Spin Scale       =       0.3333333333333333 [-]
	 SCS Opposite-Spin Scale   =       1.2000000000000000 [-]
	 SCS Same-Spin Energy      =      -0.0227010957510648 [Eh]
	 SCS Opposite-Spin Energy  =      -0.2578154044473286 [Eh]
	 SCS Correlation Energy    =      -0.2805165001983934 [Eh]
	 SCS Total Energy          =     -76.3413508260510412 [Eh]
	-----------------------------------------------------------

*** Psi4 exiting successfully. Buy a developer a beer!
