                               Psi4 1.8.2 release

  ==> Input File <==

--------------------------------------------------------------------------
MEMORY 60 GB

molecule dimer {
0 1
Gh(Li)     0.000000     0.000000     0.000000
O          0.552963    -1.749645     0.131307
H          1.284114    -2.048599    -0.399136
H          0.552090    -2.127656     1.036364
Gh(O)      1.541907     1.226823    -0.519578
Gh(H)      1.551480     2.047459     0.018367
Gh(H)      1.441348     1.555636    -1.465228
Gh(O)     -0.063798     0.553262     1.985834
Gh(H)      0.380477     1.157738     2.576072
Gh(H)     -0.932985     0.385820     2.447181
Gh(O)     -1.255138     0.486686    -1.137426
Gh(H)     -1.106484     0.045005    -1.941916
Gh(H)     -1.576557     1.362913    -1.297025

units ang
no_reorient
no_com
symmetry c1
}

set {
basis        aug-cc-pVTZ
scf_type     df
}

energy("mp2")
--------------------------------------------------------------------------

    Molecular point group: c1

    Geometry (in Angstrom), charge = 0, multiplicity = 1:

       Center              X                  Y                   Z               Mass
    ------------   -----------------  -----------------  -----------------  -----------------
      Gh(LI)          0.000000000000     0.000000000000     0.000000000000     7.016003436600
         O            0.552963000000    -1.749645000000     0.131307000000    15.994914619570
         H            1.284114000000    -2.048599000000    -0.399136000000     1.007825032230
         H            0.552090000000    -2.127656000000     1.036364000000     1.007825032230
      Gh(O)           1.541907000000     1.226823000000    -0.519578000000    15.994914619570
      Gh(H)           1.551480000000     2.047459000000     0.018367000000     1.007825032230
      Gh(H)           1.441348000000     1.555636000000    -1.465228000000     1.007825032230
      Gh(O)          -0.063798000000     0.553262000000     1.985834000000    15.994914619570
      Gh(H)           0.380477000000     1.157738000000     2.576072000000     1.007825032230
      Gh(H)          -0.932985000000     0.385820000000     2.447181000000     1.007825032230
      Gh(O)          -1.255138000000     0.486686000000    -1.137426000000    15.994914619570
      Gh(H)          -1.106484000000     0.045005000000    -1.941916000000     1.007825032230
      Gh(H)          -1.576557000000     1.362913000000    -1.297025000000     1.007825032230

  Charge       = 0
  Multiplicity = 1
  Basis Set: AUG-CC-PVTZ
    Blend: AUG-CC-PVTZ
  Basis Set: (AUG-CC-PVTZ AUX)
    Blend: AUG-CC-PVTZ-JKFIT + DEF2-UNIVERSAL-JKFIT

    Orbital Energies [Eh]
    ---------------------

    Doubly Occupied:

       1A    -20.564364     2A     -1.343185     3A     -0.728473
       4A     -0.566367     5A     -0.506901

  @DF-RHF Final Energy:   -76.05810971060183

   => Energetics <=

    Nuclear Repulsion Energy =              9.0934504741740891
    One-Electron Energy =                -122.8845388340707956
    Two-Electron Energy =                  37.7329786492948784
    Total Energy =                        -76.0581097106018262
 Dipole X            :        -11.3314616           11.8295117            0.4980501
 Dipole Y            :         33.8826055          -34.3427771           -0.4601716
 Dipole Z            :         -2.9379129            3.1892605            0.2513477
 Magnitude           :                                                    0.7231787
  Basis Set: (AUG-CC-PVTZ AUX)
    Blend: AUG-CC-PVTZ-RI + DEF2-QZVPP-RI
	 Reference Energy          =     -76.0581097106018262 [Eh]
	 Singles Energy            =      -0.0000000000000000 [Eh]
	 Same-Spin Energy          =      -0.0685099648955106 [Eh]
	 Opposite-Spin Energy      =      -0.2161670529659410 [Eh]
	 Correlation Energy        =      -0.2846770178614517 [Eh]
	 Total Energy              =     -76.3427867284632811 [Eh]

	 ================> DF-SCS-MP2 Energies <==================
	-----------------------------------------------------------
	 SCS Same-Spin Scale       =       0.3333333333333333 [-]
	 SCS Opposite-Spin Scale   =       1.2000000000000000 [-]
	 SCS Same-Spin Energy      =      -0.0228366549651702 [Eh]
	 SCS Opposite-Spin Energy  =      -0.2594004635591292 [Eh]
	 SCS Correlation Energy    =      -0.2822371185242994 [Eh]
	 SCS Total Energy          =     -76.3403468291261191 [Eh]
	-----------------------------------------------------------

*** Psi4 exiting successfully. Buy a developer a beer!
