                               Psi4 1.9 release

  ==> Input File <==

--------------------------------------------------------------------------
MEMORY 60 GB

molecule dimer {
1 1
Li     0.000000     0.000000     0.000000
--
0 1
O     -0.428160     1.212107    -1.751504
H      0.387713     1.643643    -1.963741
H     -1.121361     1.575916    -2.325391
O      1.781596    -0.020473     0.442877
H      2.189669     0.324703     1.208714
H      2.203752    -0.870775     0.253747
O     -1.533512     0.539063     0.971746
H     -2.298372     0.645210     0.470736
H     -1.196049     1.459017     1.138273
O     -1.049215    -1.406233    -0.742604
H     -1.939552    -1.034779    -0.873238
H     -1.113130    -2.374025    -0.865088

units ang
no_reorient
no_com
symmetry c1
}

set {
basis        aug-cc-pVTZ
scf_type     df
}

energy("mp2", bsse_type="cp")
--------------------------------------------------------------------------

                               Psi4 1.9 release
    Molecular point group: c1
  Charge       = 0
  Multiplicity = 1
  Basis Set: AUG-CC-PVTZ
    Blend: AUG-CC-PVTZ
  Basis Set: (AUG-CC-PVTZ AUX)
    Blend: AUG-CC-PVTZ-JKFIT + DEF2-UNIVERSAL-JKFIT
  @DF-RHF Final Energy:  -304.21073589412185
    Total Energy =                       -304.2107358941218536
 Dipole X            :         23.9127783          -24.0404495           -0.1276711
 Dipole Y            :         -7.0469655            7.4920498            0.4450842
 Dipole Z            :         21.4065333          -21.9054558           -0.4989225
 Magnitude           :                                                    0.6806787
  Basis Set: (AUG-CC-PVTZ AUX)
    Blend: AUG-CC-PVTZ-RI + DEF2-QZVPP-RI
	 Reference Energy          =    -304.2107358941218536 [Eh]
	 Singles Energy            =      -0.0000000000000000 [Eh]
	 Same-Spin Energy          =      -0.2775200532056910 [Eh]
	 Opposite-Spin Energy      =      -0.8690680901133965 [Eh]
	 Correlation Energy        =      -1.1465881433190874 [Eh]
	 Total Energy              =    -305.3573240374409465 [Eh]
	 SCS Total Energy          =    -305.3461242866598013 [Eh]
                               Psi4 1.9 release
    Molecular point group: c1
  Multiplicity = 1
  Basis Set: AUG-CC-PVTZ
    Blend: AUG-CC-PVTZ
  Basis Set: (AUG-CC-PVTZ AUX)
    Blend: AUG-CC-PVTZ-JKFIT + DEF2-UNIVERSAL-JKFIT
  @DF-RHF Final Energy:    -7.23638493102156
    Total Energy =                         -7.2363849310215578
  Basis Set: (AUG-CC-PVTZ AUX)
	 Singles Energy            =      -0.0000000000000000 [Eh]
	 Same-Spin Energy          =       0.0000000000000000 [Eh]
	 Opposite-Spin Energy      =      -0.0172764710082069 [Eh]
	 Correlation Energy        =      -0.0172764710082069 [Eh]
	 Total Energy              =      -7.2536614020297652 [Eh]
	 SCS Total Energy          =      -7.2571166962314066 [Eh]
                               Psi4 1.9 release
    Molecular point group: c1

    Geometry (in Bohr), charge = 1, multiplicity = 1:

       Center              X                  Y                   Z               Mass
    ------------   -----------------  -----------------  -----------------  -----------------
         LI           0.000000000000     0.000000000000     0.000000000000     7.016003436600
         O           -0.809105137876     2.290550264750    -3.309862867644    15.994914619570
         H            0.732671385280     3.106035118026    -3.710932671333     1.007825032230
         H           -2.119065177770     2.978049636727    -4.394352124605     1.007825032230
         O            3.366728506211    -0.038688362966     0.836916237264    15.994914619570
         H            4.137874715405     0.613599742115     2.284138424007     1.007825032230
         H            4.164487728430    -1.645526266896     0.479512335157     1.007825032230
         O           -2.897917690103     1.018681434368     1.836333803509    15.994914619570
         H           -4.343293614421     1.219270193407     0.889562117394     1.007825032230
         H           -2.260205042628     2.757142542387     2.151024226003     1.007825032230
         O           -1.982728996722    -2.657395238581    -1.403318179669    15.994914619570
         H           -3.665222086084    -1.955448910375    -1.650180662343     1.007825032230
         H           -2.103510842031    -4.486257064990    -1.634779394420     1.007825032230

  Charge       = 1
  Multiplicity = 1
  Basis Set: AUG-CC-PVTZ
    Blend: AUG-CC-PVTZ
  Basis Set: (AUG-CC-PVTZ AUX)
    Blend: AUG-CC-PVTZ-JKFIT + DEF2-UNIVERSAL-JKFIT

    Orbital Energies [Eh]
    ---------------------

    Doubly Occupied:

       1A    -20.761345     2A    -20.748489     3A    -20.740596
       4A    -20.737045     5A     -2.538438     6A     -1.558728
       7A     -1.547424     8A     -1.526302     9A     -1.520733
      10A     -0.926743    11A     -0.916250    12A     -0.898714
      13A     -0.888139    14A     -0.806434    15A     -0.789468
      16A     -0.779502    17A     -0.757861    18A     -0.717793
      19A     -0.712899    20A     -0.685024    21A     -0.678562

  @DF-RHF Final Energy:  -311.61108013247400

   => Energetics <=

    Nuclear Repulsion Energy =            166.3554608118615761
    One-Electron Energy =                -753.4601010975084137
    Two-Electron Energy =                 275.4935601531728366
    Total Energy =                       -311.6110801324740009
 Dipole X            :         23.7010248          -24.0404495           -0.3394247
 Dipole Y            :         -7.0332696            7.4920498            0.4587802
 Dipole Z            :         21.2540769          -21.9054558           -0.6513789
 Magnitude           :                                                    0.8660155
  Basis Set: (AUG-CC-PVTZ AUX)
    Blend: AUG-CC-PVTZ-RI + DEF2-QZVPP-RI
	 Reference Energy          =    -311.6110801324740009 [Eh]
	 Singles Energy            =      -0.0000000000000000 [Eh]
	 Same-Spin Energy          =      -0.2758133270968265 [Eh]
	 Opposite-Spin Energy      =      -0.8785039566179420 [Eh]
	 Correlation Energy        =      -1.1543172837147686 [Eh]
	 Total Energy              =    -312.7653974161887618 [Eh]

	 ================> DF-SCS-MP2 Energies <==================
	-----------------------------------------------------------
	 SCS Same-Spin Scale       =       0.3333333333333333 [-]
	 SCS Opposite-Spin Scale   =       1.2000000000000000 [-]
	 SCS Same-Spin Energy      =      -0.0919377756989422 [Eh]
	 SCS Opposite-Spin Energy  =      -1.0542047479415304 [Eh]
	 SCS Correlation Energy    =      -1.1461425236404725 [Eh]
	 SCS Total Energy          =    -312.7572226561144930 [Eh]
	-----------------------------------------------------------

*** Psi4 exiting successfully. Buy a developer a beer!
