                               Psi4 1.8.2 release

  ==> Input File <==

--------------------------------------------------------------------------
MEMORY 60 GB

molecule dimer {
0 1
Gh(Li)     0.000000     0.000000     0.000000
O          0.310094    -1.762459     0.424676
H          1.019755    -2.370888     0.219586
H         -0.545566    -2.125910     0.340252
Gh(O)      1.379131     0.920850    -0.326352
Gh(H)      2.291762     0.787935     0.009136
Gh(H)      1.516037     1.585216    -1.021019
Gh(O)     -1.539823     0.503766    -1.067499
Gh(H)     -2.441997     0.161504    -1.061971
Gh(H)     -1.551102     1.250548    -1.642154

units ang
no_reorient
no_com
symmetry c1
}

set {
basis        aug-cc-pVTZ
scf_type     df
}

energy("mp2")
--------------------------------------------------------------------------

    Molecular point group: c1

    Geometry (in Angstrom), charge = 0, multiplicity = 1:

       Center              X                  Y                   Z               Mass
    ------------   -----------------  -----------------  -----------------  -----------------
      Gh(LI)          0.000000000000     0.000000000000     0.000000000000     7.016003436600
         O            0.310094000000    -1.762459000000     0.424676000000    15.994914619570
         H            1.019755000000    -2.370888000000     0.219586000000     1.007825032230
         H           -0.545566000000    -2.125910000000     0.340252000000     1.007825032230
      Gh(O)           1.379131000000     0.920850000000    -0.326352000000    15.994914619570
      Gh(H)           2.291762000000     0.787935000000     0.009136000000     1.007825032230
      Gh(H)           1.516037000000     1.585216000000    -1.021019000000     1.007825032230
      Gh(O)          -1.539823000000     0.503766000000    -1.067499000000    15.994914619570
      Gh(H)          -2.441997000000     0.161504000000    -1.061971000000     1.007825032230
      Gh(H)          -1.551102000000     1.250548000000    -1.642154000000     1.007825032230

  Charge       = 0
  Multiplicity = 1
  Basis Set: AUG-CC-PVTZ
    Blend: AUG-CC-PVTZ
  Basis Set: (AUG-CC-PVTZ AUX)
    Blend: AUG-CC-PVTZ-JKFIT + DEF2-UNIVERSAL-JKFIT

    Orbital Energies [Eh]
    ---------------------

    Doubly Occupied:

       1A    -20.560336     2A     -1.352973     3A     -0.742743
       4A     -0.567994     5A     -0.508417

  @DF-RHF Final Energy:   -76.05927992386383

   => Energetics <=

    Nuclear Repulsion Energy =              9.2917344917990494
    One-Electron Energy =                -123.2371005722474706
    Two-Electron Energy =                  37.8860861565846037
    Total Energy =                        -76.0592799238638122
 Dipole X            :         -5.6878070            5.5840292           -0.1037778
 Dipole Y            :         34.4701684          -35.1422352           -0.6720668
 Dipole Z            :         -7.6780609            7.4781112           -0.1999497
 Magnitude           :                                                    0.7088184
  Basis Set: (AUG-CC-PVTZ AUX)
    Blend: AUG-CC-PVTZ-RI + DEF2-QZVPP-RI
	 Reference Energy          =     -76.0592799238638264 [Eh]
	 Singles Energy            =      -0.0000000000000000 [Eh]
	 Same-Spin Energy          =      -0.0681353875398611 [Eh]
	 Opposite-Spin Energy      =      -0.2148858320862047 [Eh]
	 Correlation Energy        =      -0.2830212196260658 [Eh]
	 Total Energy              =     -76.3423011434898910 [Eh]

	 ================> DF-SCS-MP2 Energies <==================
	-----------------------------------------------------------
	 SCS Same-Spin Scale       =       0.3333333333333333 [-]
	 SCS Opposite-Spin Scale   =       1.2000000000000000 [-]
	 SCS Same-Spin Energy      =      -0.0227117958466204 [Eh]
	 SCS Opposite-Spin Energy  =      -0.2578629985034456 [Eh]
	 SCS Correlation Energy    =      -0.2805747943500660 [Eh]
	 SCS Total Energy          =     -76.3398547182138856 [Eh]
	-----------------------------------------------------------

*** Psi4 exiting successfully. Buy a developer a beer!
