                               Psi4 1.8.2 release

  ==> Input File <==

--------------------------------------------------------------------------
MEMORY 60 GB

molecule dimer {
1 1
Li         0.000000     0.000000     0.000000
O          0.647883     0.164741    -1.949481
H          0.795272    -0.525507    -2.602115
H          0.457108     1.105193    -2.354509
O         -0.976045     1.405748     0.625342
H         -0.496767     2.104540     1.009624
H         -1.582079     1.799875     0.027250
O         -1.260034    -1.585226     0.021824
H         -0.751180    -2.408299    -0.156525
H         -2.038513    -1.751498    -0.490334
O          1.554816    -0.718133     0.753645
H          1.658146    -1.557676     1.200674
H          2.157510    -0.074449     1.263032

units ang
no_reorient
no_com
symmetry c1
}

set {
basis        aug-cc-pVTZ
scf_type     df
}

energy("mp2")
--------------------------------------------------------------------------

    Molecular point group: c1

    Geometry (in Angstrom), charge = 1, multiplicity = 1:

       Center              X                  Y                   Z               Mass
    ------------   -----------------  -----------------  -----------------  -----------------
         LI           0.000000000000     0.000000000000     0.000000000000     7.016003436600
         O            0.647883000000     0.164741000000    -1.949481000000    15.994914619570
         H            0.795272000000    -0.525507000000    -2.602115000000     1.007825032230
         H            0.457108000000     1.105193000000    -2.354509000000     1.007825032230
         O           -0.976045000000     1.405748000000     0.625342000000    15.994914619570
         H           -0.496767000000     2.104540000000     1.009624000000     1.007825032230
         H           -1.582079000000     1.799875000000     0.027250000000     1.007825032230
         O           -1.260034000000    -1.585226000000     0.021824000000    15.994914619570
         H           -0.751180000000    -2.408299000000    -0.156525000000     1.007825032230
         H           -2.038513000000    -1.751498000000    -0.490334000000     1.007825032230
         O            1.554816000000    -0.718133000000     0.753645000000    15.994914619570
         H            1.658146000000    -1.557676000000     1.200674000000     1.007825032230
         H            2.157510000000    -0.074449000000     1.263032000000     1.007825032230

  Charge       = 1
  Multiplicity = 1
  Basis Set: AUG-CC-PVTZ
    Blend: AUG-CC-PVTZ
  Basis Set: (AUG-CC-PVTZ AUX)
    Blend: AUG-CC-PVTZ-JKFIT + DEF2-UNIVERSAL-JKFIT

    Orbital Energies [Eh]
    ---------------------

    Doubly Occupied:

       1A    -20.752076     2A    -20.751181     3A    -20.739718
       4A    -20.739180     5A     -2.523734     6A     -1.561750
       7A     -1.527882     8A     -1.525076     9A     -1.502255
      10A     -0.927898    11A     -0.889830    12A     -0.884516
      13A     -0.876285    14A     -0.804328    15A     -0.789172
      16A     -0.772333    17A     -0.746074    18A     -0.714050
      19A     -0.697168    20A     -0.691817    21A     -0.675169

  @DF-RHF Final Energy:  -311.61315014609625

   => Energetics <=

    Nuclear Repulsion Energy =            163.1409246975929079
    One-Electron Energy =                -747.3251665456813271
    Two-Electron Energy =                 272.5710917019921453
    Total Energy =                       -311.6131501460962454
 Dipole X            :          0.3112884           -0.1276378            0.1836506
 Dipole Y            :         13.6023043          -13.5508122            0.0514921
 Dipole Z            :         11.5455305          -12.2685990           -0.7230685
 Magnitude           :                                                    0.7478014
  Basis Set: (AUG-CC-PVTZ AUX)
    Blend: AUG-CC-PVTZ-RI + DEF2-QZVPP-RI
	 Reference Energy          =    -311.6131501460962454 [Eh]
	 Singles Energy            =      -0.0000000000000000 [Eh]
	 Same-Spin Energy          =      -0.2760244775129047 [Eh]
	 Opposite-Spin Energy      =      -0.8801877256130827 [Eh]
	 Correlation Energy        =      -1.1562122031259874 [Eh]
	 Total Energy              =    -312.7693623492222059 [Eh]

	 ================> DF-SCS-MP2 Energies <==================
	-----------------------------------------------------------
	 SCS Same-Spin Scale       =       0.3333333333333333 [-]
	 SCS Opposite-Spin Scale   =       1.2000000000000000 [-]
	 SCS Same-Spin Energy      =      -0.0920081591709682 [Eh]
	 SCS Opposite-Spin Energy  =      -1.0562252707356992 [Eh]
	 SCS Correlation Energy    =      -1.1482334299066674 [Eh]
	 SCS Total Energy          =    -312.7613835760029133 [Eh]
	-----------------------------------------------------------

*** Psi4 exiting successfully. Buy a developer a beer!
