                               Psi4 1.8.2 release

  ==> Input File <==

--------------------------------------------------------------------------
MEMORY 60 GB

molecule dimer {
1 1
Li         0.000000     0.000000     0.000000
O          0.479299    -0.023155     2.040576
H          1.401203    -0.047344     1.992724
H          0.183700    -0.723857     2.589691
O          1.211465     0.917124    -1.085982
H          1.893267     0.250849    -1.335533
H          1.514507     1.731669    -0.789172
O          0.020647    -1.905313    -0.620925
H          0.710937    -2.493526    -1.007313
H         -0.763325    -2.495709    -0.483083
O         -1.823938     0.516909    -0.645776
H         -2.499709    -0.060327    -0.255399
H         -2.179640     1.399153    -0.823341

units ang
no_reorient
no_com
symmetry c1
}

set {
basis        aug-cc-pVTZ
scf_type     df
}

energy("mp2")
--------------------------------------------------------------------------

    Molecular point group: c1

    Geometry (in Angstrom), charge = 1, multiplicity = 1:

       Center              X                  Y                   Z               Mass
    ------------   -----------------  -----------------  -----------------  -----------------
         LI           0.000000000000     0.000000000000     0.000000000000     7.016003436600
         O            0.479299000000    -0.023155000000     2.040576000000    15.994914619570
         H            1.401203000000    -0.047344000000     1.992724000000     1.007825032230
         H            0.183700000000    -0.723857000000     2.589691000000     1.007825032230
         O            1.211465000000     0.917124000000    -1.085982000000    15.994914619570
         H            1.893267000000     0.250849000000    -1.335533000000     1.007825032230
         H            1.514507000000     1.731669000000    -0.789172000000     1.007825032230
         O            0.020647000000    -1.905313000000    -0.620925000000    15.994914619570
         H            0.710937000000    -2.493526000000    -1.007313000000     1.007825032230
         H           -0.763325000000    -2.495709000000    -0.483083000000     1.007825032230
         O           -1.823938000000     0.516909000000    -0.645776000000    15.994914619570
         H           -2.499709000000    -0.060327000000    -0.255399000000     1.007825032230
         H           -2.179640000000     1.399153000000    -0.823341000000     1.007825032230

  Charge       = 1
  Multiplicity = 1
  Basis Set: AUG-CC-PVTZ
    Blend: AUG-CC-PVTZ
  Basis Set: (AUG-CC-PVTZ AUX)
    Blend: AUG-CC-PVTZ-JKFIT + DEF2-UNIVERSAL-JKFIT

    Orbital Energies [Eh]
    ---------------------

    Doubly Occupied:

       1A    -20.755753     2A    -20.747689     3A    -20.738822
       4A    -20.737292     5A     -2.536886     6A     -1.545859
       7A     -1.543418     8A     -1.527233     9A     -1.518639
      10A     -0.934385    11A     -0.920716    12A     -0.898639
      13A     -0.886995    14A     -0.792175    15A     -0.773206
      16A     -0.771727    17A     -0.754254    18A     -0.708888
      19A     -0.703097    20A     -0.689985    21A     -0.684693

  @DF-RHF Final Energy:  -311.61890774468793

   => Energetics <=

    Nuclear Repulsion Energy =            160.9681367833841250
    One-Electron Energy =                -742.8333810060555606
    Two-Electron Energy =                 270.2463364779835047
    Total Energy =                       -311.6189077446879310
 Dipole X            :          1.5455801           -1.2080566            0.3375235
 Dipole Y            :         11.0440768          -12.0839898           -1.0399129
 Dipole Z            :          5.1609629           -4.9289386            0.2320242
 Magnitude           :                                                    1.1176656
  Basis Set: (AUG-CC-PVTZ AUX)
    Blend: AUG-CC-PVTZ-RI + DEF2-QZVPP-RI
	 Reference Energy          =    -311.6189077446879310 [Eh]
	 Singles Energy            =      -0.0000000000000000 [Eh]
	 Same-Spin Energy          =      -0.2748766766627036 [Eh]
	 Opposite-Spin Energy      =      -0.8769438962989570 [Eh]
	 Correlation Energy        =      -1.1518205729616606 [Eh]
	 Total Energy              =    -312.7707283176495707 [Eh]

	 ================> DF-SCS-MP2 Energies <==================
	-----------------------------------------------------------
	 SCS Same-Spin Scale       =       0.3333333333333333 [-]
	 SCS Opposite-Spin Scale   =       1.2000000000000000 [-]
	 SCS Same-Spin Energy      =      -0.0916255588875679 [Eh]
	 SCS Opposite-Spin Energy  =      -1.0523326755587483 [Eh]
	 SCS Correlation Energy    =      -1.1439582344463162 [Eh]
	 SCS Total Energy          =    -312.7628659791342329 [Eh]
	-----------------------------------------------------------

*** Psi4 exiting successfully. Buy a developer a beer!
