                               Psi4 1.8.2 release

  ==> Input File <==

--------------------------------------------------------------------------
MEMORY 60 GB

molecule dimer {
1 1
Li         0.000000     0.000000     0.000000
Gh(O)     -0.007634    -1.023123    -1.511591
Gh(H)      0.057973    -0.546603    -2.301212
Gh(H)     -0.749478    -1.673774    -1.686888
Gh(O)     -0.253781    -0.523552     1.861966
Gh(H)      0.377486    -1.069012     2.381988
Gh(H)     -0.297109     0.310860     2.309038
Gh(O)     -0.726151     1.712601    -0.023638
Gh(H)     -1.486107     2.345326    -0.255453
Gh(H)      0.048758     2.312731    -0.026328
Gh(O)      1.873846     0.435239     0.205989
Gh(H)      2.286734    -0.048458    -0.478572
Gh(H)      2.531118     0.339515     0.930741

units ang
no_reorient
no_com
symmetry c1
}

set {
basis        aug-cc-pVTZ
scf_type     df
}

energy("mp2")
--------------------------------------------------------------------------

    Molecular point group: c1

    Geometry (in Angstrom), charge = 1, multiplicity = 1:

       Center              X                  Y                   Z               Mass
    ------------   -----------------  -----------------  -----------------  -----------------
         LI           0.000000000000     0.000000000000     0.000000000000     7.016003436600
      Gh(O)          -0.007634000000    -1.023123000000    -1.511591000000    15.994914619570
      Gh(H)           0.057973000000    -0.546603000000    -2.301212000000     1.007825032230
      Gh(H)          -0.749478000000    -1.673774000000    -1.686888000000     1.007825032230
      Gh(O)          -0.253781000000    -0.523552000000     1.861966000000    15.994914619570
      Gh(H)           0.377486000000    -1.069012000000     2.381988000000     1.007825032230
      Gh(H)          -0.297109000000     0.310860000000     2.309038000000     1.007825032230
      Gh(O)          -0.726151000000     1.712601000000    -0.023638000000    15.994914619570
      Gh(H)          -1.486107000000     2.345326000000    -0.255453000000     1.007825032230
      Gh(H)           0.048758000000     2.312731000000    -0.026328000000     1.007825032230
      Gh(O)           1.873846000000     0.435239000000     0.205989000000    15.994914619570
      Gh(H)           2.286734000000    -0.048458000000    -0.478572000000     1.007825032230
      Gh(H)           2.531118000000     0.339515000000     0.930741000000     1.007825032230

  Charge       = 1
  Multiplicity = 1
  Basis Set: AUG-CC-PVTZ
    Blend: AUG-CC-PVTZ
  Basis Set: (AUG-CC-PVTZ AUX)
    Blend: AUG-CC-PVTZ-JKFIT + DEF2-UNIVERSAL-JKFIT

    Orbital Energies [Eh]
    ---------------------

    Doubly Occupied:

       1A     -2.792352

  @DF-RHF Final Energy:    -7.23638498820728

   => Energetics <=

    Nuclear Repulsion Energy =              0.0000000000000000
    One-Electron Energy =                  -8.8880669039638818
    Two-Electron Energy =                   1.6516819157566063
    Total Energy =                         -7.2363849882072753
 Dipole X            :          0.0000006            0.0000000            0.0000006
 Dipole Y            :         -0.0000029            0.0000000           -0.0000029
 Dipole Z            :          0.0000005            0.0000000            0.0000005
 Magnitude           :                                                    0.0000030
  Basis Set: (AUG-CC-PVTZ AUX)
    Blend: AUG-CC-PVTZ-RI + DEF2-QZVPP-RI
	 Reference Energy          =      -7.2363849882072762 [Eh]
	 Singles Energy            =      -0.0000000000000000 [Eh]
	 Same-Spin Energy          =       0.0000000000000000 [Eh]
	 Opposite-Spin Energy      =      -0.0176089890546129 [Eh]
	 Correlation Energy        =      -0.0176089890546129 [Eh]
	 Total Energy              =      -7.2539939772618887 [Eh]

	 ================> DF-SCS-MP2 Energies <==================
	-----------------------------------------------------------
	 SCS Same-Spin Scale       =       0.3333333333333333 [-]
	 SCS Opposite-Spin Scale   =       1.2000000000000000 [-]
	 SCS Same-Spin Energy      =       0.0000000000000000 [Eh]
	 SCS Opposite-Spin Energy  =      -0.0211307868655355 [Eh]
	 SCS Correlation Energy    =      -0.0211307868655355 [Eh]
	 SCS Total Energy          =      -7.2575157750728119 [Eh]
	-----------------------------------------------------------

*** Psi4 exiting successfully. Buy a developer a beer!
