                               Psi4 1.8.2 release

  ==> Input File <==

--------------------------------------------------------------------------
MEMORY 60 GB

molecule dimer {
0 1
Gh(Li)     0.000000     0.000000     0.000000
Gh(O)     -1.054262     1.033472     1.093346
Gh(H)     -1.730482     0.532374     1.562433
Gh(H)     -1.571843     1.575637     0.505802
Gh(O)     -0.744178    -1.532605    -0.783434
Gh(H)     -0.277426    -1.988784    -1.466297
Gh(H)     -1.469992    -1.214014    -1.334823
O          1.660220    -0.198584     0.829101
H          2.081802    -0.988587     0.338437
H          2.282426     0.471872     1.056824

units ang
no_reorient
no_com
symmetry c1
}

set {
basis        aug-cc-pVTZ
scf_type     df
}

energy("mp2")
--------------------------------------------------------------------------

    Molecular point group: c1

    Geometry (in Angstrom), charge = 0, multiplicity = 1:

       Center              X                  Y                   Z               Mass
    ------------   -----------------  -----------------  -----------------  -----------------
      Gh(LI)          0.000000000000     0.000000000000     0.000000000000     7.016003436600
      Gh(O)          -1.054262000000     1.033472000000     1.093346000000    15.994914619570
      Gh(H)          -1.730482000000     0.532374000000     1.562433000000     1.007825032230
      Gh(H)          -1.571843000000     1.575637000000     0.505802000000     1.007825032230
      Gh(O)          -0.744178000000    -1.532605000000    -0.783434000000    15.994914619570
      Gh(H)          -0.277426000000    -1.988784000000    -1.466297000000     1.007825032230
      Gh(H)          -1.469992000000    -1.214014000000    -1.334823000000     1.007825032230
         O            1.660220000000    -0.198584000000     0.829101000000    15.994914619570
         H            2.081802000000    -0.988587000000     0.338437000000     1.007825032230
         H            2.282426000000     0.471872000000     1.056824000000     1.007825032230

  Charge       = 0
  Multiplicity = 1
  Basis Set: AUG-CC-PVTZ
    Blend: AUG-CC-PVTZ
  Basis Set: (AUG-CC-PVTZ AUX)
    Blend: AUG-CC-PVTZ-JKFIT + DEF2-UNIVERSAL-JKFIT

    Orbital Energies [Eh]
    ---------------------

    Doubly Occupied:

       1A    -20.566698     2A     -1.336805     3A     -0.719893
       4A     -0.563188     5A     -0.505671

  @DF-RHF Final Energy:   -76.05362370639313

   => Energetics <=

    Nuclear Repulsion Energy =              8.9599188982598257
    One-Electron Energy =                -122.6425710988009143
    Two-Electron Energy =                  37.6290284941479527
    Total Energy =                        -76.0536237063931253
 Dipole X            :        -32.6420833           33.3460845            0.7040012
 Dipole Y            :          3.9066895           -3.9786048           -0.0719153
 Dipole Z            :        -15.3434888           15.1708517           -0.1726371
 Magnitude           :                                                    0.7284183
  Basis Set: (AUG-CC-PVTZ AUX)
    Blend: AUG-CC-PVTZ-RI + DEF2-QZVPP-RI
	 Reference Energy          =     -76.0536237063931253 [Eh]
	 Singles Energy            =      -0.0000000000000000 [Eh]
	 Same-Spin Energy          =      -0.0687404095906995 [Eh]
	 Opposite-Spin Energy      =      -0.2168558396468414 [Eh]
	 Correlation Energy        =      -0.2855962492375408 [Eh]
	 Total Energy              =     -76.3392199556306679 [Eh]

	 ================> DF-SCS-MP2 Energies <==================
	-----------------------------------------------------------
	 SCS Same-Spin Scale       =       0.3333333333333333 [-]
	 SCS Opposite-Spin Scale   =       1.2000000000000000 [-]
	 SCS Same-Spin Energy      =      -0.0229134698635665 [Eh]
	 SCS Opposite-Spin Energy  =      -0.2602270075762096 [Eh]
	 SCS Correlation Energy    =      -0.2831404774397761 [Eh]
	 SCS Total Energy          =     -76.3367641838328979 [Eh]
	-----------------------------------------------------------

*** Psi4 exiting successfully. Buy a developer a beer!
