                               Psi4 1.9 release

  ==> Input File <==

--------------------------------------------------------------------------
MEMORY 60 GB

molecule dimer {
1 1
Li     0.000000     0.000000     0.000000
--
0 1
O      1.871880     0.461571     0.368550
H      2.285974     0.571186    -0.568959
H      2.640293     0.187905     0.999170
O     -0.434010     0.027323    -1.814838
H     -1.386091     0.043525    -1.966203
H     -0.179400     0.553937    -2.571507
O     -0.248199    -1.804611     0.671574
H      0.614937    -2.214034     0.676546
H     -0.801980    -2.158788    -0.016634
O     -1.170794     0.970161     1.468626
H     -0.562692     1.300187     2.160833
H     -1.660722     0.184687     1.808510

units ang
no_reorient
no_com
symmetry c1
}

set {
basis        aug-cc-pVTZ
scf_type     df
}

energy("mp2", bsse_type="cp")
--------------------------------------------------------------------------

                               Psi4 1.9 release
    Molecular point group: c1
  Charge       = 0
  Multiplicity = 1
  Basis Set: AUG-CC-PVTZ
    Blend: AUG-CC-PVTZ
  Basis Set: (AUG-CC-PVTZ AUX)
    Blend: AUG-CC-PVTZ-JKFIT + DEF2-UNIVERSAL-JKFIT
  @DF-RHF Final Energy:  -304.20779991261628
    Total Energy =                       -304.2077999126162808
 Dipole X            :         -1.4715331            2.0812215            0.6096884
 Dipole Y            :          7.5899486           -8.1179667           -0.5280181
 Dipole Z            :        -12.0963126           11.4764050           -0.6199075
 Magnitude           :                                                    1.0172554
  Basis Set: (AUG-CC-PVTZ AUX)
    Blend: AUG-CC-PVTZ-RI + DEF2-QZVPP-RI
	 Reference Energy          =    -304.2077999126162808 [Eh]
	 Singles Energy            =      -0.0000000000000000 [Eh]
	 Same-Spin Energy          =      -0.2782724776110866 [Eh]
	 Opposite-Spin Energy      =      -0.8726253750482469 [Eh]
	 Correlation Energy        =      -1.1508978526593334 [Eh]
	 Total Energy              =    -305.3586977652756218 [Eh]
	 SCS Total Energy          =    -305.3477078552111834 [Eh]
                               Psi4 1.9 release
    Molecular point group: c1
  Multiplicity = 1
  Basis Set: AUG-CC-PVTZ
    Blend: AUG-CC-PVTZ
  Basis Set: (AUG-CC-PVTZ AUX)
    Blend: AUG-CC-PVTZ-JKFIT + DEF2-UNIVERSAL-JKFIT
  @DF-RHF Final Energy:    -7.23638487155964
    Total Energy =                         -7.2363848715596379
  Basis Set: (AUG-CC-PVTZ AUX)
	 Singles Energy            =      -0.0000000000000000 [Eh]
	 Same-Spin Energy          =      -0.0000000000000000 [Eh]
	 Opposite-Spin Energy      =      -0.0168455322569537 [Eh]
	 Correlation Energy        =      -0.0168455322569537 [Eh]
	 Total Energy              =      -7.2532304038165929 [Eh]
	 SCS Total Energy          =      -7.2565995102679830 [Eh]
                               Psi4 1.9 release
    Molecular point group: c1

    Geometry (in Bohr), charge = 1, multiplicity = 1:

       Center              X                  Y                   Z               Mass
    ------------   -----------------  -----------------  -----------------  -----------------
         LI           0.000000000000     0.000000000000     0.000000000000     7.016003436600
         O            3.537340539722     0.872242777454     0.696458563537    15.994914619570
         H            4.319864789917     1.079385106696    -1.075176686614     1.007825032230
         H            4.989430660963     0.355088987604     1.888157652774     1.007825032230
         O           -0.820160035710     0.051632986926    -3.429546782074    15.994914619570
         H           -2.619332374962     0.082250329611    -3.715585177054     1.007825032230
         H           -0.339016866907     1.046789220758    -4.859443959698     1.007825032230
         O           -0.469028134613    -3.410220552989     1.269090932978    15.994914619570
         H            1.162062514411    -4.183917892452     1.278486651274     1.007825032230
         H           -1.515522558095    -4.079518082925    -0.031433704371     1.007825032230
         O           -2.212480009329     1.833338587600     2.775300920727    15.994914619570
         H           -1.063333772986     2.456997341881     4.083382572851     1.007825032230
         H           -3.138309750523     0.349007848932     3.417588595152     1.007825032230

  Charge       = 1
  Multiplicity = 1
  Basis Set: AUG-CC-PVTZ
    Blend: AUG-CC-PVTZ
  Basis Set: (AUG-CC-PVTZ AUX)
    Blend: AUG-CC-PVTZ-JKFIT + DEF2-UNIVERSAL-JKFIT

    Orbital Energies [Eh]
    ---------------------

    Doubly Occupied:

       1A    -20.770345     2A    -20.764535     3A    -20.750536
       4A    -20.730499     5A     -2.542096     6A     -1.564523
       7A     -1.545195     8A     -1.511479     9A     -1.503326
      10A     -0.925167    11A     -0.906875    12A     -0.876465
      13A     -0.874710    14A     -0.826058    15A     -0.780529
      16A     -0.771027    17A     -0.742669    18A     -0.724671
      19A     -0.712556    20A     -0.695571    21A     -0.676254

  @DF-RHF Final Energy:  -311.60668962442861

   => Energetics <=

    Nuclear Repulsion Energy =            162.1929485519382865
    One-Electron Energy =                -745.2091005698284789
    Two-Electron Energy =                 271.4094623934615242
    Total Energy =                       -311.6066896244286113
 Dipole X            :         -1.3744618            2.0812215            0.7067597
 Dipole Y            :          7.4774216           -8.1179667           -0.6405451
 Dipole Z            :        -12.0511941           11.4764050           -0.5747891
 Magnitude           :                                                    1.1136381
  Basis Set: (AUG-CC-PVTZ AUX)
    Blend: AUG-CC-PVTZ-RI + DEF2-QZVPP-RI
	 Reference Energy          =    -311.6066896244286113 [Eh]
	 Singles Energy            =      -0.0000000000000000 [Eh]
	 Same-Spin Energy          =      -0.2769502559414235 [Eh]
	 Opposite-Spin Energy      =      -0.8823856702715620 [Eh]
	 Correlation Energy        =      -1.1593359262129854 [Eh]
	 Total Energy              =    -312.7660255506415865 [Eh]

	 ================> DF-SCS-MP2 Energies <==================
	-----------------------------------------------------------
	 SCS Same-Spin Scale       =       0.3333333333333333 [-]
	 SCS Opposite-Spin Scale   =       1.2000000000000000 [-]
	 SCS Same-Spin Energy      =      -0.0923167519804745 [Eh]
	 SCS Opposite-Spin Energy  =      -1.0588628043258743 [Eh]
	 SCS Correlation Energy    =      -1.1511795563063487 [Eh]
	 SCS Total Energy          =    -312.7578691807349855 [Eh]
	-----------------------------------------------------------

*** Psi4 exiting successfully. Buy a developer a beer!
