                               Psi4 1.8.2 release

  ==> Input File <==

--------------------------------------------------------------------------
MEMORY 60 GB

molecule dimer {
1 1
Li         0.000000     0.000000     0.000000
Gh(O)     -1.959429     0.551722    -0.115906
Gh(H)     -2.501903     1.114878     0.470899
Gh(H)     -2.703678     0.065273    -0.568937
Gh(O)      0.234542    -1.408943     1.091451
Gh(H)     -0.520325    -2.028104     0.922529
Gh(H)      0.330550    -1.475194     2.088232
Gh(O)      0.911987     1.610117     0.968941
Gh(H)      1.448281     1.554265     1.803833
Gh(H)      1.223738     2.292862     0.375246
Gh(O)      0.842688     0.233769    -1.798413
Gh(H)      0.637542    -0.124408    -2.680969
Gh(H)      1.557305     0.923962    -1.781956

units ang
no_reorient
no_com
symmetry c1
}

set {
basis        aug-cc-pVTZ
scf_type     df
}

energy("mp2")
--------------------------------------------------------------------------

    Molecular point group: c1

    Geometry (in Angstrom), charge = 1, multiplicity = 1:

       Center              X                  Y                   Z               Mass
    ------------   -----------------  -----------------  -----------------  -----------------
         LI           0.000000000000     0.000000000000     0.000000000000     7.016003436600
      Gh(O)          -1.959429000000     0.551722000000    -0.115906000000    15.994914619570
      Gh(H)          -2.501903000000     1.114878000000     0.470899000000     1.007825032230
      Gh(H)          -2.703678000000     0.065273000000    -0.568937000000     1.007825032230
      Gh(O)           0.234542000000    -1.408943000000     1.091451000000    15.994914619570
      Gh(H)          -0.520325000000    -2.028104000000     0.922529000000     1.007825032230
      Gh(H)           0.330550000000    -1.475194000000     2.088232000000     1.007825032230
      Gh(O)           0.911987000000     1.610117000000     0.968941000000    15.994914619570
      Gh(H)           1.448281000000     1.554265000000     1.803833000000     1.007825032230
      Gh(H)           1.223738000000     2.292862000000     0.375246000000     1.007825032230
      Gh(O)           0.842688000000     0.233769000000    -1.798413000000    15.994914619570
      Gh(H)           0.637542000000    -0.124408000000    -2.680969000000     1.007825032230
      Gh(H)           1.557305000000     0.923962000000    -1.781956000000     1.007825032230

  Charge       = 1
  Multiplicity = 1
  Basis Set: AUG-CC-PVTZ
    Blend: AUG-CC-PVTZ
  Basis Set: (AUG-CC-PVTZ AUX)
    Blend: AUG-CC-PVTZ-JKFIT + DEF2-UNIVERSAL-JKFIT

    Orbital Energies [Eh]
    ---------------------

    Doubly Occupied:

       1A     -2.792354

  @DF-RHF Final Energy:    -7.23638479732503

   => Energetics <=

    Nuclear Repulsion Energy =              0.0000000000000000
    One-Electron Energy =                  -8.8880616275161817
    Two-Electron Energy =                   1.6516768301911466
    Total Energy =                         -7.2363847973250355
 Dipole X            :          0.0000024            0.0000000            0.0000024
 Dipole Y            :          0.0000108            0.0000000            0.0000108
 Dipole Z            :          0.0000022            0.0000000            0.0000022
 Magnitude           :                                                    0.0000113
  Basis Set: (AUG-CC-PVTZ AUX)
    Blend: AUG-CC-PVTZ-RI + DEF2-QZVPP-RI
	 Reference Energy          =      -7.2363847973250346 [Eh]
	 Singles Energy            =      -0.0000000000000000 [Eh]
	 Same-Spin Energy          =       0.0000000000000000 [Eh]
	 Opposite-Spin Energy      =      -0.0168424398938684 [Eh]
	 Correlation Energy        =      -0.0168424398938684 [Eh]
	 Total Energy              =      -7.2532272372189031 [Eh]

	 ================> DF-SCS-MP2 Energies <==================
	-----------------------------------------------------------
	 SCS Same-Spin Scale       =       0.3333333333333333 [-]
	 SCS Opposite-Spin Scale   =       1.2000000000000000 [-]
	 SCS Same-Spin Energy      =       0.0000000000000000 [Eh]
	 SCS Opposite-Spin Energy  =      -0.0202109278726421 [Eh]
	 SCS Correlation Energy    =      -0.0202109278726421 [Eh]
	 SCS Total Energy          =      -7.2565957251976769 [Eh]
	-----------------------------------------------------------

*** Psi4 exiting successfully. Buy a developer a beer!
