                               Psi4 1.8.2 release

  ==> Input File <==

--------------------------------------------------------------------------
MEMORY 60 GB

molecule dimer {
1 1
Li         0.000000     0.000000     0.000000
O         -0.007634    -1.023123    -1.511591
H          0.057973    -0.546603    -2.301212
H         -0.749478    -1.673774    -1.686888
O         -0.253781    -0.523552     1.861966
H          0.377486    -1.069012     2.381988
H         -0.297109     0.310860     2.309038
O         -0.726151     1.712601    -0.023638
H         -1.486107     2.345326    -0.255453
H          0.048758     2.312731    -0.026328
O          1.873846     0.435239     0.205989
H          2.286734    -0.048458    -0.478572
H          2.531118     0.339515     0.930741

units ang
no_reorient
no_com
symmetry c1
}

set {
basis        aug-cc-pVTZ
scf_type     df
}

energy("mp2")
--------------------------------------------------------------------------

    Molecular point group: c1

    Geometry (in Angstrom), charge = 1, multiplicity = 1:

       Center              X                  Y                   Z               Mass
    ------------   -----------------  -----------------  -----------------  -----------------
         LI           0.000000000000     0.000000000000     0.000000000000     7.016003436600
         O           -0.007634000000    -1.023123000000    -1.511591000000    15.994914619570
         H            0.057973000000    -0.546603000000    -2.301212000000     1.007825032230
         H           -0.749478000000    -1.673774000000    -1.686888000000     1.007825032230
         O           -0.253781000000    -0.523552000000     1.861966000000    15.994914619570
         H            0.377486000000    -1.069012000000     2.381988000000     1.007825032230
         H           -0.297109000000     0.310860000000     2.309038000000     1.007825032230
         O           -0.726151000000     1.712601000000    -0.023638000000    15.994914619570
         H           -1.486107000000     2.345326000000    -0.255453000000     1.007825032230
         H            0.048758000000     2.312731000000    -0.026328000000     1.007825032230
         O            1.873846000000     0.435239000000     0.205989000000    15.994914619570
         H            2.286734000000    -0.048458000000    -0.478572000000     1.007825032230
         H            2.531118000000     0.339515000000     0.930741000000     1.007825032230

  Charge       = 1
  Multiplicity = 1
  Basis Set: AUG-CC-PVTZ
    Blend: AUG-CC-PVTZ
  Basis Set: (AUG-CC-PVTZ AUX)
    Blend: AUG-CC-PVTZ-JKFIT + DEF2-UNIVERSAL-JKFIT

    Orbital Energies [Eh]
    ---------------------

    Doubly Occupied:

       1A    -20.757995     2A    -20.755647     3A    -20.750860
       4A    -20.736616     5A     -2.524575     6A     -1.551713
       7A     -1.545879     8A     -1.526156     9A     -1.523182
      10A     -0.909705    11A     -0.898365    12A     -0.889112
      13A     -0.880549    14A     -0.805047    15A     -0.796927
      16A     -0.787846    17A     -0.767947    18A     -0.720343
      19A     -0.711093    20A     -0.696666    21A     -0.678837

  @DF-RHF Final Energy:  -311.61706700896661

   => Energetics <=

    Nuclear Repulsion Energy =            167.9744365361511598
    One-Electron Energy =                -756.7528809475746812
    Two-Electron Energy =                 277.1613774024568784
    Total Energy =                       -311.6170670089666146
 Dipole X            :        -17.8681998           18.6319721            0.7637722
 Dipole Y            :        -12.2175262           12.8121636            0.5946374
 Dipole Z            :         -9.8316138            9.7039742           -0.1276396
 Magnitude           :                                                    0.9763368
  Basis Set: (AUG-CC-PVTZ AUX)
    Blend: AUG-CC-PVTZ-RI + DEF2-QZVPP-RI
	 Reference Energy          =    -311.6170670089666146 [Eh]
	 Singles Energy            =      -0.0000000000000000 [Eh]
	 Same-Spin Energy          =      -0.2769099822125569 [Eh]
	 Opposite-Spin Energy      =      -0.8814833093006283 [Eh]
	 Correlation Energy        =      -1.1583932915131852 [Eh]
	 Total Energy              =    -312.7754603004797787 [Eh]

	 ================> DF-SCS-MP2 Energies <==================
	-----------------------------------------------------------
	 SCS Same-Spin Scale       =       0.3333333333333333 [-]
	 SCS Opposite-Spin Scale   =       1.2000000000000000 [-]
	 SCS Same-Spin Energy      =      -0.0923033274041856 [Eh]
	 SCS Opposite-Spin Energy  =      -1.0577799711607541 [Eh]
	 SCS Correlation Energy    =      -1.1500832985649396 [Eh]
	 SCS Total Energy          =    -312.7671503075315513 [Eh]
	-----------------------------------------------------------

*** Psi4 exiting successfully. Buy a developer a beer!
