                               Psi4 1.8.2 release

  ==> Input File <==

--------------------------------------------------------------------------
MEMORY 60 GB

molecule dimer {
0 1
Gh(Li)     0.000000     0.000000     0.000000
Gh(O)     -0.716880     0.857356    -1.496201
Gh(H)     -0.733051     0.709649    -2.428935
Gh(H)     -1.633457     1.096310    -1.306862
O         -0.384169     0.497773     1.852316
H         -1.003665     1.020047     2.428236
H          0.506112     0.522672     2.288627
Gh(O)      1.950571    -0.041794     0.161548
Gh(H)      2.264982    -0.901899     0.344035
Gh(H)      2.628264     0.655770     0.267660
Gh(O)     -0.621593    -1.900324    -0.167785
Gh(H)     -1.121968    -2.443415     0.395486
Gh(H)      0.100099    -2.460018    -0.306883

units ang
no_reorient
no_com
symmetry c1
}

set {
basis        aug-cc-pVTZ
scf_type     df
}

energy("mp2")
--------------------------------------------------------------------------

    Molecular point group: c1

    Geometry (in Angstrom), charge = 0, multiplicity = 1:

       Center              X                  Y                   Z               Mass
    ------------   -----------------  -----------------  -----------------  -----------------
      Gh(LI)          0.000000000000     0.000000000000     0.000000000000     7.016003436600
      Gh(O)          -0.716880000000     0.857356000000    -1.496201000000    15.994914619570
      Gh(H)          -0.733051000000     0.709649000000    -2.428935000000     1.007825032230
      Gh(H)          -1.633457000000     1.096310000000    -1.306862000000     1.007825032230
         O           -0.384169000000     0.497773000000     1.852316000000    15.994914619570
         H           -1.003665000000     1.020047000000     2.428236000000     1.007825032230
         H            0.506112000000     0.522672000000     2.288627000000     1.007825032230
      Gh(O)           1.950571000000    -0.041794000000     0.161548000000    15.994914619570
      Gh(H)           2.264982000000    -0.901899000000     0.344035000000     1.007825032230
      Gh(H)           2.628264000000     0.655770000000     0.267660000000     1.007825032230
      Gh(O)          -0.621593000000    -1.900324000000    -0.167785000000    15.994914619570
      Gh(H)          -1.121968000000    -2.443415000000     0.395486000000     1.007825032230
      Gh(H)           0.100099000000    -2.460018000000    -0.306883000000     1.007825032230

  Charge       = 0
  Multiplicity = 1
  Basis Set: AUG-CC-PVTZ
    Blend: AUG-CC-PVTZ
  Basis Set: (AUG-CC-PVTZ AUX)
    Blend: AUG-CC-PVTZ-JKFIT + DEF2-UNIVERSAL-JKFIT

    Orbital Energies [Eh]
    ---------------------

    Doubly Occupied:

       1A    -20.571958     2A     -1.334181     3A     -0.702887
       4A     -0.573340     5A     -0.506715

  @DF-RHF Final Energy:   -76.05594042214780

   => Energetics <=

    Nuclear Repulsion Energy =              8.8587710991043895
    One-Electron Energy =                -122.4512568676477997
    Two-Electron Energy =                  37.5365453463956058
    Total Energy =                        -76.0559404221478133
 Dipole X            :          6.9256281           -6.7480325            0.1775957
 Dipole Y            :        -10.0823730           10.4405535            0.3581806
 Dipole Z            :        -36.2535709           36.9165387            0.6629679
 Magnitude           :                                                    0.7741834
  Basis Set: (AUG-CC-PVTZ AUX)
    Blend: AUG-CC-PVTZ-RI + DEF2-QZVPP-RI
	 Reference Energy          =     -76.0559404221477990 [Eh]
	 Singles Energy            =      -0.0000000000000000 [Eh]
	 Same-Spin Energy          =      -0.0690067225301525 [Eh]
	 Opposite-Spin Energy      =      -0.2177835212163360 [Eh]
	 Correlation Energy        =      -0.2867902437464885 [Eh]
	 Total Energy              =     -76.3427306658942939 [Eh]

	 ================> DF-SCS-MP2 Energies <==================
	-----------------------------------------------------------
	 SCS Same-Spin Scale       =       0.3333333333333333 [-]
	 SCS Opposite-Spin Scale   =       1.2000000000000000 [-]
	 SCS Same-Spin Energy      =      -0.0230022408433842 [Eh]
	 SCS Opposite-Spin Energy  =      -0.2613402254596032 [Eh]
	 SCS Correlation Energy    =      -0.2843424663029874 [Eh]
	 SCS Total Energy          =     -76.3402828884507869 [Eh]
	-----------------------------------------------------------

*** Psi4 exiting successfully. Buy a developer a beer!
