                               Psi4 1.8.2 release

  ==> Input File <==

--------------------------------------------------------------------------
MEMORY 60 GB

molecule dimer {
0 1
Gh(Li)     0.000000     0.000000     0.000000
O         -0.979497     1.661715    -0.383017
H         -1.942918     1.715495    -0.206976
H         -0.939941     1.583322    -1.344780
Gh(O)     -0.874120    -1.338989    -0.808144
Gh(H)     -1.695116    -1.751423    -0.533523
Gh(H)     -0.327135    -2.063220    -1.130349
Gh(O)      0.608715     0.248553     1.781960
Gh(H)      1.153588     0.893218     2.259355
Gh(H)     -0.175350     0.061724     2.297094
Gh(O)      1.616898    -0.021797    -1.057657
Gh(H)      1.564752    -0.251149    -1.971527
Gh(H)      2.506419    -0.320433    -0.827794

units ang
no_reorient
no_com
symmetry c1
}

set {
basis        aug-cc-pVTZ
scf_type     df
}

energy("mp2")
--------------------------------------------------------------------------

    Molecular point group: c1

    Geometry (in Angstrom), charge = 0, multiplicity = 1:

       Center              X                  Y                   Z               Mass
    ------------   -----------------  -----------------  -----------------  -----------------
      Gh(LI)          0.000000000000     0.000000000000     0.000000000000     7.016003436600
         O           -0.979497000000     1.661715000000    -0.383017000000    15.994914619570
         H           -1.942918000000     1.715495000000    -0.206976000000     1.007825032230
         H           -0.939941000000     1.583322000000    -1.344780000000     1.007825032230
      Gh(O)          -0.874120000000    -1.338989000000    -0.808144000000    15.994914619570
      Gh(H)          -1.695116000000    -1.751423000000    -0.533523000000     1.007825032230
      Gh(H)          -0.327135000000    -2.063220000000    -1.130349000000     1.007825032230
      Gh(O)           0.608715000000     0.248553000000     1.781960000000    15.994914619570
      Gh(H)           1.153588000000     0.893218000000     2.259355000000     1.007825032230
      Gh(H)          -0.175350000000     0.061724000000     2.297094000000     1.007825032230
      Gh(O)           1.616898000000    -0.021797000000    -1.057657000000    15.994914619570
      Gh(H)           1.564752000000    -0.251149000000    -1.971527000000     1.007825032230
      Gh(H)           2.506419000000    -0.320433000000    -0.827794000000     1.007825032230

  Charge       = 0
  Multiplicity = 1
  Basis Set: AUG-CC-PVTZ
    Blend: AUG-CC-PVTZ
  Basis Set: (AUG-CC-PVTZ AUX)
    Blend: AUG-CC-PVTZ-JKFIT + DEF2-UNIVERSAL-JKFIT

    Orbital Energies [Eh]
    ---------------------

    Doubly Occupied:

       1A    -20.570480     2A     -1.346487     3A     -0.705952
       4A     -0.584847     5A     -0.509504

  @DF-RHF Final Energy:   -76.05898414347529

   => Energetics <=

    Nuclear Repulsion Energy =              9.0471441098336278
    One-Electron Energy =                -122.7777108492966534
    Two-Electron Energy =                  37.6715825959877435
    Total Energy =                        -76.0589841434752856
 Dipole X            :         19.6520636          -20.2556625           -0.6035989
 Dipole Y            :        -31.3714654           31.3553507           -0.0161147
 Dipole Z            :          8.2058540           -8.7227717           -0.5169177
 Magnitude           :                                                    0.7948555
  Basis Set: (AUG-CC-PVTZ AUX)
    Blend: AUG-CC-PVTZ-RI + DEF2-QZVPP-RI
	 Reference Energy          =     -76.0589841434752856 [Eh]
	 Singles Energy            =      -0.0000000000000000 [Eh]
	 Same-Spin Energy          =      -0.0687474583366949 [Eh]
	 Opposite-Spin Energy      =      -0.2170057899373825 [Eh]
	 Correlation Energy        =      -0.2857532482740773 [Eh]
	 Total Energy              =     -76.3447373917493621 [Eh]

	 ================> DF-SCS-MP2 Energies <==================
	-----------------------------------------------------------
	 SCS Same-Spin Scale       =       0.3333333333333333 [-]
	 SCS Opposite-Spin Scale   =       1.2000000000000000 [-]
	 SCS Same-Spin Energy      =      -0.0229158194455650 [Eh]
	 SCS Opposite-Spin Energy  =      -0.2604069479248589 [Eh]
	 SCS Correlation Energy    =      -0.2833227673704239 [Eh]
	 SCS Total Energy          =     -76.3423069108457071 [Eh]
	-----------------------------------------------------------

*** Psi4 exiting successfully. Buy a developer a beer!
