                               Psi4 1.8.2 release

  ==> Input File <==

--------------------------------------------------------------------------
MEMORY 60 GB

molecule dimer {
0 1
Gh(Li)     0.000000     0.000000     0.000000
Gh(O)     -0.213290    -1.230877    -1.435922
Gh(H)      0.319614    -1.433868    -2.244771
Gh(H)     -1.116811    -1.240557    -1.761755
Gh(O)      1.078055    -0.691540     1.605291
Gh(H)      1.583124    -1.467147     1.345496
Gh(H)      0.428738    -1.104788     2.246733
O          1.200353     1.386398    -0.738119
H          0.867414     1.714195    -1.599060
H          2.118436     1.242699    -0.916516
Gh(O)     -1.635855     0.447985     0.979762
Gh(H)     -1.749951     0.565313     1.919399
Gh(H)     -2.276601     0.947984     0.463108

units ang
no_reorient
no_com
symmetry c1
}

set {
basis        aug-cc-pVTZ
scf_type     df
}

energy("mp2")
--------------------------------------------------------------------------

    Molecular point group: c1

    Geometry (in Angstrom), charge = 0, multiplicity = 1:

       Center              X                  Y                   Z               Mass
    ------------   -----------------  -----------------  -----------------  -----------------
      Gh(LI)          0.000000000000     0.000000000000     0.000000000000     7.016003436600
      Gh(O)          -0.213290000000    -1.230877000000    -1.435922000000    15.994914619570
      Gh(H)           0.319614000000    -1.433868000000    -2.244771000000     1.007825032230
      Gh(H)          -1.116811000000    -1.240557000000    -1.761755000000     1.007825032230
      Gh(O)           1.078055000000    -0.691540000000     1.605291000000    15.994914619570
      Gh(H)           1.583124000000    -1.467147000000     1.345496000000     1.007825032230
      Gh(H)           0.428738000000    -1.104788000000     2.246733000000     1.007825032230
         O            1.200353000000     1.386398000000    -0.738119000000    15.994914619570
         H            0.867414000000     1.714195000000    -1.599060000000     1.007825032230
         H            2.118436000000     1.242699000000    -0.916516000000     1.007825032230
      Gh(O)          -1.635855000000     0.447985000000     0.979762000000    15.994914619570
      Gh(H)          -1.749951000000     0.565313000000     1.919399000000     1.007825032230
      Gh(H)          -2.276601000000     0.947984000000     0.463108000000     1.007825032230

  Charge       = 0
  Multiplicity = 1
  Basis Set: AUG-CC-PVTZ
    Blend: AUG-CC-PVTZ
  Basis Set: (AUG-CC-PVTZ AUX)
    Blend: AUG-CC-PVTZ-JKFIT + DEF2-UNIVERSAL-JKFIT

    Orbital Energies [Eh]
    ---------------------

    Doubly Occupied:

       1A    -20.568809     2A     -1.352341     3A     -0.710619
       4A     -0.587773     5A     -0.510494

  @DF-RHF Final Energy:   -76.05955248610925

   => Energetics <=

    Nuclear Repulsion Energy =              9.1483128433398999
    One-Electron Energy =                -122.9556570764354149
    Two-Electron Energy =                  37.7477917469862660
    Total Energy =                        -76.0595524861092542
 Dipole X            :        -23.3985270           23.7891461            0.3906191
 Dipole Y            :        -26.4275046           26.5470200            0.1195155
 Dipole Z            :         15.2306999          -15.9124918           -0.6817918
 Magnitude           :                                                    0.7948002
  Basis Set: (AUG-CC-PVTZ AUX)
    Blend: AUG-CC-PVTZ-RI + DEF2-QZVPP-RI
	 Reference Energy          =     -76.0595524861092542 [Eh]
	 Singles Energy            =      -0.0000000000000000 [Eh]
	 Same-Spin Energy          =      -0.0685666920115274 [Eh]
	 Opposite-Spin Energy      =      -0.2163867522284541 [Eh]
	 Correlation Energy        =      -0.2849534442399816 [Eh]
	 Total Energy              =     -76.3445059303492428 [Eh]

	 ================> DF-SCS-MP2 Energies <==================
	-----------------------------------------------------------
	 SCS Same-Spin Scale       =       0.3333333333333333 [-]
	 SCS Opposite-Spin Scale   =       1.2000000000000000 [-]
	 SCS Same-Spin Energy      =      -0.0228555640038425 [Eh]
	 SCS Opposite-Spin Energy  =      -0.2596641026741450 [Eh]
	 SCS Correlation Energy    =      -0.2825196666779874 [Eh]
	 SCS Total Energy          =     -76.3420721527872388 [Eh]
	-----------------------------------------------------------

*** Psi4 exiting successfully. Buy a developer a beer!
