                               Psi4 1.8.2 release

  ==> Input File <==

--------------------------------------------------------------------------
MEMORY 60 GB

molecule dimer {
1 1
Li         0.000000     0.000000     0.000000
O          1.865459    -0.354169     0.201545
H          2.093877    -0.548368     1.130116
H          2.178545    -1.139580    -0.260272
O          0.175866     1.813815     0.284345
H         -0.515507     2.243153     0.826268
H          0.889311     1.834078     0.952204
O         -0.923465    -0.274645    -1.649009
H         -0.830755     0.486977    -2.218102
H         -1.826401    -0.476768    -1.767965
O         -1.217772    -1.202794     1.092934
H         -1.879809    -1.607959     0.562364
H         -1.655044    -0.939992     1.956239

units ang
no_reorient
no_com
symmetry c1
}

set {
basis        aug-cc-pVTZ
scf_type     df
}

energy("mp2")
--------------------------------------------------------------------------

    Molecular point group: c1

    Geometry (in Angstrom), charge = 1, multiplicity = 1:

       Center              X                  Y                   Z               Mass
    ------------   -----------------  -----------------  -----------------  -----------------
         LI           0.000000000000     0.000000000000     0.000000000000     7.016003436600
         O            1.865459000000    -0.354169000000     0.201545000000    15.994914619570
         H            2.093877000000    -0.548368000000     1.130116000000     1.007825032230
         H            2.178545000000    -1.139580000000    -0.260272000000     1.007825032230
         O            0.175866000000     1.813815000000     0.284345000000    15.994914619570
         H           -0.515507000000     2.243153000000     0.826268000000     1.007825032230
         H            0.889311000000     1.834078000000     0.952204000000     1.007825032230
         O           -0.923465000000    -0.274645000000    -1.649009000000    15.994914619570
         H           -0.830755000000     0.486977000000    -2.218102000000     1.007825032230
         H           -1.826401000000    -0.476768000000    -1.767965000000     1.007825032230
         O           -1.217772000000    -1.202794000000     1.092934000000    15.994914619570
         H           -1.879809000000    -1.607959000000     0.562364000000     1.007825032230
         H           -1.655044000000    -0.939992000000     1.956239000000     1.007825032230

  Charge       = 1
  Multiplicity = 1
  Basis Set: AUG-CC-PVTZ
    Blend: AUG-CC-PVTZ
  Basis Set: (AUG-CC-PVTZ AUX)
    Blend: AUG-CC-PVTZ-JKFIT + DEF2-UNIVERSAL-JKFIT

    Orbital Energies [Eh]
    ---------------------

    Doubly Occupied:

       1A    -20.758032     2A    -20.753518     3A    -20.753041
       4A    -20.748956     5A     -2.528900     6A     -1.552966
       7A     -1.544328     8A     -1.537714     9A     -1.534755
      10A     -0.909893    11A     -0.900245    12A     -0.897137
      13A     -0.881077    14A     -0.806368    15A     -0.799472
      16A     -0.783685    17A     -0.778709    18A     -0.716954
      19A     -0.710161    20A     -0.703022    21A     -0.694860

  @DF-RHF Final Energy:  -311.61792732106068

   => Energetics <=

    Nuclear Repulsion Energy =            165.5505532129994606
    One-Electron Energy =                -751.7493700547353228
    Two-Electron Energy =                 274.5808895206751572
    Total Energy =                       -311.6179273210606766
 Dipole X            :          3.5249478           -4.4315571           -0.9066093
 Dipole Y            :          0.4719869           -0.5495380           -0.0775511
 Dipole Z            :         -0.3367606            1.1704434            0.8336828
 Magnitude           :                                                    1.2340914
  Basis Set: (AUG-CC-PVTZ AUX)
    Blend: AUG-CC-PVTZ-RI + DEF2-QZVPP-RI
	 Reference Energy          =    -311.6179273210606766 [Eh]
	 Singles Energy            =      -0.0000000000000000 [Eh]
	 Same-Spin Energy          =      -0.2764308625348859 [Eh]
	 Opposite-Spin Energy      =      -0.8806345461865159 [Eh]
	 Correlation Energy        =      -1.1570654087214018 [Eh]
	 Total Energy              =    -312.7749927297820705 [Eh]

	 ================> DF-SCS-MP2 Energies <==================
	-----------------------------------------------------------
	 SCS Same-Spin Scale       =       0.3333333333333333 [-]
	 SCS Opposite-Spin Scale   =       1.2000000000000000 [-]
	 SCS Same-Spin Energy      =      -0.0921436208449620 [Eh]
	 SCS Opposite-Spin Energy  =      -1.0567614554238192 [Eh]
	 SCS Correlation Energy    =      -1.1489050762687811 [Eh]
	 SCS Total Energy          =    -312.7668323973294378 [Eh]
	-----------------------------------------------------------

*** Psi4 exiting successfully. Buy a developer a beer!
