                               Psi4 1.8.2 release

  ==> Input File <==

--------------------------------------------------------------------------
MEMORY 60 GB

molecule dimer {
0 1
Gh(Li)     0.000000     0.000000     0.000000
Gh(O)      0.479299    -0.023155     2.040576
Gh(H)      1.401203    -0.047344     1.992724
Gh(H)      0.183700    -0.723857     2.589691
O          1.211465     0.917124    -1.085982
H          1.893267     0.250849    -1.335533
H          1.514507     1.731669    -0.789172
Gh(O)      0.020647    -1.905313    -0.620925
Gh(H)      0.710937    -2.493526    -1.007313
Gh(H)     -0.763325    -2.495709    -0.483083
Gh(O)     -1.823938     0.516909    -0.645776
Gh(H)     -2.499709    -0.060327    -0.255399
Gh(H)     -2.179640     1.399153    -0.823341

units ang
no_reorient
no_com
symmetry c1
}

set {
basis        aug-cc-pVTZ
scf_type     df
}

energy("mp2")
--------------------------------------------------------------------------

    Molecular point group: c1

    Geometry (in Angstrom), charge = 0, multiplicity = 1:

       Center              X                  Y                   Z               Mass
    ------------   -----------------  -----------------  -----------------  -----------------
      Gh(LI)          0.000000000000     0.000000000000     0.000000000000     7.016003436600
      Gh(O)           0.479299000000    -0.023155000000     2.040576000000    15.994914619570
      Gh(H)           1.401203000000    -0.047344000000     1.992724000000     1.007825032230
      Gh(H)           0.183700000000    -0.723857000000     2.589691000000     1.007825032230
         O            1.211465000000     0.917124000000    -1.085982000000    15.994914619570
         H            1.893267000000     0.250849000000    -1.335533000000     1.007825032230
         H            1.514507000000     1.731669000000    -0.789172000000     1.007825032230
      Gh(O)           0.020647000000    -1.905313000000    -0.620925000000    15.994914619570
      Gh(H)           0.710937000000    -2.493526000000    -1.007313000000     1.007825032230
      Gh(H)          -0.763325000000    -2.495709000000    -0.483083000000     1.007825032230
      Gh(O)          -1.823938000000     0.516909000000    -0.645776000000    15.994914619570
      Gh(H)          -2.499709000000    -0.060327000000    -0.255399000000     1.007825032230
      Gh(H)          -2.179640000000     1.399153000000    -0.823341000000     1.007825032230

  Charge       = 0
  Multiplicity = 1
  Basis Set: AUG-CC-PVTZ
    Blend: AUG-CC-PVTZ
  Basis Set: (AUG-CC-PVTZ AUX)
    Blend: AUG-CC-PVTZ-JKFIT + DEF2-UNIVERSAL-JKFIT

    Orbital Energies [Eh]
    ---------------------

    Doubly Occupied:

       1A    -20.559926     2A     -1.348805     3A     -0.743164
       4A     -0.561725     5A     -0.507059

  @DF-RHF Final Energy:   -76.05572967463840

   => Energetics <=

    Nuclear Repulsion Energy =              9.2317416208277834
    One-Electron Energy =                -123.1335806696469035
    Two-Electron Energy =                  37.8461093741807133
    Total Energy =                        -76.0557296746383997
 Dipole X            :        -24.0712665           24.7544560            0.6831896
 Dipole Y            :        -17.5017226           17.6113215            0.1095989
 Dipole Z            :         20.4678466          -20.4327790            0.0350676
 Magnitude           :                                                    0.6928128
  Basis Set: (AUG-CC-PVTZ AUX)
    Blend: AUG-CC-PVTZ-RI + DEF2-QZVPP-RI
	 Reference Energy          =     -76.0557296746383997 [Eh]
	 Singles Energy            =      -0.0000000000000000 [Eh]
	 Same-Spin Energy          =      -0.0682712843882156 [Eh]
	 Opposite-Spin Energy      =      -0.2153126007497089 [Eh]
	 Correlation Energy        =      -0.2835838851379244 [Eh]
	 Total Energy              =     -76.3393135597763290 [Eh]

	 ================> DF-SCS-MP2 Energies <==================
	-----------------------------------------------------------
	 SCS Same-Spin Scale       =       0.3333333333333333 [-]
	 SCS Opposite-Spin Scale   =       1.2000000000000000 [-]
	 SCS Same-Spin Energy      =      -0.0227570947960719 [Eh]
	 SCS Opposite-Spin Energy  =      -0.2583751208996506 [Eh]
	 SCS Correlation Energy    =      -0.2811322156957225 [Eh]
	 SCS Total Energy          =     -76.3368618903341201 [Eh]
	-----------------------------------------------------------

*** Psi4 exiting successfully. Buy a developer a beer!
