                               Psi4 1.8.2 release

  ==> Input File <==

--------------------------------------------------------------------------
MEMORY 60 GB

molecule dimer {
0 1
Gh(Li)     0.000000     0.000000     0.000000
Gh(O)      0.893831    -0.282893     1.641377
Gh(H)      0.718451     0.374103     2.337286
Gh(H)      1.825254    -0.373815     1.492424
O          1.120839     1.073113    -0.996718
H          1.303960     0.761379    -1.868653
H          0.652772     1.948855    -1.098737
Gh(O)     -1.672896     0.785810     0.484622
Gh(H)     -2.287744     0.750544    -0.303037
Gh(H)     -1.709276     1.657872     0.942048

units ang
no_reorient
no_com
symmetry c1
}

set {
basis        aug-cc-pVTZ
scf_type     df
}

energy("mp2")
--------------------------------------------------------------------------

    Molecular point group: c1

    Geometry (in Angstrom), charge = 0, multiplicity = 1:

       Center              X                  Y                   Z               Mass
    ------------   -----------------  -----------------  -----------------  -----------------
      Gh(LI)          0.000000000000     0.000000000000     0.000000000000     7.016003436600
      Gh(O)           0.893831000000    -0.282893000000     1.641377000000    15.994914619570
      Gh(H)           0.718451000000     0.374103000000     2.337286000000     1.007825032230
      Gh(H)           1.825254000000    -0.373815000000     1.492424000000     1.007825032230
         O            1.120839000000     1.073113000000    -0.996718000000    15.994914619570
         H            1.303960000000     0.761379000000    -1.868653000000     1.007825032230
         H            0.652772000000     1.948855000000    -1.098737000000     1.007825032230
      Gh(O)          -1.672896000000     0.785810000000     0.484622000000    15.994914619570
      Gh(H)          -2.287744000000     0.750544000000    -0.303037000000     1.007825032230
      Gh(H)          -1.709276000000     1.657872000000     0.942048000000     1.007825032230

  Charge       = 0
  Multiplicity = 1
  Basis Set: AUG-CC-PVTZ
    Blend: AUG-CC-PVTZ
  Basis Set: (AUG-CC-PVTZ AUX)
    Blend: AUG-CC-PVTZ-JKFIT + DEF2-UNIVERSAL-JKFIT

    Orbital Energies [Eh]
    ---------------------

    Doubly Occupied:

       1A    -20.568285     2A     -1.345668     3A     -0.714401
       4A     -0.577836     5A     -0.508618

  @DF-RHF Final Energy:   -76.05807535950719

   => Energetics <=

    Nuclear Repulsion Energy =              9.0656418751872145
    One-Electron Energy =                -122.8178156265920933
    Two-Electron Energy =                  37.6940983918976968
    Total Energy =                        -76.0580753595071855
 Dipole X            :        -20.8274827           20.6423175           -0.1851652
 Dipole Y            :        -20.9769307           21.3447174            0.3677866
 Dipole Z            :         20.0248665          -20.6757468           -0.6508803
 Magnitude           :                                                    0.7701937
  Basis Set: (AUG-CC-PVTZ AUX)
    Blend: AUG-CC-PVTZ-RI + DEF2-QZVPP-RI
	 Reference Energy          =     -76.0580753595071855 [Eh]
	 Singles Energy            =      -0.0000000000000000 [Eh]
	 Same-Spin Energy          =      -0.0686159964612735 [Eh]
	 Opposite-Spin Energy      =      -0.2165288549426850 [Eh]
	 Correlation Energy        =      -0.2851448514039585 [Eh]
	 Total Energy              =     -76.3432202109111415 [Eh]

	 ================> DF-SCS-MP2 Energies <==================
	-----------------------------------------------------------
	 SCS Same-Spin Scale       =       0.3333333333333333 [-]
	 SCS Opposite-Spin Scale   =       1.2000000000000000 [-]
	 SCS Same-Spin Energy      =      -0.0228719988204245 [Eh]
	 SCS Opposite-Spin Energy  =      -0.2598346259312219 [Eh]
	 SCS Correlation Energy    =      -0.2827066247516464 [Eh]
	 SCS Total Energy          =     -76.3407819842588253 [Eh]
	-----------------------------------------------------------

*** Psi4 exiting successfully. Buy a developer a beer!
