                               Psi4 1.8.2 release

  ==> Input File <==

--------------------------------------------------------------------------
MEMORY 60 GB

molecule dimer {
1 1
Li         0.000000     0.000000     0.000000
O          0.390042    -1.160616     1.490585
H         -0.243993    -1.161479     2.265530
H          1.258902    -1.475505     1.814142
O          0.714006    -0.621924    -1.675532
H          0.563089    -1.496172    -2.023043
H          1.634528    -0.693713    -1.380365
O          0.007185     1.610878     0.603106
H          0.504155     1.802163     1.444361
H          0.266326     2.363747     0.036021
O         -2.100619    -0.120590     0.246977
H         -2.225502     0.165368     1.190818
H         -2.740583    -0.897791     0.115905

units ang
no_reorient
no_com
symmetry c1
}

set {
basis        aug-cc-pVTZ
scf_type     df
}

energy("mp2")
--------------------------------------------------------------------------

    Molecular point group: c1

    Geometry (in Angstrom), charge = 1, multiplicity = 1:

       Center              X                  Y                   Z               Mass
    ------------   -----------------  -----------------  -----------------  -----------------
         LI           0.000000000000     0.000000000000     0.000000000000     7.016003436600
         O            0.390042000000    -1.160616000000     1.490585000000    15.994914619570
         H           -0.243993000000    -1.161479000000     2.265530000000     1.007825032230
         H            1.258902000000    -1.475505000000     1.814142000000     1.007825032230
         O            0.714006000000    -0.621924000000    -1.675532000000    15.994914619570
         H            0.563089000000    -1.496172000000    -2.023043000000     1.007825032230
         H            1.634528000000    -0.693713000000    -1.380365000000     1.007825032230
         O            0.007185000000     1.610878000000     0.603106000000    15.994914619570
         H            0.504155000000     1.802163000000     1.444361000000     1.007825032230
         H            0.266326000000     2.363747000000     0.036021000000     1.007825032230
         O           -2.100619000000    -0.120590000000     0.246977000000    15.994914619570
         H           -2.225502000000     0.165368000000     1.190818000000     1.007825032230
         H           -2.740583000000    -0.897791000000     0.115905000000     1.007825032230

  Charge       = 1
  Multiplicity = 1
  Basis Set: AUG-CC-PVTZ
    Blend: AUG-CC-PVTZ
  Basis Set: (AUG-CC-PVTZ AUX)
    Blend: AUG-CC-PVTZ-JKFIT + DEF2-UNIVERSAL-JKFIT

    Orbital Energies [Eh]
    ---------------------

    Doubly Occupied:

       1A    -20.762185     2A    -20.762109     3A    -20.750481
       4A    -20.734009     5A     -2.525935     6A     -1.543139
       7A     -1.541605     8A     -1.533088     9A     -1.493979
      10A     -0.903392    11A     -0.894963    12A     -0.893883
      13A     -0.858275    14A     -0.807572    15A     -0.789817
      16A     -0.787076    17A     -0.745256    18A     -0.716941
      19A     -0.705735    20A     -0.701166    21A     -0.672188

  @DF-RHF Final Energy:  -311.60527942125378

   => Energetics <=

    Nuclear Repulsion Energy =            165.4638163355102165
    One-Electron Energy =                -751.8925972026778481
    Two-Electron Energy =                 274.8235014459139052
    Total Energy =                       -311.6052794212537833
 Dipole X            :         17.3988439          -16.8150968            0.5837471
 Dipole Y            :          6.4922109           -7.0513203           -0.5591094
 Dipole Z            :        -15.0993040           16.6002179            1.5009139
 Magnitude           :                                                    1.7047307
  Basis Set: (AUG-CC-PVTZ AUX)
    Blend: AUG-CC-PVTZ-RI + DEF2-QZVPP-RI
	 Reference Energy          =    -311.6052794212537833 [Eh]
	 Singles Energy            =      -0.0000000000000000 [Eh]
	 Same-Spin Energy          =      -0.2778142757457092 [Eh]
	 Opposite-Spin Energy      =      -0.8844586538067741 [Eh]
	 Correlation Energy        =      -1.1622729295524834 [Eh]
	 Total Energy              =    -312.7675523508062838 [Eh]

	 ================> DF-SCS-MP2 Energies <==================
	-----------------------------------------------------------
	 SCS Same-Spin Scale       =       0.3333333333333333 [-]
	 SCS Opposite-Spin Scale   =       1.2000000000000000 [-]
	 SCS Same-Spin Energy      =      -0.0926047585819031 [Eh]
	 SCS Opposite-Spin Energy  =      -1.0613503845681289 [Eh]
	 SCS Correlation Energy    =      -1.1539551431500319 [Eh]
	 SCS Total Energy          =    -312.7592345644038119 [Eh]
	-----------------------------------------------------------

*** Psi4 exiting successfully. Buy a developer a beer!
