                               Psi4 1.9 release

  ==> Input File <==

--------------------------------------------------------------------------
MEMORY 60 GB

molecule dimer {
1 1
Li     0.000000     0.000000     0.000000
--
0 1
O     -1.599702    -0.834408    -0.032075
H     -1.671490    -1.753336     0.164015
H     -2.104307    -0.340925     0.605746
O      0.005994     1.410873     1.210917
H     -0.817348     1.609443     0.914181
H     -0.067656     1.285409     2.156336
O      0.490183     0.722640    -1.670961
H      0.003584     0.447548    -2.436389
H      1.403239     0.553948    -1.838663

units ang
no_reorient
no_com
symmetry c1
}

set {
basis        aug-cc-pVTZ
scf_type     df
}

energy("mp2", bsse_type="cp")
--------------------------------------------------------------------------

                               Psi4 1.9 release
    Molecular point group: c1
  Charge       = 0
  Multiplicity = 1
  Basis Set: AUG-CC-PVTZ
    Blend: AUG-CC-PVTZ
  Basis Set: (AUG-CC-PVTZ AUX)
    Blend: AUG-CC-PVTZ-JKFIT + DEF2-UNIVERSAL-JKFIT
  @DF-RHF Final Energy:  -228.16863194783701
    Total Energy =                       -228.1686319478370137
 Dipole X            :         22.1812770          -22.8320074           -0.6507304
 Dipole Y            :        -23.6197860           23.0450721           -0.5747139
 Dipole Z            :          8.6047898           -8.2613648            0.3434249
 Magnitude           :                                                    0.9336417
  Basis Set: (AUG-CC-PVTZ AUX)
    Blend: AUG-CC-PVTZ-RI + DEF2-QZVPP-RI
	 Reference Energy          =    -228.1686319478370137 [Eh]
	 Singles Energy            =      -0.0000000000000000 [Eh]
	 Same-Spin Energy          =      -0.2060556877093032 [Eh]
	 Opposite-Spin Energy      =      -0.6469186247633449 [Eh]
	 Correlation Energy        =      -0.8529743124726481 [Eh]
	 Total Energy              =    -229.0216062603096532 [Eh]
	 SCS Total Energy          =    -229.0136195267894550 [Eh]
                               Psi4 1.9 release
    Molecular point group: c1
  Multiplicity = 1
  Basis Set: AUG-CC-PVTZ
    Blend: AUG-CC-PVTZ
  Basis Set: (AUG-CC-PVTZ AUX)
    Blend: AUG-CC-PVTZ-JKFIT + DEF2-UNIVERSAL-JKFIT
  @DF-RHF Final Energy:    -7.23638458778023
    Total Energy =                         -7.2363845877802309
  Basis Set: (AUG-CC-PVTZ AUX)
	 Singles Energy            =      -0.0000000000000000 [Eh]
	 Same-Spin Energy          =      -0.0000000000000000 [Eh]
	 Opposite-Spin Energy      =      -0.0166843136587803 [Eh]
	 Correlation Energy        =      -0.0166843136587803 [Eh]
	 Total Energy              =      -7.2530689014390113 [Eh]
	 SCS Total Energy          =      -7.2564057641707675 [Eh]
                               Psi4 1.9 release
    Molecular point group: c1

    Geometry (in Bohr), charge = 1, multiplicity = 1:

       Center              X                  Y                   Z               Mass
    ------------   -----------------  -----------------  -----------------  -----------------
         LI           0.000000000000     0.000000000000     0.000000000000     7.016003436600
         O           -3.022998662347    -1.576802596891    -0.060612965474    15.994914619570
         H           -3.158658321442    -3.313324845906     0.309943430467     1.007825032230
         H           -3.976563913884    -0.644254879322     1.144694041592     1.007825032230
         O            0.011327018396     2.666163567803     2.288301490661    15.994914619570
         H           -1.544563869191     3.041406484535     1.727551719097     1.007825032230
         H           -0.127851310744     2.429070969199     4.074884474465     1.007825032230
         O            0.926311621355     1.365591687301    -3.157658656321    15.994914619570
         H            0.006772778434     0.845743147996    -4.604107945078     1.007825032230
         H            2.651737398561     1.046810007745    -3.474569507013     1.007825032230

  Charge       = 1
  Multiplicity = 1
  Basis Set: AUG-CC-PVTZ
    Blend: AUG-CC-PVTZ
  Basis Set: (AUG-CC-PVTZ AUX)
    Blend: AUG-CC-PVTZ-JKFIT + DEF2-UNIVERSAL-JKFIT

    Orbital Energies [Eh]
    ---------------------

    Doubly Occupied:

       1A    -20.785927     2A    -20.771864     3A    -20.762571
       4A     -2.580103     5A     -1.590028     6A     -1.585990
       7A     -1.562491     8A     -0.963976     9A     -0.950601
      10A     -0.931207    11A     -0.826293    12A     -0.817842
      13A     -0.795324    14A     -0.754333    15A     -0.732068
      16A     -0.721233

  @DF-RHF Final Energy:  -235.52898935170634

   => Energetics <=

    Nuclear Repulsion Energy =            102.9978091218227974
    One-Electron Energy =                -522.7898900730133391
    Two-Electron Energy =                 184.2630915994841985
    Total Energy =                       -235.5289893517063433
 Dipole X            :         21.9146982          -22.8320074           -0.9173092
 Dipole Y            :        -23.4264384           23.0450721           -0.3813663
 Dipole Z            :          8.5553086           -8.2613648            0.2939437
 Magnitude           :                                                    1.0360016
  Basis Set: (AUG-CC-PVTZ AUX)
    Blend: AUG-CC-PVTZ-RI + DEF2-QZVPP-RI
	 Reference Energy          =    -235.5289893517063433 [Eh]
	 Singles Energy            =      -0.0000000000000000 [Eh]
	 Same-Spin Energy          =      -0.2049468267579384 [Eh]
	 Opposite-Spin Energy      =      -0.6579569235537054 [Eh]
	 Correlation Energy        =      -0.8629037503116438 [Eh]
	 Total Energy              =    -236.3918931020179741 [Eh]

	 ================> DF-SCS-MP2 Energies <==================
	-----------------------------------------------------------
	 SCS Same-Spin Scale       =       0.3333333333333333 [-]
	 SCS Opposite-Spin Scale   =       1.2000000000000000 [-]
	 SCS Same-Spin Energy      =      -0.0683156089193128 [Eh]
	 SCS Opposite-Spin Energy  =      -0.7895483082644464 [Eh]
	 SCS Correlation Energy    =      -0.8578639171837592 [Eh]
	 SCS Total Energy          =    -236.3868532688900927 [Eh]
	-----------------------------------------------------------

*** Psi4 exiting successfully. Buy a developer a beer!
