                               Psi4 1.8.2 release

  ==> Input File <==

--------------------------------------------------------------------------
MEMORY 60 GB

molecule dimer {
1 1
Li         0.000000     0.000000     0.000000
O          1.299347     0.956897     0.998050
H          1.806091     0.778889     1.791766
H          1.907700     1.397453     0.354713
O          0.788217    -1.762217    -0.333958
H          1.729744    -1.520162    -0.415695
H          0.651676    -2.440430    -1.018478
O         -0.077999     0.850460    -1.769933
H         -0.317966     0.168123    -2.426238
H          0.304412     1.595957    -2.317515
O         -1.921903    -0.461436     0.503499
H         -1.892553    -1.068522     1.298601
H         -2.648587     0.212851     0.631248

units ang
no_reorient
no_com
symmetry c1
}

set {
basis        aug-cc-pVTZ
scf_type     df
}

energy("mp2")
--------------------------------------------------------------------------

    Molecular point group: c1

    Geometry (in Angstrom), charge = 1, multiplicity = 1:

       Center              X                  Y                   Z               Mass
    ------------   -----------------  -----------------  -----------------  -----------------
         LI           0.000000000000     0.000000000000     0.000000000000     7.016003436600
         O            1.299347000000     0.956897000000     0.998050000000    15.994914619570
         H            1.806091000000     0.778889000000     1.791766000000     1.007825032230
         H            1.907700000000     1.397453000000     0.354713000000     1.007825032230
         O            0.788217000000    -1.762217000000    -0.333958000000    15.994914619570
         H            1.729744000000    -1.520162000000    -0.415695000000     1.007825032230
         H            0.651676000000    -2.440430000000    -1.018478000000     1.007825032230
         O           -0.077999000000     0.850460000000    -1.769933000000    15.994914619570
         H           -0.317966000000     0.168123000000    -2.426238000000     1.007825032230
         H            0.304412000000     1.595957000000    -2.317515000000     1.007825032230
         O           -1.921903000000    -0.461436000000     0.503499000000    15.994914619570
         H           -1.892553000000    -1.068522000000     1.298601000000     1.007825032230
         H           -2.648587000000     0.212851000000     0.631248000000     1.007825032230

  Charge       = 1
  Multiplicity = 1
  Basis Set: AUG-CC-PVTZ
    Blend: AUG-CC-PVTZ
  Basis Set: (AUG-CC-PVTZ AUX)
    Blend: AUG-CC-PVTZ-JKFIT + DEF2-UNIVERSAL-JKFIT

    Orbital Energies [Eh]
    ---------------------

    Doubly Occupied:

       1A    -20.756427     2A    -20.752745     3A    -20.750371
       4A    -20.738035     5A     -2.533124     6A     -1.538411
       7A     -1.531381     8A     -1.524327     9A     -1.500089
      10A     -0.906553    11A     -0.893141    12A     -0.884552
      13A     -0.870691    14A     -0.793190    15A     -0.782376
      16A     -0.780613    17A     -0.748693    18A     -0.709967
      19A     -0.702310    20A     -0.687885    21A     -0.679742

  @DF-RHF Final Energy:  -311.62005967258733

   => Energetics <=

    Nuclear Repulsion Energy =            161.6024822364815066
    One-Electron Energy =                -744.3158375064169832
    Two-Electron Energy =                 271.0932955973481739
    Total Energy =                       -311.6200596725873311
 Dipole X            :         -3.2929899            4.2364126            0.9434227
 Dipole Y            :          7.8905059           -7.9485830           -0.0580771
 Dipole Z            :         12.3970435          -13.0775360           -0.6804925
 Magnitude           :                                                    1.1646843
  Basis Set: (AUG-CC-PVTZ AUX)
    Blend: AUG-CC-PVTZ-RI + DEF2-QZVPP-RI
	 Reference Energy          =    -311.6200596725873311 [Eh]
	 Singles Energy            =      -0.0000000000000000 [Eh]
	 Same-Spin Energy          =      -0.2769182384090690 [Eh]
	 Opposite-Spin Energy      =      -0.8826793881323658 [Eh]
	 Correlation Energy        =      -1.1595976265414349 [Eh]
	 Total Energy              =    -312.7796572991287576 [Eh]

	 ================> DF-SCS-MP2 Energies <==================
	-----------------------------------------------------------
	 SCS Same-Spin Scale       =       0.3333333333333333 [-]
	 SCS Opposite-Spin Scale   =       1.2000000000000000 [-]
	 SCS Same-Spin Energy      =      -0.0923060794696897 [Eh]
	 SCS Opposite-Spin Energy  =      -1.0592152657588390 [Eh]
	 SCS Correlation Energy    =      -1.1515213452285287 [Eh]
	 SCS Total Energy          =    -312.7715810178158335 [Eh]
	-----------------------------------------------------------

*** Psi4 exiting successfully. Buy a developer a beer!
