                               Psi4 1.8.2 release

  ==> Input File <==

--------------------------------------------------------------------------
MEMORY 60 GB

molecule dimer {
0 1
Gh(Li)     0.000000     0.000000     0.000000
O         -1.238463    -0.786538     1.271879
H         -2.189206    -1.079607     1.210652
H         -1.227083    -0.332340     2.141372
Gh(O)      1.842945    -0.344527    -0.143005
Gh(H)      2.300244     0.408784    -0.637790
Gh(H)      1.937252    -1.198420    -0.570477
Gh(O)     -0.517595    -0.483751    -1.762158
Gh(H)     -0.134699    -1.226200    -2.237230
Gh(H)     -1.418849    -0.662634    -1.774291

units ang
no_reorient
no_com
symmetry c1
}

set {
basis        aug-cc-pVTZ
scf_type     df
}

energy("mp2")
--------------------------------------------------------------------------

    Molecular point group: c1

    Geometry (in Angstrom), charge = 0, multiplicity = 1:

       Center              X                  Y                   Z               Mass
    ------------   -----------------  -----------------  -----------------  -----------------
      Gh(LI)          0.000000000000     0.000000000000     0.000000000000     7.016003436600
         O           -1.238463000000    -0.786538000000     1.271879000000    15.994914619570
         H           -2.189206000000    -1.079607000000     1.210652000000     1.007825032230
         H           -1.227083000000    -0.332340000000     2.141372000000     1.007825032230
      Gh(O)           1.842945000000    -0.344527000000    -0.143005000000    15.994914619570
      Gh(H)           2.300244000000     0.408784000000    -0.637790000000     1.007825032230
      Gh(H)           1.937252000000    -1.198420000000    -0.570477000000     1.007825032230
      Gh(O)          -0.517595000000    -0.483751000000    -1.762158000000    15.994914619570
      Gh(H)          -0.134699000000    -1.226200000000    -2.237230000000     1.007825032230
      Gh(H)          -1.418849000000    -0.662634000000    -1.774291000000     1.007825032230

  Charge       = 0
  Multiplicity = 1
  Basis Set: AUG-CC-PVTZ
    Blend: AUG-CC-PVTZ
  Basis Set: (AUG-CC-PVTZ AUX)
    Blend: AUG-CC-PVTZ-JKFIT + DEF2-UNIVERSAL-JKFIT

    Orbital Energies [Eh]
    ---------------------

    Doubly Occupied:

       1A    -20.573751     2A     -1.339740     3A     -0.695383
       4A     -0.584304     5A     -0.508696

  @DF-RHF Final Energy:   -76.05648188078172

   => Energetics <=

    Nuclear Repulsion Energy =              8.9075347006623922
    One-Electron Energy =                -122.5242821499774521
    Two-Electron Energy =                  37.5602655685333389
    Total Energy =                        -76.0564818807817176
 Dipole X            :         24.5730196          -25.1786977           -0.6056781
 Dipole Y            :         14.6644565          -14.5589244            0.1055321
 Dipole Z            :        -25.0378785           25.5624311            0.5245527
 Magnitude           :                                                    0.8081698
  Basis Set: (AUG-CC-PVTZ AUX)
    Blend: AUG-CC-PVTZ-RI + DEF2-QZVPP-RI
	 Reference Energy          =     -76.0564818807817176 [Eh]
	 Singles Energy            =      -0.0000000000000000 [Eh]
	 Same-Spin Energy          =      -0.0690336513484367 [Eh]
	 Opposite-Spin Energy      =      -0.2177159808571597 [Eh]
	 Correlation Energy        =      -0.2867496322055963 [Eh]
	 Total Energy              =     -76.3432315129873160 [Eh]

	 ================> DF-SCS-MP2 Energies <==================
	-----------------------------------------------------------
	 SCS Same-Spin Scale       =       0.3333333333333333 [-]
	 SCS Opposite-Spin Scale   =       1.2000000000000000 [-]
	 SCS Same-Spin Energy      =      -0.0230112171161456 [Eh]
	 SCS Opposite-Spin Energy  =      -0.2612591770285916 [Eh]
	 SCS Correlation Energy    =      -0.2842703941447371 [Eh]
	 SCS Total Energy          =     -76.3407522749264587 [Eh]
	-----------------------------------------------------------

*** Psi4 exiting successfully. Buy a developer a beer!
