                               Psi4 1.8.2 release

  ==> Input File <==

--------------------------------------------------------------------------
MEMORY 60 GB

molecule dimer {
0 1
Gh(Li)     0.000000     0.000000     0.000000
Gh(O)      1.624676     0.930347    -0.687789
Gh(H)      1.665506     1.787976    -0.163954
Gh(H)      2.371292     0.410789    -0.401384
Gh(O)      1.173391    -1.680161    -0.212338
Gh(H)      2.036435    -1.610877    -0.690179
Gh(H)      0.993748    -2.598798    -0.378489
Gh(O)     -1.459926     0.080801    -0.837685
Gh(H)     -1.519684     0.169931    -1.784495
Gh(H)     -2.009970    -0.641099    -0.565310
O         -0.236587    -0.097317     1.963066
H          0.470180    -0.606954     2.365849
H         -0.104803     0.790192     2.342656

units ang
no_reorient
no_com
symmetry c1
}

set {
basis        aug-cc-pVTZ
scf_type     df
}

energy("mp2")
--------------------------------------------------------------------------

    Molecular point group: c1

    Geometry (in Angstrom), charge = 0, multiplicity = 1:

       Center              X                  Y                   Z               Mass
    ------------   -----------------  -----------------  -----------------  -----------------
      Gh(LI)          0.000000000000     0.000000000000     0.000000000000     7.016003436600
      Gh(O)           1.624676000000     0.930347000000    -0.687789000000    15.994914619570
      Gh(H)           1.665506000000     1.787976000000    -0.163954000000     1.007825032230
      Gh(H)           2.371292000000     0.410789000000    -0.401384000000     1.007825032230
      Gh(O)           1.173391000000    -1.680161000000    -0.212338000000    15.994914619570
      Gh(H)           2.036435000000    -1.610877000000    -0.690179000000     1.007825032230
      Gh(H)           0.993748000000    -2.598798000000    -0.378489000000     1.007825032230
      Gh(O)          -1.459926000000     0.080801000000    -0.837685000000    15.994914619570
      Gh(H)          -1.519684000000     0.169931000000    -1.784495000000     1.007825032230
      Gh(H)          -2.009970000000    -0.641099000000    -0.565310000000     1.007825032230
         O           -0.236587000000    -0.097317000000     1.963066000000    15.994914619570
         H            0.470180000000    -0.606954000000     2.365849000000     1.007825032230
         H           -0.104803000000     0.790192000000     2.342656000000     1.007825032230

  Charge       = 0
  Multiplicity = 1
  Basis Set: AUG-CC-PVTZ
    Blend: AUG-CC-PVTZ
  Basis Set: (AUG-CC-PVTZ AUX)
    Blend: AUG-CC-PVTZ-JKFIT + DEF2-UNIVERSAL-JKFIT

    Orbital Energies [Eh]
    ---------------------

    Doubly Occupied:

       1A    -20.569448     2A     -1.349731     3A     -0.708934
       4A     -0.586382     5A     -0.510046

  @DF-RHF Final Energy:   -76.05966618852088

   => Energetics <=

    Nuclear Repulsion Energy =              9.1056922000181917
    One-Electron Energy =                -122.8816303907664604
    Two-Electron Energy =                  37.7162720022273916
    Total Energy =                        -76.0596661885208789
 Dipole X            :          3.4384758           -2.8862146            0.5522612
 Dipole Y            :          1.3709297           -1.1249502            0.2459795
 Dipole Z            :        -38.0603328           38.5750418            0.5147089
 Magnitude           :                                                    0.7939922
  Basis Set: (AUG-CC-PVTZ AUX)
    Blend: AUG-CC-PVTZ-RI + DEF2-QZVPP-RI
	 Reference Energy          =     -76.0596661885208789 [Eh]
	 Singles Energy            =      -0.0000000000000000 [Eh]
	 Same-Spin Energy          =      -0.0686442649837463 [Eh]
	 Opposite-Spin Energy      =      -0.2166926977879876 [Eh]
	 Correlation Energy        =      -0.2853369627717338 [Eh]
	 Total Energy              =     -76.3450031512926159 [Eh]

	 ================> DF-SCS-MP2 Energies <==================
	-----------------------------------------------------------
	 SCS Same-Spin Scale       =       0.3333333333333333 [-]
	 SCS Opposite-Spin Scale   =       1.2000000000000000 [-]
	 SCS Same-Spin Energy      =      -0.0228814216612488 [Eh]
	 SCS Opposite-Spin Energy  =      -0.2600312373455850 [Eh]
	 SCS Correlation Energy    =      -0.2829126590068338 [Eh]
	 SCS Total Energy          =     -76.3425788475277187 [Eh]
	-----------------------------------------------------------

*** Psi4 exiting successfully. Buy a developer a beer!
