                               Psi4 1.9 release

  ==> Input File <==

--------------------------------------------------------------------------
MEMORY 60 GB

molecule dimer {
1 1
Li     0.000000     0.000000     0.000000
--
0 1
O      0.479299    -0.023155     2.040576
H      1.401203    -0.047344     1.992724
H      0.183700    -0.723857     2.589691
O      1.211465     0.917124    -1.085982
H      1.893267     0.250849    -1.335533
H      1.514507     1.731669    -0.789172
O      0.020647    -1.905313    -0.620925
H      0.710937    -2.493526    -1.007313
H     -0.763325    -2.495709    -0.483083
O     -1.823938     0.516909    -0.645776
H     -2.499709    -0.060327    -0.255399
H     -2.179640     1.399153    -0.823341

units ang
no_reorient
no_com
symmetry c1
}

set {
basis        aug-cc-pVTZ
scf_type     df
}

energy("mp2", bsse_type="cp")
--------------------------------------------------------------------------

                               Psi4 1.9 release
    Molecular point group: c1
  Charge       = 0
  Multiplicity = 1
  Basis Set: AUG-CC-PVTZ
    Blend: AUG-CC-PVTZ
  Basis Set: (AUG-CC-PVTZ AUX)
    Blend: AUG-CC-PVTZ-JKFIT + DEF2-UNIVERSAL-JKFIT
  @DF-RHF Final Energy:  -304.21034649851867
    Total Energy =                       -304.2103464985186747
 Dipole X            :          1.5332419           -1.2080566            0.3251853
 Dipole Y            :         11.1795414          -12.0839898           -0.9044484
 Dipole Z            :          5.2456364           -4.9289386            0.3166977
 Magnitude           :                                                    1.0119634
  Basis Set: (AUG-CC-PVTZ AUX)
    Blend: AUG-CC-PVTZ-RI + DEF2-QZVPP-RI
	 Reference Energy          =    -304.2103464985186747 [Eh]
	 Singles Energy            =      -0.0000000000000000 [Eh]
	 Same-Spin Energy          =      -0.2764740872473219 [Eh]
	 Opposite-Spin Energy      =      -0.8672944518020473 [Eh]
	 Correlation Energy        =      -1.1437685390493693 [Eh]
	 Total Energy              =    -305.3541150375680218 [Eh]
	 SCS Total Energy          =    -305.3432578697635904 [Eh]
                               Psi4 1.9 release
    Molecular point group: c1
  Multiplicity = 1
  Basis Set: AUG-CC-PVTZ
    Blend: AUG-CC-PVTZ
  Basis Set: (AUG-CC-PVTZ AUX)
    Blend: AUG-CC-PVTZ-JKFIT + DEF2-UNIVERSAL-JKFIT
  @DF-RHF Final Energy:    -7.23638484600337
    Total Energy =                         -7.2363848460033706
  Basis Set: (AUG-CC-PVTZ AUX)
	 Singles Energy            =      -0.0000000000000000 [Eh]
	 Same-Spin Energy          =       0.0000000000000000 [Eh]
	 Opposite-Spin Energy      =      -0.0168114044675868 [Eh]
	 Correlation Energy        =      -0.0168114044675868 [Eh]
	 Total Energy              =      -7.2531962504709568 [Eh]
	 SCS Total Energy          =      -7.2565585313644743 [Eh]
                               Psi4 1.9 release
    Molecular point group: c1

    Geometry (in Bohr), charge = 1, multiplicity = 1:

       Center              X                  Y                   Z               Mass
    ------------   -----------------  -----------------  -----------------  -----------------
         LI           0.000000000000     0.000000000000     0.000000000000     7.016003436600
         O            0.905743842206    -0.043756608435     3.856129778182    15.994914619570
         H            2.647889916170    -0.089467193684     3.765702603627     1.007825032230
         H            0.347142689247    -1.367891483996     4.893806739563     1.007825032230
         O            2.289337060578     1.733113183084    -2.052208557177    15.994914619570
         H            3.577756112367     0.474035908845    -2.523791601511     1.007825032230
         H            2.862003445089     3.272380149945    -1.491318945880     1.007825032230
         O            0.039017175312    -3.600519753274    -1.173378194450    15.994914619570
         H            1.343476222455    -4.712081226708    -1.903545692613     1.007825032230
         H           -1.442475194715    -4.716206498840    -0.912894565865     1.007825032230
         O           -3.446743289815     0.976816441784    -1.220339778394    15.994914619570
         H           -4.723765403342    -0.114001507970    -0.482634162716     1.007825032230
         H           -4.118922652093     2.644015977613    -1.555888997861     1.007825032230

  Charge       = 1
  Multiplicity = 1
  Basis Set: AUG-CC-PVTZ
    Blend: AUG-CC-PVTZ
  Basis Set: (AUG-CC-PVTZ AUX)
    Blend: AUG-CC-PVTZ-JKFIT + DEF2-UNIVERSAL-JKFIT

    Orbital Energies [Eh]
    ---------------------

    Doubly Occupied:

       1A    -20.755753     2A    -20.747689     3A    -20.738822
       4A    -20.737292     5A     -2.536886     6A     -1.545859
       7A     -1.543418     8A     -1.527233     9A     -1.518639
      10A     -0.934385    11A     -0.920716    12A     -0.898639
      13A     -0.886995    14A     -0.792175    15A     -0.773206
      16A     -0.771727    17A     -0.754254    18A     -0.708888
      19A     -0.703097    20A     -0.689985    21A     -0.684693

  @DF-RHF Final Energy:  -311.61890774474909

   => Energetics <=

    Nuclear Repulsion Energy =            160.9681367833841250
    One-Electron Energy =                -742.8333810060596534
    Two-Electron Energy =                 270.2463364779264339
    Total Energy =                       -311.6189077447490945
 Dipole X            :          1.5455801           -1.2080566            0.3375235
 Dipole Y            :         11.0440768          -12.0839898           -1.0399129
 Dipole Z            :          5.1609629           -4.9289386            0.2320242
 Magnitude           :                                                    1.1176656
  Basis Set: (AUG-CC-PVTZ AUX)
    Blend: AUG-CC-PVTZ-RI + DEF2-QZVPP-RI
	 Reference Energy          =    -311.6189077447490945 [Eh]
	 Singles Energy            =      -0.0000000000000000 [Eh]
	 Same-Spin Energy          =      -0.2748766766629103 [Eh]
	 Opposite-Spin Energy      =      -0.8769438963048032 [Eh]
	 Correlation Energy        =      -1.1518205729677136 [Eh]
	 Total Energy              =    -312.7707283177168165 [Eh]

	 ================> DF-SCS-MP2 Energies <==================
	-----------------------------------------------------------
	 SCS Same-Spin Scale       =       0.3333333333333333 [-]
	 SCS Opposite-Spin Scale   =       1.2000000000000000 [-]
	 SCS Same-Spin Energy      =      -0.0916255588876368 [Eh]
	 SCS Opposite-Spin Energy  =      -1.0523326755657638 [Eh]
	 SCS Correlation Energy    =      -1.1439582344534005 [Eh]
	 SCS Total Energy          =    -312.7628659792025019 [Eh]
	-----------------------------------------------------------

*** Psi4 exiting successfully. Buy a developer a beer!
