                               Psi4 1.8.2 release

  ==> Input File <==

--------------------------------------------------------------------------
MEMORY 60 GB

molecule dimer {
0 1
Gh(Li)     0.000000     0.000000     0.000000
O         -0.428160     1.212107    -1.751504
H          0.387713     1.643643    -1.963741
H         -1.121361     1.575916    -2.325391
Gh(O)      1.781596    -0.020473     0.442877
Gh(H)      2.189669     0.324703     1.208714
Gh(H)      2.203752    -0.870775     0.253747
Gh(O)     -1.533512     0.539063     0.971746
Gh(H)     -2.298372     0.645210     0.470736
Gh(H)     -1.196049     1.459017     1.138273
Gh(O)     -1.049215    -1.406233    -0.742604
Gh(H)     -1.939552    -1.034779    -0.873238
Gh(H)     -1.113130    -2.374025    -0.865088

units ang
no_reorient
no_com
symmetry c1
}

set {
basis        aug-cc-pVTZ
scf_type     df
}

energy("mp2")
--------------------------------------------------------------------------

    Molecular point group: c1

    Geometry (in Angstrom), charge = 0, multiplicity = 1:

       Center              X                  Y                   Z               Mass
    ------------   -----------------  -----------------  -----------------  -----------------
      Gh(LI)          0.000000000000     0.000000000000     0.000000000000     7.016003436600
         O           -0.428160000000     1.212107000000    -1.751504000000    15.994914619570
         H            0.387713000000     1.643643000000    -1.963741000000     1.007825032230
         H           -1.121361000000     1.575916000000    -2.325391000000     1.007825032230
      Gh(O)           1.781596000000    -0.020473000000     0.442877000000    15.994914619570
      Gh(H)           2.189669000000     0.324703000000     1.208714000000     1.007825032230
      Gh(H)           2.203752000000    -0.870775000000     0.253747000000     1.007825032230
      Gh(O)          -1.533512000000     0.539063000000     0.971746000000    15.994914619570
      Gh(H)          -2.298372000000     0.645210000000     0.470736000000     1.007825032230
      Gh(H)          -1.196049000000     1.459017000000     1.138273000000     1.007825032230
      Gh(O)          -1.049215000000    -1.406233000000    -0.742604000000    15.994914619570
      Gh(H)          -1.939552000000    -1.034779000000    -0.873238000000     1.007825032230
      Gh(H)          -1.113130000000    -2.374025000000    -0.865088000000     1.007825032230

  Charge       = 0
  Multiplicity = 1
  Basis Set: AUG-CC-PVTZ
    Blend: AUG-CC-PVTZ
  Basis Set: (AUG-CC-PVTZ AUX)
    Blend: AUG-CC-PVTZ-JKFIT + DEF2-UNIVERSAL-JKFIT

    Orbital Energies [Eh]
    ---------------------

    Doubly Occupied:

       1A    -20.565596     2A     -1.350177     3A     -0.723788
       4A     -0.577369     5A     -0.509076

  @DF-RHF Final Energy:   -76.06022168151706

   => Energetics <=

    Nuclear Repulsion Energy =              9.1720260371167353
    One-Electron Energy =                -123.0124789348893302
    Two-Electron Energy =                  37.7802312162555367
    Total Energy =                        -76.0602216815170493
 Dipole X            :          7.9450868           -7.8592349            0.0858519
 Dipole Y            :        -23.8741509           24.4084869            0.5343360
 Dipole Z            :         34.0570741          -34.5841877           -0.5271137
 Magnitude           :                                                    0.7554696
  Basis Set: (AUG-CC-PVTZ AUX)
    Blend: AUG-CC-PVTZ-RI + DEF2-QZVPP-RI
	 Reference Energy          =     -76.0602216815170635 [Eh]
	 Singles Energy            =      -0.0000000000000000 [Eh]
	 Same-Spin Energy          =      -0.0683860193825853 [Eh]
	 Opposite-Spin Energy      =      -0.2157717149017386 [Eh]
	 Correlation Energy        =      -0.2841577342843239 [Eh]
	 Total Energy              =     -76.3443794158013844 [Eh]

	 ================> DF-SCS-MP2 Energies <==================
	-----------------------------------------------------------
	 SCS Same-Spin Scale       =       0.3333333333333333 [-]
	 SCS Opposite-Spin Scale   =       1.2000000000000000 [-]
	 SCS Same-Spin Energy      =      -0.0227953397941951 [Eh]
	 SCS Opposite-Spin Energy  =      -0.2589260578820863 [Eh]
	 SCS Correlation Energy    =      -0.2817213976762815 [Eh]
	 SCS Total Energy          =     -76.3419430791933422 [Eh]
	-----------------------------------------------------------

*** Psi4 exiting successfully. Buy a developer a beer!
