                               Psi4 1.8.2 release

  ==> Input File <==

--------------------------------------------------------------------------
MEMORY 60 GB

molecule dimer {
0 1
Gh(Li)     0.000000     0.000000     0.000000
Gh(O)     -0.156941     0.958467     1.896046
Gh(H)     -1.044531     1.337985     1.806280
Gh(H)      0.472478     1.694438     2.070088
Gh(O)      1.878977    -0.036473    -0.312733
Gh(H)      2.472733     0.679982    -0.021938
Gh(H)      2.035110    -0.049355    -1.243801
Gh(O)     -0.712229     1.599462    -0.924556
Gh(H)     -0.973922     2.332904    -0.344616
Gh(H)     -1.404245     1.668289    -1.576126
O         -0.193645    -1.095916    -1.492069
H         -1.073154    -1.433089    -1.520338
H          0.383632    -1.886412    -1.626908

units ang
no_reorient
no_com
symmetry c1
}

set {
basis        aug-cc-pVTZ
scf_type     df
}

energy("mp2")
--------------------------------------------------------------------------

    Molecular point group: c1

    Geometry (in Angstrom), charge = 0, multiplicity = 1:

       Center              X                  Y                   Z               Mass
    ------------   -----------------  -----------------  -----------------  -----------------
      Gh(LI)          0.000000000000     0.000000000000     0.000000000000     7.016003436600
      Gh(O)          -0.156941000000     0.958467000000     1.896046000000    15.994914619570
      Gh(H)          -1.044531000000     1.337985000000     1.806280000000     1.007825032230
      Gh(H)           0.472478000000     1.694438000000     2.070088000000     1.007825032230
      Gh(O)           1.878977000000    -0.036473000000    -0.312733000000    15.994914619570
      Gh(H)           2.472733000000     0.679982000000    -0.021938000000     1.007825032230
      Gh(H)           2.035110000000    -0.049355000000    -1.243801000000     1.007825032230
      Gh(O)          -0.712229000000     1.599462000000    -0.924556000000    15.994914619570
      Gh(H)          -0.973922000000     2.332904000000    -0.344616000000     1.007825032230
      Gh(H)          -1.404245000000     1.668289000000    -1.576126000000     1.007825032230
         O           -0.193645000000    -1.095916000000    -1.492069000000    15.994914619570
         H           -1.073154000000    -1.433089000000    -1.520338000000     1.007825032230
         H            0.383632000000    -1.886412000000    -1.626908000000     1.007825032230

  Charge       = 0
  Multiplicity = 1
  Basis Set: AUG-CC-PVTZ
    Blend: AUG-CC-PVTZ
  Basis Set: (AUG-CC-PVTZ AUX)
    Blend: AUG-CC-PVTZ-JKFIT + DEF2-UNIVERSAL-JKFIT

    Orbital Energies [Eh]
    ---------------------

    Doubly Occupied:

       1A    -20.568110     2A     -1.349674     3A     -0.714010
       4A     -0.582613     5A     -0.509612

  @DF-RHF Final Energy:   -76.05914817789225

   => Energetics <=

    Nuclear Repulsion Energy =              9.1228754266702889
    One-Electron Energy =                -122.9160063630415607
    Two-Electron Energy =                  37.7339827584790157
    Total Energy =                        -76.0591481778922542
 Dipole X            :          4.0228429           -4.2304959           -0.2076530
 Dipole Y            :         22.0963318          -22.8407965           -0.7444647
 Dipole Z            :         28.3966254          -28.5042472           -0.1076218
 Magnitude           :                                                    0.7803396
  Basis Set: (AUG-CC-PVTZ AUX)
    Blend: AUG-CC-PVTZ-RI + DEF2-QZVPP-RI
	 Reference Energy          =     -76.0591481778922542 [Eh]
	 Singles Energy            =      -0.0000000000000000 [Eh]
	 Same-Spin Energy          =      -0.0685707396726707 [Eh]
	 Opposite-Spin Energy      =      -0.2165752439053364 [Eh]
	 Correlation Energy        =      -0.2851459835780071 [Eh]
	 Total Energy              =     -76.3442941614702590 [Eh]

	 ================> DF-SCS-MP2 Energies <==================
	-----------------------------------------------------------
	 SCS Same-Spin Scale       =       0.3333333333333333 [-]
	 SCS Opposite-Spin Scale   =       1.2000000000000000 [-]
	 SCS Same-Spin Energy      =      -0.0228569132242236 [Eh]
	 SCS Opposite-Spin Energy  =      -0.2598902926864037 [Eh]
	 SCS Correlation Energy    =      -0.2827472059106273 [Eh]
	 SCS Total Energy          =     -76.3418953838028784 [Eh]
	-----------------------------------------------------------

*** Psi4 exiting successfully. Buy a developer a beer!
