                               Psi4 1.8.2 release

  ==> Input File <==

--------------------------------------------------------------------------
MEMORY 60 GB

molecule dimer {
0 1
Gh(Li)     0.000000     0.000000     0.000000
O          1.023000     0.620441     1.583861
H          1.455219     0.253028     2.357655
H          1.073738     1.617144     1.656624
Gh(O)      0.990010    -1.210458    -1.226372
Gh(H)      0.996585    -0.767777    -2.058657
Gh(H)      0.892016    -2.180068    -1.332978
Gh(O)     -0.199397     1.811129    -0.706428
Gh(H)     -0.471302     2.120332    -1.569275
Gh(H)     -0.590440     2.361535    -0.067867

units ang
no_reorient
no_com
symmetry c1
}

set {
basis        aug-cc-pVTZ
scf_type     df
}

energy("mp2")
--------------------------------------------------------------------------

    Molecular point group: c1

    Geometry (in Angstrom), charge = 0, multiplicity = 1:

       Center              X                  Y                   Z               Mass
    ------------   -----------------  -----------------  -----------------  -----------------
      Gh(LI)          0.000000000000     0.000000000000     0.000000000000     7.016003436600
         O            1.023000000000     0.620441000000     1.583861000000    15.994914619570
         H            1.455219000000     0.253028000000     2.357655000000     1.007825032230
         H            1.073738000000     1.617144000000     1.656624000000     1.007825032230
      Gh(O)           0.990010000000    -1.210458000000    -1.226372000000    15.994914619570
      Gh(H)           0.996585000000    -0.767777000000    -2.058657000000     1.007825032230
      Gh(H)           0.892016000000    -2.180068000000    -1.332978000000     1.007825032230
      Gh(O)          -0.199397000000     1.811129000000    -0.706428000000    15.994914619570
      Gh(H)          -0.471302000000     2.120332000000    -1.569275000000     1.007825032230
      Gh(H)          -0.590440000000     2.361535000000    -0.067867000000     1.007825032230

  Charge       = 0
  Multiplicity = 1
  Basis Set: AUG-CC-PVTZ
    Blend: AUG-CC-PVTZ
  Basis Set: (AUG-CC-PVTZ AUX)
    Blend: AUG-CC-PVTZ-JKFIT + DEF2-UNIVERSAL-JKFIT

    Orbital Energies [Eh]
    ---------------------

    Doubly Occupied:

       1A    -20.569528     2A     -1.340405     3A     -0.710892
       4A     -0.574687     5A     -0.507584

  @DF-RHF Final Energy:   -76.05736212000832

   => Energetics <=

    Nuclear Repulsion Energy =              8.9778221839206473
    One-Electron Energy =                -122.6641730519680351
    Two-Electron Energy =                  37.6289887480390632
    Total Energy =                        -76.0573621200083210
 Dipole X            :        -19.9235721           20.2445547            0.3209826
 Dipole Y            :        -12.5031756           12.9138214            0.4106458
 Dipole Z            :        -30.9675254           31.5303960            0.5628706
 Magnitude           :                                                    0.7671265
  Basis Set: (AUG-CC-PVTZ AUX)
    Blend: AUG-CC-PVTZ-RI + DEF2-QZVPP-RI
	 Reference Energy          =     -76.0573621200083210 [Eh]
	 Singles Energy            =      -0.0000000000000000 [Eh]
	 Same-Spin Energy          =      -0.0687477081936219 [Eh]
	 Opposite-Spin Energy      =      -0.2168451659819419 [Eh]
	 Correlation Energy        =      -0.2855928741755638 [Eh]
	 Total Energy              =     -76.3429549941838843 [Eh]

	 ================> DF-SCS-MP2 Energies <==================
	-----------------------------------------------------------
	 SCS Same-Spin Scale       =       0.3333333333333333 [-]
	 SCS Opposite-Spin Scale   =       1.2000000000000000 [-]
	 SCS Same-Spin Energy      =      -0.0229159027312073 [Eh]
	 SCS Opposite-Spin Energy  =      -0.2602141991783303 [Eh]
	 SCS Correlation Energy    =      -0.2831301019095376 [Eh]
	 SCS Total Energy          =     -76.3404922219178559 [Eh]
	-----------------------------------------------------------

*** Psi4 exiting successfully. Buy a developer a beer!
