                               Psi4 1.8.2 release

  ==> Input File <==

--------------------------------------------------------------------------
MEMORY 60 GB

molecule dimer {
1 1
Li         0.000000     0.000000     0.000000
Gh(O)      0.266584     0.944052    -1.709450
Gh(H)      0.979641     0.533414    -2.222257
Gh(H)      0.507280     1.865020    -1.611472
Gh(O)      1.380118    -0.496219     0.894533
Gh(H)      1.295780    -0.523941     1.838069
Gh(H)      1.512954    -1.400379     0.559638
Gh(O)     -1.093945     1.554286     0.618531
Gh(H)     -1.031922     1.943137     1.492156
Gh(H)     -1.412017     2.309903     0.160618
Gh(O)     -1.327662    -1.629141    -0.158356
Gh(H)     -2.193596    -1.227361    -0.264880
Gh(H)     -1.324595    -2.080127     0.693064

units ang
no_reorient
no_com
symmetry c1
}

set {
basis        aug-cc-pVTZ
scf_type     df
}

energy("mp2")
--------------------------------------------------------------------------

    Molecular point group: c1

    Geometry (in Angstrom), charge = 1, multiplicity = 1:

       Center              X                  Y                   Z               Mass
    ------------   -----------------  -----------------  -----------------  -----------------
         LI           0.000000000000     0.000000000000     0.000000000000     7.016003436600
      Gh(O)           0.266584000000     0.944052000000    -1.709450000000    15.994914619570
      Gh(H)           0.979641000000     0.533414000000    -2.222257000000     1.007825032230
      Gh(H)           0.507280000000     1.865020000000    -1.611472000000     1.007825032230
      Gh(O)           1.380118000000    -0.496219000000     0.894533000000    15.994914619570
      Gh(H)           1.295780000000    -0.523941000000     1.838069000000     1.007825032230
      Gh(H)           1.512954000000    -1.400379000000     0.559638000000     1.007825032230
      Gh(O)          -1.093945000000     1.554286000000     0.618531000000    15.994914619570
      Gh(H)          -1.031922000000     1.943137000000     1.492156000000     1.007825032230
      Gh(H)          -1.412017000000     2.309903000000     0.160618000000     1.007825032230
      Gh(O)          -1.327662000000    -1.629141000000    -0.158356000000    15.994914619570
      Gh(H)          -2.193596000000    -1.227361000000    -0.264880000000     1.007825032230
      Gh(H)          -1.324595000000    -2.080127000000     0.693064000000     1.007825032230

  Charge       = 1
  Multiplicity = 1
  Basis Set: AUG-CC-PVTZ
    Blend: AUG-CC-PVTZ
  Basis Set: (AUG-CC-PVTZ AUX)
    Blend: AUG-CC-PVTZ-JKFIT + DEF2-UNIVERSAL-JKFIT

    Orbital Energies [Eh]
    ---------------------

    Doubly Occupied:

       1A     -2.792353

  @DF-RHF Final Energy:    -7.23638488612529

   => Energetics <=

    Nuclear Repulsion Energy =              0.0000000000000000
    One-Electron Energy =                  -8.8880645983817654
    Two-Electron Energy =                   1.6516797122564788
    Total Energy =                         -7.2363848861252862
 Dipole X            :         -0.0000089            0.0000000           -0.0000089
 Dipole Y            :          0.0000032            0.0000000            0.0000032
 Dipole Z            :         -0.0000040            0.0000000           -0.0000040
 Magnitude           :                                                    0.0000103
  Basis Set: (AUG-CC-PVTZ AUX)
    Blend: AUG-CC-PVTZ-RI + DEF2-QZVPP-RI
	 Reference Energy          =      -7.2363848861252862 [Eh]
	 Singles Energy            =      -0.0000000000000000 [Eh]
	 Same-Spin Energy          =       0.0000000000000000 [Eh]
	 Opposite-Spin Energy      =      -0.0172526108782766 [Eh]
	 Correlation Energy        =      -0.0172526108782766 [Eh]
	 Total Energy              =      -7.2536374970035631 [Eh]

	 ================> DF-SCS-MP2 Energies <==================
	-----------------------------------------------------------
	 SCS Same-Spin Scale       =       0.3333333333333333 [-]
	 SCS Opposite-Spin Scale   =       1.2000000000000000 [-]
	 SCS Same-Spin Energy      =       0.0000000000000000 [Eh]
	 SCS Opposite-Spin Energy  =      -0.0207031330539319 [Eh]
	 SCS Correlation Energy    =      -0.0207031330539319 [Eh]
	 SCS Total Energy          =      -7.2570880191792178 [Eh]
	-----------------------------------------------------------

*** Psi4 exiting successfully. Buy a developer a beer!
