                               Psi4 1.8.2 release

  ==> Input File <==

--------------------------------------------------------------------------
MEMORY 60 GB

molecule dimer {
0 1
Gh(Li)     0.000000     0.000000     0.000000
Gh(O)     -0.398786    -1.589021    -1.083653
Gh(H)      0.104594    -1.896182    -1.796161
Gh(H)     -0.340299    -2.316178    -0.427544
O          1.473191    -0.539863     0.795211
H          2.355782    -0.467384     0.412253
H          1.505819    -1.406148     1.233169
Gh(O)      0.501553     1.463017    -1.262223
Gh(H)     -0.051961     1.314977    -2.033203
Gh(H)      1.407051     1.606647    -1.681690
Gh(O)     -1.690669     0.465935     0.912623
Gh(H)     -1.690927     0.654825     1.943650
Gh(H)     -2.533637     0.109345     0.695255

units ang
no_reorient
no_com
symmetry c1
}

set {
basis        aug-cc-pVTZ
scf_type     df
}

energy("mp2")
--------------------------------------------------------------------------

    Molecular point group: c1

    Geometry (in Angstrom), charge = 0, multiplicity = 1:

       Center              X                  Y                   Z               Mass
    ------------   -----------------  -----------------  -----------------  -----------------
      Gh(LI)          0.000000000000     0.000000000000     0.000000000000     7.016003436600
      Gh(O)          -0.398786000000    -1.589021000000    -1.083653000000    15.994914619570
      Gh(H)           0.104594000000    -1.896182000000    -1.796161000000     1.007825032230
      Gh(H)          -0.340299000000    -2.316178000000    -0.427544000000     1.007825032230
         O            1.473191000000    -0.539863000000     0.795211000000    15.994914619570
         H            2.355782000000    -0.467384000000     0.412253000000     1.007825032230
         H            1.505819000000    -1.406148000000     1.233169000000     1.007825032230
      Gh(O)           0.501553000000     1.463017000000    -1.262223000000    15.994914619570
      Gh(H)          -0.051961000000     1.314977000000    -2.033203000000     1.007825032230
      Gh(H)           1.407051000000     1.606647000000    -1.681690000000     1.007825032230
      Gh(O)          -1.690669000000     0.465935000000     0.912623000000    15.994914619570
      Gh(H)          -1.690927000000     0.654825000000     1.943650000000     1.007825032230
      Gh(H)          -2.533637000000     0.109345000000     0.695255000000     1.007825032230

  Charge       = 0
  Multiplicity = 1
  Basis Set: AUG-CC-PVTZ
    Blend: AUG-CC-PVTZ
  Basis Set: (AUG-CC-PVTZ AUX)
    Blend: AUG-CC-PVTZ-JKFIT + DEF2-UNIVERSAL-JKFIT

    Orbital Energies [Eh]
    ---------------------

    Doubly Occupied:

       1A    -20.569751     2A     -1.349430     3A     -0.707798
       4A     -0.586827     5A     -0.510045

  @DF-RHF Final Energy:   -76.05961607829317

   => Energetics <=

    Nuclear Repulsion Energy =              9.0971637713620588
    One-Electron Energy =                -122.8658549345806108
    Two-Electron Energy =                  37.7090750849253666
    Total Energy =                        -76.0596160782931747
 Dipole X            :        -28.9671832           29.5687885            0.6016052
 Dipole Y            :         11.1816320          -11.7020081           -0.5203761
 Dipole Z            :        -15.0956622           15.1312450            0.0355827
 Magnitude           :                                                    0.7962326
  Basis Set: (AUG-CC-PVTZ AUX)
    Blend: AUG-CC-PVTZ-RI + DEF2-QZVPP-RI
	 Reference Energy          =     -76.0596160782931747 [Eh]
	 Singles Energy            =      -0.0000000000000000 [Eh]
	 Same-Spin Energy          =      -0.0686757242804501 [Eh]
	 Opposite-Spin Energy      =      -0.2167873093725961 [Eh]
	 Correlation Energy        =      -0.2854630336530462 [Eh]
	 Total Energy              =     -76.3450791119462195 [Eh]

	 ================> DF-SCS-MP2 Energies <==================
	-----------------------------------------------------------
	 SCS Same-Spin Scale       =       0.3333333333333333 [-]
	 SCS Opposite-Spin Scale   =       1.2000000000000000 [-]
	 SCS Same-Spin Energy      =      -0.0228919080934834 [Eh]
	 SCS Opposite-Spin Energy  =      -0.2601447712471153 [Eh]
	 SCS Correlation Energy    =      -0.2830366793405987 [Eh]
	 SCS Total Energy          =     -76.3426527576337719 [Eh]
	-----------------------------------------------------------

*** Psi4 exiting successfully. Buy a developer a beer!
