                               Psi4 1.8.2 release

  ==> Input File <==

--------------------------------------------------------------------------
MEMORY 60 GB

molecule dimer {
1 1
Li         0.000000     0.000000     0.000000
O          0.929126    -1.519541     0.562943
H          0.754313    -1.902667     1.397259
H          1.807708    -1.139414     0.634185
O         -0.504010     0.489688    -1.758484
H         -0.791966    -0.159959    -2.448101
H         -0.336521     1.310441    -2.247888
O          0.902574     1.789651     0.523627
H          1.832881     2.030759     0.319652
H          0.670851     2.026998     1.405913
O         -1.475233     0.100022     1.458728
H         -1.332384     0.611866     2.288554
H         -2.406648     0.065706     1.327701

units ang
no_reorient
no_com
symmetry c1
}

set {
basis        aug-cc-pVTZ
scf_type     df
}

energy("mp2")
--------------------------------------------------------------------------

    Molecular point group: c1

    Geometry (in Angstrom), charge = 1, multiplicity = 1:

       Center              X                  Y                   Z               Mass
    ------------   -----------------  -----------------  -----------------  -----------------
         LI           0.000000000000     0.000000000000     0.000000000000     7.016003436600
         O            0.929126000000    -1.519541000000     0.562943000000    15.994914619570
         H            0.754313000000    -1.902667000000     1.397259000000     1.007825032230
         H            1.807708000000    -1.139414000000     0.634185000000     1.007825032230
         O           -0.504010000000     0.489688000000    -1.758484000000    15.994914619570
         H           -0.791966000000    -0.159959000000    -2.448101000000     1.007825032230
         H           -0.336521000000     1.310441000000    -2.247888000000     1.007825032230
         O            0.902574000000     1.789651000000     0.523627000000    15.994914619570
         H            1.832881000000     2.030759000000     0.319652000000     1.007825032230
         H            0.670851000000     2.026998000000     1.405913000000     1.007825032230
         O           -1.475233000000     0.100022000000     1.458728000000    15.994914619570
         H           -1.332384000000     0.611866000000     2.288554000000     1.007825032230
         H           -2.406648000000     0.065706000000     1.327701000000     1.007825032230

  Charge       = 1
  Multiplicity = 1
  Basis Set: AUG-CC-PVTZ
    Blend: AUG-CC-PVTZ
  Basis Set: (AUG-CC-PVTZ AUX)
    Blend: AUG-CC-PVTZ-JKFIT + DEF2-UNIVERSAL-JKFIT

    Orbital Energies [Eh]
    ---------------------

    Doubly Occupied:

       1A    -20.748180     2A    -20.746816     3A    -20.746178
       4A    -20.744000     5A     -2.533063     6A     -1.547805
       7A     -1.534682     8A     -1.529719     9A     -1.523485
      10A     -0.915071    11A     -0.911195    12A     -0.895637
      13A     -0.884468    14A     -0.793672    15A     -0.786679
      16A     -0.776148    17A     -0.763282    18A     -0.710898
      19A     -0.696298    20A     -0.693384    21A     -0.687468

  @DF-RHF Final Energy:  -311.62597995552215

   => Energetics <=

    Nuclear Repulsion Energy =            162.3684968311706598
    One-Electron Energy =                -745.6526927151911650
    Two-Electron Energy =                 271.6582159284983504
    Total Energy =                       -311.6259799555221548
 Dipole X            :          2.1384348           -1.8559189            0.2825159
 Dipole Y            :        -17.4856952           18.3724654            0.8867702
 Dipole Z            :        -16.1373943           16.9542203            0.8168260
 Magnitude           :                                                    1.2382978
  Basis Set: (AUG-CC-PVTZ AUX)
    Blend: AUG-CC-PVTZ-RI + DEF2-QZVPP-RI
	 Reference Energy          =    -311.6259799555221548 [Eh]
	 Singles Energy            =      -0.0000000000000000 [Eh]
	 Same-Spin Energy          =      -0.2753119943250108 [Eh]
	 Opposite-Spin Energy      =      -0.8782205026139590 [Eh]
	 Correlation Energy        =      -1.1535324969389698 [Eh]
	 Total Energy              =    -312.7795124524611197 [Eh]

	 ================> DF-SCS-MP2 Energies <==================
	-----------------------------------------------------------
	 SCS Same-Spin Scale       =       0.3333333333333333 [-]
	 SCS Opposite-Spin Scale   =       1.2000000000000000 [-]
	 SCS Same-Spin Energy      =      -0.0917706647750036 [Eh]
	 SCS Opposite-Spin Energy  =      -1.0538646031367507 [Eh]
	 SCS Correlation Energy    =      -1.1456352679117543 [Eh]
	 SCS Total Energy          =    -312.7716152234339120 [Eh]
	-----------------------------------------------------------

*** Psi4 exiting successfully. Buy a developer a beer!
