                               Psi4 1.8.2 release

  ==> Input File <==

--------------------------------------------------------------------------
MEMORY 60 GB

molecule dimer {
1 1
Li         0.000000     0.000000     0.000000
O         -1.588684    -0.034020     1.157610
H         -1.734204     0.297682     2.041051
H         -2.231280    -0.760891     1.129331
O          0.752858    -1.834769    -0.351999
H          0.203711    -2.620276    -0.124323
H          1.157037    -2.060091    -1.215316
O          0.239663     0.677904    -1.813970
H          0.022632     0.033005    -2.467301
H         -0.269429     1.542115    -2.063452

units ang
no_reorient
no_com
symmetry c1
}

set {
basis        aug-cc-pVTZ
scf_type     df
}

energy("mp2")
--------------------------------------------------------------------------

    Molecular point group: c1

    Geometry (in Angstrom), charge = 1, multiplicity = 1:

       Center              X                  Y                   Z               Mass
    ------------   -----------------  -----------------  -----------------  -----------------
         LI           0.000000000000     0.000000000000     0.000000000000     7.016003436600
         O           -1.588684000000    -0.034020000000     1.157610000000    15.994914619570
         H           -1.734204000000     0.297682000000     2.041051000000     1.007825032230
         H           -2.231280000000    -0.760891000000     1.129331000000     1.007825032230
         O            0.752858000000    -1.834769000000    -0.351999000000    15.994914619570
         H            0.203711000000    -2.620276000000    -0.124323000000     1.007825032230
         H            1.157037000000    -2.060091000000    -1.215316000000     1.007825032230
         O            0.239663000000     0.677904000000    -1.813970000000    15.994914619570
         H            0.022632000000     0.033005000000    -2.467301000000     1.007825032230
         H           -0.269429000000     1.542115000000    -2.063452000000     1.007825032230

  Charge       = 1
  Multiplicity = 1
  Basis Set: AUG-CC-PVTZ
    Blend: AUG-CC-PVTZ
  Basis Set: (AUG-CC-PVTZ AUX)
    Blend: AUG-CC-PVTZ-JKFIT + DEF2-UNIVERSAL-JKFIT

    Orbital Energies [Eh]
    ---------------------

    Doubly Occupied:

       1A    -20.770832     2A    -20.768002     3A    -20.765733
       4A     -2.583330     5A     -1.559202     6A     -1.543178
       7A     -1.538568     8A     -0.911078     9A     -0.908597
      10A     -0.897692    11A     -0.819516    12A     -0.800987
      13A     -0.785706    14A     -0.720772    15A     -0.718533
      16A     -0.706201

  @DF-RHF Final Energy:  -235.53756744217381

   => Energetics <=

    Nuclear Repulsion Energy =             96.5376492814265958
    One-Electron Energy =                -510.5545786993981778
    Two-Electron Energy =                 178.4793619757977865
    Total Energy =                       -235.5375674421738097
 Dipole X            :         13.1424383          -14.4012948           -1.2588564
 Dipole Y            :         23.7738938          -24.7469765           -0.9730827
 Dipole Z            :         19.7413530          -20.3464582           -0.6051052
 Magnitude           :                                                    1.7022813
  Basis Set: (AUG-CC-PVTZ AUX)
    Blend: AUG-CC-PVTZ-RI + DEF2-QZVPP-RI
	 Reference Energy          =    -235.5375674421738097 [Eh]
	 Singles Energy            =      -0.0000000000000000 [Eh]
	 Same-Spin Energy          =      -0.2064150434990804 [Eh]
	 Opposite-Spin Energy      =      -0.6623489400995989 [Eh]
	 Correlation Energy        =      -0.8687639835986792 [Eh]
	 Total Energy              =    -236.4063314257724926 [Eh]

	 ================> DF-SCS-MP2 Energies <==================
	-----------------------------------------------------------
	 SCS Same-Spin Scale       =       0.3333333333333333 [-]
	 SCS Opposite-Spin Scale   =       1.2000000000000000 [-]
	 SCS Same-Spin Energy      =      -0.0688050144996935 [Eh]
	 SCS Opposite-Spin Energy  =      -0.7948187281195186 [Eh]
	 SCS Correlation Energy    =      -0.8636237426192120 [Eh]
	 SCS Total Energy          =    -236.4011911847930207 [Eh]
	-----------------------------------------------------------

*** Psi4 exiting successfully. Buy a developer a beer!
