                               Psi4 1.8.2 release

  ==> Input File <==

--------------------------------------------------------------------------
MEMORY 60 GB

molecule dimer {
0 1
Gh(Li)     0.000000     0.000000     0.000000
O          1.019083     0.534807    -1.726191
H          0.625080     0.290251    -2.608177
H          0.830858     1.498588    -1.618666
Gh(O)      0.965199     1.220004     1.116919
Gh(H)      0.489944     1.995527     1.292918
Gh(H)      1.415083     0.944086     1.921579
Gh(O)     -1.437462     1.300273    -0.217367
Gh(H)     -1.717662     1.772714     0.555732
Gh(H)     -1.328741     1.931896    -0.948455
Gh(O)     -0.568332    -1.731301    -0.760465
Gh(H)     -0.202881    -1.985016    -1.680965
Gh(H)     -0.497598    -2.566820    -0.278428

units ang
no_reorient
no_com
symmetry c1
}

set {
basis        aug-cc-pVTZ
scf_type     df
}

energy("mp2")
--------------------------------------------------------------------------

    Molecular point group: c1

    Geometry (in Angstrom), charge = 0, multiplicity = 1:

       Center              X                  Y                   Z               Mass
    ------------   -----------------  -----------------  -----------------  -----------------
      Gh(LI)          0.000000000000     0.000000000000     0.000000000000     7.016003436600
         O            1.019083000000     0.534807000000    -1.726191000000    15.994914619570
         H            0.625080000000     0.290251000000    -2.608177000000     1.007825032230
         H            0.830858000000     1.498588000000    -1.618666000000     1.007825032230
      Gh(O)           0.965199000000     1.220004000000     1.116919000000    15.994914619570
      Gh(H)           0.489944000000     1.995527000000     1.292918000000     1.007825032230
      Gh(H)           1.415083000000     0.944086000000     1.921579000000     1.007825032230
      Gh(O)          -1.437462000000     1.300273000000    -0.217367000000    15.994914619570
      Gh(H)          -1.717662000000     1.772714000000     0.555732000000     1.007825032230
      Gh(H)          -1.328741000000     1.931896000000    -0.948455000000     1.007825032230
      Gh(O)          -0.568332000000    -1.731301000000    -0.760465000000    15.994914619570
      Gh(H)          -0.202881000000    -1.985016000000    -1.680965000000     1.007825032230
      Gh(H)          -0.497598000000    -2.566820000000    -0.278428000000     1.007825032230

  Charge       = 0
  Multiplicity = 1
  Basis Set: AUG-CC-PVTZ
    Blend: AUG-CC-PVTZ
  Basis Set: (AUG-CC-PVTZ AUX)
    Blend: AUG-CC-PVTZ-JKFIT + DEF2-UNIVERSAL-JKFIT

    Orbital Energies [Eh]
    ---------------------

    Doubly Occupied:

       1A    -20.572712     2A     -1.335779     3A     -0.700041
       4A     -0.576985     5A     -0.507388

  @DF-RHF Final Energy:   -76.05620986236737

   => Energetics <=

    Nuclear Repulsion Energy =              8.8698026507806258
    One-Electron Energy =                -122.4662109460278003
    Two-Electron Energy =                  37.5401984328798051
    Total Energy =                        -76.0562098623673677
 Dipole X            :        -18.5367458           18.1576262           -0.3791196
 Dipole Y            :        -10.9956447           11.4655259            0.4698811
 Dipole Z            :         33.5799490          -34.0838015           -0.5038525
 Magnitude           :                                                    0.7863760
  Basis Set: (AUG-CC-PVTZ AUX)
    Blend: AUG-CC-PVTZ-RI + DEF2-QZVPP-RI
	 Reference Energy          =     -76.0562098623673677 [Eh]
	 Singles Energy            =      -0.0000000000000000 [Eh]
	 Same-Spin Energy          =      -0.0690322068883500 [Eh]
	 Opposite-Spin Energy      =      -0.2179558548353119 [Eh]
	 Correlation Energy        =      -0.2869880617236619 [Eh]
	 Total Energy              =     -76.3431979240910294 [Eh]

	 ================> DF-SCS-MP2 Energies <==================
	-----------------------------------------------------------
	 SCS Same-Spin Scale       =       0.3333333333333333 [-]
	 SCS Opposite-Spin Scale   =       1.2000000000000000 [-]
	 SCS Same-Spin Energy      =      -0.0230107356294500 [Eh]
	 SCS Opposite-Spin Energy  =      -0.2615470258023743 [Eh]
	 SCS Correlation Energy    =      -0.2845577614318243 [Eh]
	 SCS Total Energy          =     -76.3407676237991950 [Eh]
	-----------------------------------------------------------

*** Psi4 exiting successfully. Buy a developer a beer!
