                               Psi4 1.8.2 release

  ==> Input File <==

--------------------------------------------------------------------------
MEMORY 60 GB

molecule dimer {
1 1
Li         0.000000     0.000000     0.000000
O         -1.720601    -0.454939     0.668843
H         -2.367035    -0.441477     1.379955
H         -2.112942    -1.235939     0.197061
O          0.258055     1.761577     0.977628
H         -0.298766     2.544675     1.027660
H          0.877315     1.972477     1.753294
O          0.341148     0.486488    -2.065997
H          1.299138     0.518447    -2.285794
H          0.121500     1.408985    -2.167791
O          1.225061    -1.617859     0.341381
H          0.889538    -2.345444     0.815641
H          1.490168    -2.059704    -0.492452

units ang
no_reorient
no_com
symmetry c1
}

set {
basis        aug-cc-pVTZ
scf_type     df
}

energy("mp2")
--------------------------------------------------------------------------

    Molecular point group: c1

    Geometry (in Angstrom), charge = 1, multiplicity = 1:

       Center              X                  Y                   Z               Mass
    ------------   -----------------  -----------------  -----------------  -----------------
         LI           0.000000000000     0.000000000000     0.000000000000     7.016003436600
         O           -1.720601000000    -0.454939000000     0.668843000000    15.994914619570
         H           -2.367035000000    -0.441477000000     1.379955000000     1.007825032230
         H           -2.112942000000    -1.235939000000     0.197061000000     1.007825032230
         O            0.258055000000     1.761577000000     0.977628000000    15.994914619570
         H           -0.298766000000     2.544675000000     1.027660000000     1.007825032230
         H            0.877315000000     1.972477000000     1.753294000000     1.007825032230
         O            0.341148000000     0.486488000000    -2.065997000000    15.994914619570
         H            1.299138000000     0.518447000000    -2.285794000000     1.007825032230
         H            0.121500000000     1.408985000000    -2.167791000000     1.007825032230
         O            1.225061000000    -1.617859000000     0.341381000000    15.994914619570
         H            0.889538000000    -2.345444000000     0.815641000000     1.007825032230
         H            1.490168000000    -2.059704000000    -0.492452000000     1.007825032230

  Charge       = 1
  Multiplicity = 1
  Basis Set: AUG-CC-PVTZ
    Blend: AUG-CC-PVTZ
  Basis Set: (AUG-CC-PVTZ AUX)
    Blend: AUG-CC-PVTZ-JKFIT + DEF2-UNIVERSAL-JKFIT

    Orbital Energies [Eh]
    ---------------------

    Doubly Occupied:

       1A    -20.755142     2A    -20.747154     3A    -20.745671
       4A    -20.742232     5A     -2.546516     6A     -1.539483
       7A     -1.537509     8A     -1.525732     9A     -1.520111
      10A     -0.889767    11A     -0.876969    12A     -0.874005
      13A     -0.864914    14A     -0.811347    15A     -0.786482
      16A     -0.783158    17A     -0.774053    18A     -0.706783
      19A     -0.695951    20A     -0.690769    21A     -0.683761

  @DF-RHF Final Energy:  -311.61764303177995

   => Energetics <=

    Nuclear Repulsion Energy =            157.5459508352411149
    One-Electron Energy =                -736.1321667309580334
    Two-Electron Energy =                 266.9685728639369700
    Total Energy =                       -311.6176430317799486
 Dipole X            :         -1.6250945            1.3761364           -0.2489581
 Dipole Y            :         -3.2926788            3.3337717            0.0410928
 Dipole Z            :          1.0840919           -0.7513287            0.3327633
 Magnitude           :                                                    0.4176125
  Basis Set: (AUG-CC-PVTZ AUX)
    Blend: AUG-CC-PVTZ-RI + DEF2-QZVPP-RI
	 Reference Energy          =    -311.6176430317799486 [Eh]
	 Singles Energy            =      -0.0000000000000000 [Eh]
	 Same-Spin Energy          =      -0.2762802525693150 [Eh]
	 Opposite-Spin Energy      =      -0.8810269685349105 [Eh]
	 Correlation Energy        =      -1.1573072211042255 [Eh]
	 Total Energy              =    -312.7749502528841958 [Eh]

	 ================> DF-SCS-MP2 Energies <==================
	-----------------------------------------------------------
	 SCS Same-Spin Scale       =       0.3333333333333333 [-]
	 SCS Opposite-Spin Scale   =       1.2000000000000000 [-]
	 SCS Same-Spin Energy      =      -0.0920934175231050 [Eh]
	 SCS Opposite-Spin Energy  =      -1.0572323622418924 [Eh]
	 SCS Correlation Energy    =      -1.1493257797649974 [Eh]
	 SCS Total Energy          =    -312.7669688115449276 [Eh]
	-----------------------------------------------------------

*** Psi4 exiting successfully. Buy a developer a beer!
