                               Psi4 1.8.2 release

  ==> Input File <==

--------------------------------------------------------------------------
MEMORY 60 GB

molecule dimer {
0 1
Gh(Li)     0.000000     0.000000     0.000000
Gh(O)      1.248744    -1.546356    -0.063915
Gh(H)      1.572886    -2.181593    -0.699843
Gh(H)      1.029516    -2.049213     0.724090
Gh(O)      0.765829     1.000564     1.387872
Gh(H)      0.151349     0.926457     2.100303
Gh(H)      1.657507     0.667016     1.546448
O         -1.671574    -0.529749     0.598972
H         -1.713174    -1.282973     1.185456
H         -2.204628    -0.664548    -0.213532
Gh(O)     -0.147700     1.539800    -1.361374
Gh(H)      0.650302     2.003122    -1.769900
Gh(H)     -0.810619     1.511850    -2.060867

units ang
no_reorient
no_com
symmetry c1
}

set {
basis        aug-cc-pVTZ
scf_type     df
}

energy("mp2")
--------------------------------------------------------------------------

    Molecular point group: c1

    Geometry (in Angstrom), charge = 0, multiplicity = 1:

       Center              X                  Y                   Z               Mass
    ------------   -----------------  -----------------  -----------------  -----------------
      Gh(LI)          0.000000000000     0.000000000000     0.000000000000     7.016003436600
      Gh(O)           1.248744000000    -1.546356000000    -0.063915000000    15.994914619570
      Gh(H)           1.572886000000    -2.181593000000    -0.699843000000     1.007825032230
      Gh(H)           1.029516000000    -2.049213000000     0.724090000000     1.007825032230
      Gh(O)           0.765829000000     1.000564000000     1.387872000000    15.994914619570
      Gh(H)           0.151349000000     0.926457000000     2.100303000000     1.007825032230
      Gh(H)           1.657507000000     0.667016000000     1.546448000000     1.007825032230
         O           -1.671574000000    -0.529749000000     0.598972000000    15.994914619570
         H           -1.713174000000    -1.282973000000     1.185456000000     1.007825032230
         H           -2.204628000000    -0.664548000000    -0.213532000000     1.007825032230
      Gh(O)          -0.147700000000     1.539800000000    -1.361374000000    15.994914619570
      Gh(H)           0.650302000000     2.003122000000    -1.769900000000     1.007825032230
      Gh(H)          -0.810619000000     1.511850000000    -2.060867000000     1.007825032230

  Charge       = 0
  Multiplicity = 1
  Basis Set: AUG-CC-PVTZ
    Blend: AUG-CC-PVTZ
  Basis Set: (AUG-CC-PVTZ AUX)
    Blend: AUG-CC-PVTZ-JKFIT + DEF2-UNIVERSAL-JKFIT

    Orbital Energies [Eh]
    ---------------------

    Doubly Occupied:

       1A    -20.565280     2A     -1.342797     3A     -0.725389
       4A     -0.568058     5A     -0.507070

  @DF-RHF Final Energy:   -76.05836243826657

   => Energetics <=

    Nuclear Repulsion Energy =              9.0749542262258487
    One-Electron Energy =                -122.8494405691529465
    Two-Electron Energy =                  37.7161239046605417
    Total Energy =                        -76.0583624382665562
 Dipole X            :         32.2863640          -32.6741093           -0.3877453
 Dipole Y            :         11.0871216          -11.6889255           -0.6018040
 Dipole Z            :        -11.0416448           10.8918145           -0.1498303
 Magnitude           :                                                    0.7314120
  Basis Set: (AUG-CC-PVTZ AUX)
    Blend: AUG-CC-PVTZ-RI + DEF2-QZVPP-RI
	 Reference Energy          =     -76.0583624382665704 [Eh]
	 Singles Energy            =      -0.0000000000000000 [Eh]
	 Same-Spin Energy          =      -0.0685482300447351 [Eh]
	 Opposite-Spin Energy      =      -0.2163073024574173 [Eh]
	 Correlation Energy        =      -0.2848555325021525 [Eh]
	 Total Energy              =     -76.3432179707687197 [Eh]

	 ================> DF-SCS-MP2 Energies <==================
	-----------------------------------------------------------
	 SCS Same-Spin Scale       =       0.3333333333333333 [-]
	 SCS Opposite-Spin Scale   =       1.2000000000000000 [-]
	 SCS Same-Spin Energy      =      -0.0228494100149117 [Eh]
	 SCS Opposite-Spin Energy  =      -0.2595687629489007 [Eh]
	 SCS Correlation Energy    =      -0.2824181729638124 [Eh]
	 SCS Total Energy          =     -76.3407806112303859 [Eh]
	-----------------------------------------------------------

*** Psi4 exiting successfully. Buy a developer a beer!
