                               Psi4 1.8.2 release

  ==> Input File <==

--------------------------------------------------------------------------
MEMORY 60 GB

molecule dimer {
0 1
Gh(Li)     0.000000     0.000000     0.000000
Gh(O)      1.871880     0.461571     0.368550
Gh(H)      2.285974     0.571186    -0.568959
Gh(H)      2.640293     0.187905     0.999170
O         -0.434010     0.027323    -1.814838
H         -1.386091     0.043525    -1.966203
H         -0.179400     0.553937    -2.571507
Gh(O)     -0.248199    -1.804611     0.671574
Gh(H)      0.614937    -2.214034     0.676546
Gh(H)     -0.801980    -2.158788    -0.016634
Gh(O)     -1.170794     0.970161     1.468626
Gh(H)     -0.562692     1.300187     2.160833
Gh(H)     -1.660722     0.184687     1.808510

units ang
no_reorient
no_com
symmetry c1
}

set {
basis        aug-cc-pVTZ
scf_type     df
}

energy("mp2")
--------------------------------------------------------------------------

    Molecular point group: c1

    Geometry (in Angstrom), charge = 0, multiplicity = 1:

       Center              X                  Y                   Z               Mass
    ------------   -----------------  -----------------  -----------------  -----------------
      Gh(LI)          0.000000000000     0.000000000000     0.000000000000     7.016003436600
      Gh(O)           1.871880000000     0.461571000000     0.368550000000    15.994914619570
      Gh(H)           2.285974000000     0.571186000000    -0.568959000000     1.007825032230
      Gh(H)           2.640293000000     0.187905000000     0.999170000000     1.007825032230
         O           -0.434010000000     0.027323000000    -1.814838000000    15.994914619570
         H           -1.386091000000     0.043525000000    -1.966203000000     1.007825032230
         H           -0.179400000000     0.553937000000    -2.571507000000     1.007825032230
      Gh(O)          -0.248199000000    -1.804611000000     0.671574000000    15.994914619570
      Gh(H)           0.614937000000    -2.214034000000     0.676546000000     1.007825032230
      Gh(H)          -0.801980000000    -2.158788000000    -0.016634000000     1.007825032230
      Gh(O)          -1.170794000000     0.970161000000     1.468626000000    15.994914619570
      Gh(H)          -0.562692000000     1.300187000000     2.160833000000     1.007825032230
      Gh(H)          -1.660722000000     0.184687000000     1.808510000000     1.007825032230

  Charge       = 0
  Multiplicity = 1
  Basis Set: AUG-CC-PVTZ
    Blend: AUG-CC-PVTZ
  Basis Set: (AUG-CC-PVTZ AUX)
    Blend: AUG-CC-PVTZ-JKFIT + DEF2-UNIVERSAL-JKFIT

    Orbital Energies [Eh]
    ---------------------

    Doubly Occupied:

       1A    -20.570419     2A     -1.357175     3A     -0.701700
       4A     -0.598232     5A     -0.512078

  @DF-RHF Final Energy:   -76.05871529921659

   => Energetics <=

    Nuclear Repulsion Energy =              9.1837906396189268
    One-Electron Energy =                -123.0057997477422731
    Two-Electron Energy =                  37.7632938089067736
    Total Energy =                        -76.0587152992165727
 Dipole X            :          9.0671361           -9.5196295           -0.4524934
 Dipole Y            :         -1.1884152            1.5421034            0.3536882
 Dipole Z            :         35.4196892          -36.0114034           -0.5917142
 Magnitude           :                                                    0.8246038
  Basis Set: (AUG-CC-PVTZ AUX)
    Blend: AUG-CC-PVTZ-RI + DEF2-QZVPP-RI
	 Reference Energy          =     -76.0587152992165869 [Eh]
	 Singles Energy            =      -0.0000000000000000 [Eh]
	 Same-Spin Energy          =      -0.0686802795689908 [Eh]
	 Opposite-Spin Energy      =      -0.2166215602232986 [Eh]
	 Correlation Energy        =      -0.2853018397922895 [Eh]
	 Total Energy              =     -76.3440171390088693 [Eh]

	 ================> DF-SCS-MP2 Energies <==================
	-----------------------------------------------------------
	 SCS Same-Spin Scale       =       0.3333333333333333 [-]
	 SCS Opposite-Spin Scale   =       1.2000000000000000 [-]
	 SCS Same-Spin Energy      =      -0.0228934265229969 [Eh]
	 SCS Opposite-Spin Energy  =      -0.2599458722679583 [Eh]
	 SCS Correlation Energy    =      -0.2828392987909553 [Eh]
	 SCS Total Energy          =     -76.3415545980075478 [Eh]
	-----------------------------------------------------------

*** Psi4 exiting successfully. Buy a developer a beer!
