                               Psi4 1.8.2 release

  ==> Input File <==

--------------------------------------------------------------------------
MEMORY 60 GB

molecule dimer {
1 1
Li         0.000000     0.000000     0.000000
O         -0.101817    -1.813061    -0.036423
H         -0.471130    -2.250333    -0.763005
H          0.017925    -2.436449     0.694730
O         -1.581748     0.573901     1.043698
H         -1.213933     0.624233     1.880971
H         -1.854365     1.500408     0.850485
O          0.827787     0.387737    -1.742301
H          1.255888    -0.363424    -2.191003
H          1.514001     1.055898    -1.641117

units ang
no_reorient
no_com
symmetry c1
}

set {
basis        aug-cc-pVTZ
scf_type     df
}

energy("mp2")
--------------------------------------------------------------------------

    Molecular point group: c1

    Geometry (in Angstrom), charge = 1, multiplicity = 1:

       Center              X                  Y                   Z               Mass
    ------------   -----------------  -----------------  -----------------  -----------------
         LI           0.000000000000     0.000000000000     0.000000000000     7.016003436600
         O           -0.101817000000    -1.813061000000    -0.036423000000    15.994914619570
         H           -0.471130000000    -2.250333000000    -0.763005000000     1.007825032230
         H            0.017925000000    -2.436449000000     0.694730000000     1.007825032230
         O           -1.581748000000     0.573901000000     1.043698000000    15.994914619570
         H           -1.213933000000     0.624233000000     1.880971000000     1.007825032230
         H           -1.854365000000     1.500408000000     0.850485000000     1.007825032230
         O            0.827787000000     0.387737000000    -1.742301000000    15.994914619570
         H            1.255888000000    -0.363424000000    -2.191003000000     1.007825032230
         H            1.514001000000     1.055898000000    -1.641117000000     1.007825032230

  Charge       = 1
  Multiplicity = 1
  Basis Set: AUG-CC-PVTZ
    Blend: AUG-CC-PVTZ
  Basis Set: (AUG-CC-PVTZ AUX)
    Blend: AUG-CC-PVTZ-JKFIT + DEF2-UNIVERSAL-JKFIT

    Orbital Energies [Eh]
    ---------------------

    Doubly Occupied:

       1A    -20.767270     2A    -20.765146     3A    -20.764352
       4A     -2.580397     5A     -1.566700     6A     -1.561947
       7A     -1.550957     8A     -0.941642     9A     -0.919632
      10A     -0.914306    11A     -0.819532    12A     -0.798459
      13A     -0.793691    14A     -0.727297    15A     -0.720909
      16A     -0.712514

  @DF-RHF Final Energy:  -235.53727577875250

   => Energetics <=

    Nuclear Repulsion Energy =             98.8930718760554726
    One-Electron Energy =                -515.0511926306940040
    Two-Electron Energy =                 180.6208449758860013
    Total Energy =                       -235.5372757787525018
 Dipole X            :         14.8598901          -14.3578330            0.5020572
 Dipole Y            :         16.0845094          -16.4048089           -0.3202994
 Dipole Z            :         13.4104348          -13.3209572            0.0894775
 Magnitude           :                                                    0.6022121
  Basis Set: (AUG-CC-PVTZ AUX)
    Blend: AUG-CC-PVTZ-RI + DEF2-QZVPP-RI
	 Reference Energy          =    -235.5372757787525018 [Eh]
	 Singles Energy            =      -0.0000000000000000 [Eh]
	 Same-Spin Energy          =      -0.2054063316618498 [Eh]
	 Opposite-Spin Energy      =      -0.6594721597402063 [Eh]
	 Correlation Energy        =      -0.8648784914020561 [Eh]
	 Total Energy              =    -236.4021542701545684 [Eh]

	 ================> DF-SCS-MP2 Energies <==================
	-----------------------------------------------------------
	 SCS Same-Spin Scale       =       0.3333333333333333 [-]
	 SCS Opposite-Spin Scale   =       1.2000000000000000 [-]
	 SCS Same-Spin Energy      =      -0.0684687772206166 [Eh]
	 SCS Opposite-Spin Energy  =      -0.7913665916882476 [Eh]
	 SCS Correlation Energy    =      -0.8598353689088643 [Eh]
	 SCS Total Energy          =    -236.3971111476613771 [Eh]
	-----------------------------------------------------------

*** Psi4 exiting successfully. Buy a developer a beer!
