                               Psi4 1.8.2 release

  ==> Input File <==

--------------------------------------------------------------------------
MEMORY 60 GB

molecule dimer {
0 1
Gh(Li)     0.000000     0.000000     0.000000
Gh(O)     -1.781604    -0.308774     0.672957
Gh(H)     -2.416149    -0.940715     1.042678
Gh(H)     -2.210738     0.488272     0.415933
Gh(O)      1.567111     0.207798     1.466968
Gh(H)      1.921405    -0.551822     1.871146
Gh(H)      1.660695     0.824584     2.244772
O         -0.361356     1.821734    -0.682767
H         -0.637570     2.716843    -0.478202
H         -0.758879     1.674910    -1.588356
Gh(O)      0.457511    -1.012211    -1.602176
Gh(H)     -0.028832    -1.739527    -1.960288
Gh(H)      1.106696    -0.664268    -2.216768

units ang
no_reorient
no_com
symmetry c1
}

set {
basis        aug-cc-pVTZ
scf_type     df
}

energy("mp2")
--------------------------------------------------------------------------

    Molecular point group: c1

    Geometry (in Angstrom), charge = 0, multiplicity = 1:

       Center              X                  Y                   Z               Mass
    ------------   -----------------  -----------------  -----------------  -----------------
      Gh(LI)          0.000000000000     0.000000000000     0.000000000000     7.016003436600
      Gh(O)          -1.781604000000    -0.308774000000     0.672957000000    15.994914619570
      Gh(H)          -2.416149000000    -0.940715000000     1.042678000000     1.007825032230
      Gh(H)          -2.210738000000     0.488272000000     0.415933000000     1.007825032230
      Gh(O)           1.567111000000     0.207798000000     1.466968000000    15.994914619570
      Gh(H)           1.921405000000    -0.551822000000     1.871146000000     1.007825032230
      Gh(H)           1.660695000000     0.824584000000     2.244772000000     1.007825032230
         O           -0.361356000000     1.821734000000    -0.682767000000    15.994914619570
         H           -0.637570000000     2.716843000000    -0.478202000000     1.007825032230
         H           -0.758879000000     1.674910000000    -1.588356000000     1.007825032230
      Gh(O)           0.457511000000    -1.012211000000    -1.602176000000    15.994914619570
      Gh(H)          -0.028832000000    -1.739527000000    -1.960288000000     1.007825032230
      Gh(H)           1.106696000000    -0.664268000000    -2.216768000000     1.007825032230

  Charge       = 0
  Multiplicity = 1
  Basis Set: AUG-CC-PVTZ
    Blend: AUG-CC-PVTZ
  Basis Set: (AUG-CC-PVTZ AUX)
    Blend: AUG-CC-PVTZ-JKFIT + DEF2-UNIVERSAL-JKFIT

    Orbital Energies [Eh]
    ---------------------

    Doubly Occupied:

       1A    -20.571629     2A     -1.344135     3A     -0.702059
       4A     -0.584401     5A     -0.509190

  @DF-RHF Final Energy:   -76.05752293985364

   => Energetics <=

    Nuclear Repulsion Energy =              8.9957544938576017
    One-Electron Energy =                -122.6837241311396269
    Two-Electron Energy =                  37.6304466974283827
    Total Energy =                        -76.0575229398536408
 Dipole X            :          7.6631869           -8.1018171           -0.4386303
 Dipole Y            :        -35.3466662           35.8398370            0.4931708
 Dipole Z            :         13.7755129          -14.2271697           -0.4516568
 Magnitude           :                                                    0.7997549
  Basis Set: (AUG-CC-PVTZ AUX)
    Blend: AUG-CC-PVTZ-RI + DEF2-QZVPP-RI
	 Reference Energy          =     -76.0575229398536408 [Eh]
	 Singles Energy            =      -0.0000000000000000 [Eh]
	 Same-Spin Energy          =      -0.0688546247610474 [Eh]
	 Opposite-Spin Energy      =      -0.2173126407753435 [Eh]
	 Correlation Energy        =      -0.2861672655363908 [Eh]
	 Total Energy              =     -76.3436902053900326 [Eh]

	 ================> DF-SCS-MP2 Energies <==================
	-----------------------------------------------------------
	 SCS Same-Spin Scale       =       0.3333333333333333 [-]
	 SCS Opposite-Spin Scale   =       1.2000000000000000 [-]
	 SCS Same-Spin Energy      =      -0.0229515415870158 [Eh]
	 SCS Opposite-Spin Energy  =      -0.2607751689304121 [Eh]
	 SCS Correlation Energy    =      -0.2837267105174279 [Eh]
	 SCS Total Energy          =     -76.3412496503710685 [Eh]
	-----------------------------------------------------------

*** Psi4 exiting successfully. Buy a developer a beer!
