                               Psi4 1.8.2 release

  ==> Input File <==

--------------------------------------------------------------------------
MEMORY 60 GB

molecule dimer {
0 1
Gh(Li)     0.000000     0.000000     0.000000
Gh(O)      1.208138    -1.483905    -0.054330
Gh(H)      1.706083    -1.757206     0.774298
Gh(H)      1.774244    -1.511918    -0.824749
Gh(O)      0.360921     0.615778     1.634830
Gh(H)      1.202116     0.241370     2.076436
Gh(H)      0.323012     1.571300     1.866216
O          0.388360     1.633741    -1.150752
H          0.616019     1.302636    -2.021055
H          1.215882     1.819896    -0.713647
Gh(O)     -1.776461    -0.480367    -0.202286
Gh(H)     -2.398739    -0.310590     0.568127
Gh(H)     -1.994482    -1.342837    -0.497433

units ang
no_reorient
no_com
symmetry c1
}

set {
basis        aug-cc-pVTZ
scf_type     df
}

energy("mp2")
--------------------------------------------------------------------------

    Molecular point group: c1

    Geometry (in Angstrom), charge = 0, multiplicity = 1:

       Center              X                  Y                   Z               Mass
    ------------   -----------------  -----------------  -----------------  -----------------
      Gh(LI)          0.000000000000     0.000000000000     0.000000000000     7.016003436600
      Gh(O)           1.208138000000    -1.483905000000    -0.054330000000    15.994914619570
      Gh(H)           1.706083000000    -1.757206000000     0.774298000000     1.007825032230
      Gh(H)           1.774244000000    -1.511918000000    -0.824749000000     1.007825032230
      Gh(O)           0.360921000000     0.615778000000     1.634830000000    15.994914619570
      Gh(H)           1.202116000000     0.241370000000     2.076436000000     1.007825032230
      Gh(H)           0.323012000000     1.571300000000     1.866216000000     1.007825032230
         O            0.388360000000     1.633741000000    -1.150752000000    15.994914619570
         H            0.616019000000     1.302636000000    -2.021055000000     1.007825032230
         H            1.215882000000     1.819896000000    -0.713647000000     1.007825032230
      Gh(O)          -1.776461000000    -0.480367000000    -0.202286000000    15.994914619570
      Gh(H)          -2.398739000000    -0.310590000000     0.568127000000     1.007825032230
      Gh(H)          -1.994482000000    -1.342837000000    -0.497433000000     1.007825032230

  Charge       = 0
  Multiplicity = 1
  Basis Set: AUG-CC-PVTZ
    Blend: AUG-CC-PVTZ
  Basis Set: (AUG-CC-PVTZ AUX)
    Blend: AUG-CC-PVTZ-JKFIT + DEF2-UNIVERSAL-JKFIT

    Orbital Energies [Eh]
    ---------------------

    Doubly Occupied:

       1A    -20.566121     2A     -1.352775     3A     -0.721245
       4A     -0.581888     5A     -0.509934

  @DF-RHF Final Energy:   -76.06082636581925

   => Energetics <=

    Nuclear Repulsion Energy =              9.1990855483390561
    One-Electron Energy =                -123.0558949174528180
    Two-Electron Energy =                  37.7959830032945092
    Total Energy =                        -76.0608263658192527
 Dipole X            :         -8.6272765            9.3329435            0.7056670
 Dipole Y            :        -30.6957652           30.5993147           -0.0964505
 Dipole Z            :         22.2756474          -22.5646868           -0.2890394
 Magnitude           :                                                    0.7686432
  Basis Set: (AUG-CC-PVTZ AUX)
    Blend: AUG-CC-PVTZ-RI + DEF2-QZVPP-RI
	 Reference Energy          =     -76.0608263658192527 [Eh]
	 Singles Energy            =      -0.0000000000000000 [Eh]
	 Same-Spin Energy          =      -0.0683895377595538 [Eh]
	 Opposite-Spin Energy      =      -0.2159355014606815 [Eh]
	 Correlation Energy        =      -0.2843250392202352 [Eh]
	 Total Energy              =     -76.3451514050394877 [Eh]

	 ================> DF-SCS-MP2 Energies <==================
	-----------------------------------------------------------
	 SCS Same-Spin Scale       =       0.3333333333333333 [-]
	 SCS Opposite-Spin Scale   =       1.2000000000000000 [-]
	 SCS Same-Spin Energy      =      -0.0227965125865179 [Eh]
	 SCS Opposite-Spin Energy  =      -0.2591226017528178 [Eh]
	 SCS Correlation Energy    =      -0.2819191143393357 [Eh]
	 SCS Total Energy          =     -76.3427454801585839 [Eh]
	-----------------------------------------------------------

*** Psi4 exiting successfully. Buy a developer a beer!
