                               Psi4 1.8.2 release

  ==> Input File <==

--------------------------------------------------------------------------
MEMORY 60 GB

molecule dimer {
1 1
Li         0.000000     0.000000     0.000000
O         -0.572571     1.726043     0.455178
H         -1.087826     2.378042     0.937786
H          0.159044     2.237056     0.025785
O          0.941273    -0.777166     1.652463
H          0.784326    -1.744419     1.387688
H          0.345499    -0.483212     2.382628
O          1.123724     0.106542    -1.672682
H          1.108221     0.674321    -2.471162
H          1.738415    -0.641429    -2.005010
O         -1.285911    -1.203424    -0.729095
H         -1.453579    -1.473990    -1.654808
H         -2.103778    -1.340655    -0.244827

units ang
no_reorient
no_com
symmetry c1
}

set {
basis        aug-cc-pVTZ
scf_type     df
}

energy("mp2")
--------------------------------------------------------------------------

    Molecular point group: c1

    Geometry (in Angstrom), charge = 1, multiplicity = 1:

       Center              X                  Y                   Z               Mass
    ------------   -----------------  -----------------  -----------------  -----------------
         LI           0.000000000000     0.000000000000     0.000000000000     7.016003436600
         O           -0.572571000000     1.726043000000     0.455178000000    15.994914619570
         H           -1.087826000000     2.378042000000     0.937786000000     1.007825032230
         H            0.159044000000     2.237056000000     0.025785000000     1.007825032230
         O            0.941273000000    -0.777166000000     1.652463000000    15.994914619570
         H            0.784326000000    -1.744419000000     1.387688000000     1.007825032230
         H            0.345499000000    -0.483212000000     2.382628000000     1.007825032230
         O            1.123724000000     0.106542000000    -1.672682000000    15.994914619570
         H            1.108221000000     0.674321000000    -2.471162000000     1.007825032230
         H            1.738415000000    -0.641429000000    -2.005010000000     1.007825032230
         O           -1.285911000000    -1.203424000000    -0.729095000000    15.994914619570
         H           -1.453579000000    -1.473990000000    -1.654808000000     1.007825032230
         H           -2.103778000000    -1.340655000000    -0.244827000000     1.007825032230

  Charge       = 1
  Multiplicity = 1
  Basis Set: AUG-CC-PVTZ
    Blend: AUG-CC-PVTZ
  Basis Set: (AUG-CC-PVTZ AUX)
    Blend: AUG-CC-PVTZ-JKFIT + DEF2-UNIVERSAL-JKFIT

    Orbital Energies [Eh]
    ---------------------

    Doubly Occupied:

       1A    -20.754792     2A    -20.752998     3A    -20.751139
       4A    -20.740878     5A     -2.537289     6A     -1.535698
       7A     -1.534545     8A     -1.519407     9A     -1.502639
      10A     -0.902727    11A     -0.900710    12A     -0.879983
      13A     -0.867450    14A     -0.799529    15A     -0.788506
      16A     -0.780366    17A     -0.738827    18A     -0.707824
      19A     -0.696784    20A     -0.691597    21A     -0.683143

  @DF-RHF Final Energy:  -311.61124409119640

   => Energetics <=

    Nuclear Repulsion Energy =            161.4273496810070583
    One-Electron Energy =                -743.9435204905587398
    Two-Electron Energy =                 270.9049267183552843
    Total Energy =                       -311.6112440911963972
 Dipole X            :         -2.8205147            2.1589025           -0.6616122
 Dipole Y            :          2.9469346           -2.9826039           -0.0356693
 Dipole Z            :          6.7520232           -7.5494710           -0.7974478
 Magnitude           :                                                    1.0367864
  Basis Set: (AUG-CC-PVTZ AUX)
    Blend: AUG-CC-PVTZ-RI + DEF2-QZVPP-RI
	 Reference Energy          =    -311.6112440911963972 [Eh]
	 Singles Energy            =      -0.0000000000000000 [Eh]
	 Same-Spin Energy          =      -0.2772131255043112 [Eh]
	 Opposite-Spin Energy      =      -0.8832233875068952 [Eh]
	 Correlation Energy        =      -1.1604365130112064 [Eh]
	 Total Energy              =    -312.7716806042076314 [Eh]

	 ================> DF-SCS-MP2 Energies <==================
	-----------------------------------------------------------
	 SCS Same-Spin Scale       =       0.3333333333333333 [-]
	 SCS Opposite-Spin Scale   =       1.2000000000000000 [-]
	 SCS Same-Spin Energy      =      -0.0924043751681037 [Eh]
	 SCS Opposite-Spin Energy  =      -1.0598680650082741 [Eh]
	 SCS Correlation Energy    =      -1.1522724401763780 [Eh]
	 SCS Total Energy          =    -312.7635165313727725 [Eh]
	-----------------------------------------------------------

*** Psi4 exiting successfully. Buy a developer a beer!
