                               Psi4 1.8.2 release

  ==> Input File <==

--------------------------------------------------------------------------
MEMORY 60 GB

molecule dimer {
0 1
Gh(Li)     0.000000     0.000000     0.000000
Gh(O)     -1.666848    -0.230775    -0.571178
Gh(H)     -2.403845    -0.078846     0.061316
Gh(H)     -1.852157    -1.160914    -0.900576
O          0.811830     1.681269     0.295015
H          1.209914     1.723784     1.184017
H          1.431522     2.147366    -0.312900
Gh(O)      1.245948    -0.573251    -1.667623
Gh(H)      0.710361    -0.536181    -2.500262
Gh(H)      1.978230    -0.048153    -1.882404

units ang
no_reorient
no_com
symmetry c1
}

set {
basis        aug-cc-pVTZ
scf_type     df
}

energy("mp2")
--------------------------------------------------------------------------

    Molecular point group: c1

    Geometry (in Angstrom), charge = 0, multiplicity = 1:

       Center              X                  Y                   Z               Mass
    ------------   -----------------  -----------------  -----------------  -----------------
      Gh(LI)          0.000000000000     0.000000000000     0.000000000000     7.016003436600
      Gh(O)          -1.666848000000    -0.230775000000    -0.571178000000    15.994914619570
      Gh(H)          -2.403845000000    -0.078846000000     0.061316000000     1.007825032230
      Gh(H)          -1.852157000000    -1.160914000000    -0.900576000000     1.007825032230
         O            0.811830000000     1.681269000000     0.295015000000    15.994914619570
         H            1.209914000000     1.723784000000     1.184017000000     1.007825032230
         H            1.431522000000     2.147366000000    -0.312900000000     1.007825032230
      Gh(O)           1.245948000000    -0.573251000000    -1.667623000000    15.994914619570
      Gh(H)           0.710361000000    -0.536181000000    -2.500262000000     1.007825032230
      Gh(H)           1.978230000000    -0.048153000000    -1.882404000000     1.007825032230

  Charge       = 0
  Multiplicity = 1
  Basis Set: AUG-CC-PVTZ
    Blend: AUG-CC-PVTZ
  Basis Set: (AUG-CC-PVTZ AUX)
    Blend: AUG-CC-PVTZ-JKFIT + DEF2-UNIVERSAL-JKFIT

    Orbital Energies [Eh]
    ---------------------

    Doubly Occupied:

       1A    -20.570001     2A     -1.340571     3A     -0.709099
       4A     -0.576474     5A     -0.507846

  @DF-RHF Final Energy:   -76.05814711751566

   => Energetics <=

    Nuclear Repulsion Energy =              8.9753299854523689
    One-Electron Energy =                -122.6589690234541052
    Two-Electron Energy =                  37.6254919204860769
    Total Energy =                        -76.0581471175156594
 Dipole X            :        -16.5936646           17.2646815            0.6710169
 Dipole Y            :        -32.3972928           32.7325169            0.3352242
 Dipole Z            :         -5.9191410            6.1061530            0.1870120
 Magnitude           :                                                    0.7730539
  Basis Set: (AUG-CC-PVTZ AUX)
    Blend: AUG-CC-PVTZ-RI + DEF2-QZVPP-RI
	 Reference Energy          =     -76.0581471175156594 [Eh]
	 Singles Energy            =      -0.0000000000000000 [Eh]
	 Same-Spin Energy          =      -0.0687845318807034 [Eh]
	 Opposite-Spin Energy      =      -0.2170062035031652 [Eh]
	 Correlation Energy        =      -0.2857907353838687 [Eh]
	 Total Energy              =     -76.3439378528995292 [Eh]

	 ================> DF-SCS-MP2 Energies <==================
	-----------------------------------------------------------
	 SCS Same-Spin Scale       =       0.3333333333333333 [-]
	 SCS Opposite-Spin Scale   =       1.2000000000000000 [-]
	 SCS Same-Spin Energy      =      -0.0229281772935678 [Eh]
	 SCS Opposite-Spin Energy  =      -0.2604074442037983 [Eh]
	 SCS Correlation Energy    =      -0.2833356214973661 [Eh]
	 SCS Total Energy          =     -76.3414827390130313 [Eh]
	-----------------------------------------------------------

*** Psi4 exiting successfully. Buy a developer a beer!
