                               Psi4 1.8.2 release

  ==> Input File <==

--------------------------------------------------------------------------
MEMORY 60 GB

molecule dimer {
0 1
Gh(Li)     0.000000     0.000000     0.000000
O          1.133636     1.160128     1.243272
H          1.434853     0.831187     2.107622
H          1.945824     1.527758     0.841027
Gh(O)     -0.306541     1.258901    -1.187418
Gh(H)      0.454497     1.234098    -1.696850
Gh(H)     -0.979760     1.240604    -1.874525
Gh(O)      1.574698    -0.881807    -0.658457
Gh(H)      1.954431    -1.193772    -1.507817
Gh(H)      2.305375    -0.692560    -0.134613
Gh(O)     -1.760856    -0.323595     1.014546
Gh(H)     -1.586028    -0.713078     1.866818
Gh(H)     -2.486655    -0.870309     0.629301

units ang
no_reorient
no_com
symmetry c1
}

set {
basis        aug-cc-pVTZ
scf_type     df
}

energy("mp2")
--------------------------------------------------------------------------

    Molecular point group: c1

    Geometry (in Angstrom), charge = 0, multiplicity = 1:

       Center              X                  Y                   Z               Mass
    ------------   -----------------  -----------------  -----------------  -----------------
      Gh(LI)          0.000000000000     0.000000000000     0.000000000000     7.016003436600
         O            1.133636000000     1.160128000000     1.243272000000    15.994914619570
         H            1.434853000000     0.831187000000     2.107622000000     1.007825032230
         H            1.945824000000     1.527758000000     0.841027000000     1.007825032230
      Gh(O)          -0.306541000000     1.258901000000    -1.187418000000    15.994914619570
      Gh(H)           0.454497000000     1.234098000000    -1.696850000000     1.007825032230
      Gh(H)          -0.979760000000     1.240604000000    -1.874525000000     1.007825032230
      Gh(O)           1.574698000000    -0.881807000000    -0.658457000000    15.994914619570
      Gh(H)           1.954431000000    -1.193772000000    -1.507817000000     1.007825032230
      Gh(H)           2.305375000000    -0.692560000000    -0.134613000000     1.007825032230
      Gh(O)          -1.760856000000    -0.323595000000     1.014546000000    15.994914619570
      Gh(H)          -1.586028000000    -0.713078000000     1.866818000000     1.007825032230
      Gh(H)          -2.486655000000    -0.870309000000     0.629301000000     1.007825032230

  Charge       = 0
  Multiplicity = 1
  Basis Set: AUG-CC-PVTZ
    Blend: AUG-CC-PVTZ
  Basis Set: (AUG-CC-PVTZ AUX)
    Blend: AUG-CC-PVTZ-JKFIT + DEF2-UNIVERSAL-JKFIT

    Orbital Energies [Eh]
    ---------------------

    Doubly Occupied:

       1A    -20.570513     2A     -1.344914     3A     -0.706186
       4A     -0.583089     5A     -0.509122

  @DF-RHF Final Energy:   -76.05890419328662

   => Energetics <=

    Nuclear Repulsion Energy =              9.0260239692340534
    One-Electron Energy =                -122.7422043148455941
    Two-Electron Energy =                  37.6572761523249326
    Total Energy =                        -76.0589041932866223
 Dipole X            :        -22.7969351           23.5266462            0.7297111
 Dipole Y            :        -21.9712833           21.9963535            0.0250702
 Dipole Z            :        -24.0638182           24.3676877            0.3038694
 Magnitude           :                                                    0.7908498
  Basis Set: (AUG-CC-PVTZ AUX)
    Blend: AUG-CC-PVTZ-RI + DEF2-QZVPP-RI
	 Reference Energy          =     -76.0589041932866223 [Eh]
	 Singles Energy            =      -0.0000000000000000 [Eh]
	 Same-Spin Energy          =      -0.0687675033213341 [Eh]
	 Opposite-Spin Energy      =      -0.2170242252726858 [Eh]
	 Correlation Energy        =      -0.2857917285940199 [Eh]
	 Total Energy              =     -76.3446959218806427 [Eh]

	 ================> DF-SCS-MP2 Energies <==================
	-----------------------------------------------------------
	 SCS Same-Spin Scale       =       0.3333333333333333 [-]
	 SCS Opposite-Spin Scale   =       1.2000000000000000 [-]
	 SCS Same-Spin Energy      =      -0.0229225011071114 [Eh]
	 SCS Opposite-Spin Energy  =      -0.2604290703272230 [Eh]
	 SCS Correlation Energy    =      -0.2833515714343343 [Eh]
	 SCS Total Energy          =     -76.3422557647209601 [Eh]
	-----------------------------------------------------------

*** Psi4 exiting successfully. Buy a developer a beer!
