                               Psi4 1.8.2 release

  ==> Input File <==

--------------------------------------------------------------------------
MEMORY 60 GB

molecule dimer {
0 1
Gh(Li)     0.000000     0.000000     0.000000
Gh(O)     -0.716880     0.857356    -1.496201
Gh(H)     -0.733051     0.709649    -2.428935
Gh(H)     -1.633457     1.096310    -1.306862
Gh(O)     -0.384169     0.497773     1.852316
Gh(H)     -1.003665     1.020047     2.428236
Gh(H)      0.506112     0.522672     2.288627
O          1.950571    -0.041794     0.161548
H          2.264982    -0.901899     0.344035
H          2.628264     0.655770     0.267660
Gh(O)     -0.621593    -1.900324    -0.167785
Gh(H)     -1.121968    -2.443415     0.395486
Gh(H)      0.100099    -2.460018    -0.306883

units ang
no_reorient
no_com
symmetry c1
}

set {
basis        aug-cc-pVTZ
scf_type     df
}

energy("mp2")
--------------------------------------------------------------------------

    Molecular point group: c1

    Geometry (in Angstrom), charge = 0, multiplicity = 1:

       Center              X                  Y                   Z               Mass
    ------------   -----------------  -----------------  -----------------  -----------------
      Gh(LI)          0.000000000000     0.000000000000     0.000000000000     7.016003436600
      Gh(O)          -0.716880000000     0.857356000000    -1.496201000000    15.994914619570
      Gh(H)          -0.733051000000     0.709649000000    -2.428935000000     1.007825032230
      Gh(H)          -1.633457000000     1.096310000000    -1.306862000000     1.007825032230
      Gh(O)          -0.384169000000     0.497773000000     1.852316000000    15.994914619570
      Gh(H)          -1.003665000000     1.020047000000     2.428236000000     1.007825032230
      Gh(H)           0.506112000000     0.522672000000     2.288627000000     1.007825032230
         O            1.950571000000    -0.041794000000     0.161548000000    15.994914619570
         H            2.264982000000    -0.901899000000     0.344035000000     1.007825032230
         H            2.628264000000     0.655770000000     0.267660000000     1.007825032230
      Gh(O)          -0.621593000000    -1.900324000000    -0.167785000000    15.994914619570
      Gh(H)          -1.121968000000    -2.443415000000     0.395486000000     1.007825032230
      Gh(H)           0.100099000000    -2.460018000000    -0.306883000000     1.007825032230

  Charge       = 0
  Multiplicity = 1
  Basis Set: AUG-CC-PVTZ
    Blend: AUG-CC-PVTZ
  Basis Set: (AUG-CC-PVTZ AUX)
    Blend: AUG-CC-PVTZ-JKFIT + DEF2-UNIVERSAL-JKFIT

    Orbital Energies [Eh]
    ---------------------

    Doubly Occupied:

       1A    -20.562354     2A     -1.348182     3A     -0.735264
       4A     -0.567166     5A     -0.507647

  @DF-RHF Final Energy:   -76.05827542837612

   => Energetics <=

    Nuclear Repulsion Energy =              9.1913288018086803
    One-Electron Energy =                -123.0579778272836933
    Two-Electron Energy =                  37.8083735970988926
    Total Energy =                        -76.0582754283761204
 Dipole X            :        -38.0564642           38.7352546            0.6787904
 Dipole Y            :          0.9802182           -1.0969501           -0.1167319
 Dipole Z            :         -3.4001856            3.5981878            0.1980023
 Magnitude           :                                                    0.7166503
  Basis Set: (AUG-CC-PVTZ AUX)
    Blend: AUG-CC-PVTZ-RI + DEF2-QZVPP-RI
	 Reference Energy          =     -76.0582754283761204 [Eh]
	 Singles Energy            =      -0.0000000000000000 [Eh]
	 Same-Spin Energy          =      -0.0683290071333073 [Eh]
	 Opposite-Spin Energy      =      -0.2155880702401410 [Eh]
	 Correlation Energy        =      -0.2839170773734483 [Eh]
	 Total Energy              =     -76.3421925057495656 [Eh]

	 ================> DF-SCS-MP2 Energies <==================
	-----------------------------------------------------------
	 SCS Same-Spin Scale       =       0.3333333333333333 [-]
	 SCS Opposite-Spin Scale   =       1.2000000000000000 [-]
	 SCS Same-Spin Energy      =      -0.0227763357111024 [Eh]
	 SCS Opposite-Spin Energy  =      -0.2587056842881692 [Eh]
	 SCS Correlation Energy    =      -0.2814820199992716 [Eh]
	 SCS Total Energy          =     -76.3397574483753942 [Eh]
	-----------------------------------------------------------

*** Psi4 exiting successfully. Buy a developer a beer!
