                               Psi4 1.8.2 release

  ==> Input File <==

--------------------------------------------------------------------------
MEMORY 60 GB

molecule dimer {
0 1
Gh(Li)     0.000000     0.000000     0.000000
O          0.181903     1.777450    -0.729930
H          0.593085     1.934525    -1.596672
H          0.280321     2.525539    -0.178489
Gh(O)     -1.196907    -1.054425    -1.199409
Gh(H)     -2.179947    -1.140973    -1.113703
Gh(H)     -0.981597    -0.750434    -2.076686
Gh(O)      1.630893    -0.829171     0.343299
Gh(H)      1.796402    -1.357139     1.140948
Gh(H)      2.284558    -1.180292    -0.243308

units ang
no_reorient
no_com
symmetry c1
}

set {
basis        aug-cc-pVTZ
scf_type     df
}

energy("mp2")
--------------------------------------------------------------------------

    Molecular point group: c1

    Geometry (in Angstrom), charge = 0, multiplicity = 1:

       Center              X                  Y                   Z               Mass
    ------------   -----------------  -----------------  -----------------  -----------------
      Gh(LI)          0.000000000000     0.000000000000     0.000000000000     7.016003436600
         O            0.181903000000     1.777450000000    -0.729930000000    15.994914619570
         H            0.593085000000     1.934525000000    -1.596672000000     1.007825032230
         H            0.280321000000     2.525539000000    -0.178489000000     1.007825032230
      Gh(O)          -1.196907000000    -1.054425000000    -1.199409000000    15.994914619570
      Gh(H)          -2.179947000000    -1.140973000000    -1.113703000000     1.007825032230
      Gh(H)          -0.981597000000    -0.750434000000    -2.076686000000     1.007825032230
      Gh(O)           1.630893000000    -0.829171000000     0.343299000000    15.994914619570
      Gh(H)           1.796402000000    -1.357139000000     1.140948000000     1.007825032230
      Gh(H)           2.284558000000    -1.180292000000    -0.243308000000     1.007825032230

  Charge       = 0
  Multiplicity = 1
  Basis Set: AUG-CC-PVTZ
    Blend: AUG-CC-PVTZ
  Basis Set: (AUG-CC-PVTZ AUX)
    Blend: AUG-CC-PVTZ-JKFIT + DEF2-UNIVERSAL-JKFIT

    Orbital Energies [Eh]
    ---------------------

    Doubly Occupied:

       1A    -20.563452     2A     -1.351549     3A     -0.731442
       4A     -0.573630     5A     -0.508851

  @DF-RHF Final Energy:   -76.05968597965409

   => Energetics <=

    Nuclear Repulsion Energy =              9.2222387849589751
    One-Electron Energy =                -123.1059992013965143
    Two-Electron Energy =                  37.8240744367834338
    Total Energy =                        -76.0596859796541054
 Dipole X            :         -4.0553715            4.4004729            0.3451015
 Dipole Y            :        -34.6821720           35.2994491            0.6172770
 Dipole Z            :         14.1799938          -14.3895104           -0.2095167
 Magnitude           :                                                    0.7375793
  Basis Set: (AUG-CC-PVTZ AUX)
    Blend: AUG-CC-PVTZ-RI + DEF2-QZVPP-RI
	 Reference Energy          =     -76.0596859796540912 [Eh]
	 Singles Energy            =      -0.0000000000000000 [Eh]
	 Same-Spin Energy          =      -0.0682668390680079 [Eh]
	 Opposite-Spin Energy      =      -0.2153293095643653 [Eh]
	 Correlation Energy        =      -0.2835961486323731 [Eh]
	 Total Energy              =     -76.3432821282864609 [Eh]

	 ================> DF-SCS-MP2 Energies <==================
	-----------------------------------------------------------
	 SCS Same-Spin Scale       =       0.3333333333333333 [-]
	 SCS Opposite-Spin Scale   =       1.2000000000000000 [-]
	 SCS Same-Spin Energy      =      -0.0227556130226693 [Eh]
	 SCS Opposite-Spin Energy  =      -0.2583951714772383 [Eh]
	 SCS Correlation Energy    =      -0.2811507844999077 [Eh]
	 SCS Total Energy          =     -76.3408367641540053 [Eh]
	-----------------------------------------------------------

*** Psi4 exiting successfully. Buy a developer a beer!
