                               Psi4 1.8.2 release

  ==> Input File <==

--------------------------------------------------------------------------
MEMORY 60 GB

molecule dimer {
1 1
Li         0.000000     0.000000     0.000000
Gh(O)     -0.255509     0.069921    -1.836571
Gh(H)     -1.027344    -0.133534    -2.387653
Gh(H)      0.486014    -0.175560    -2.395908
Gh(O)      0.397253    -1.764707     0.271805
Gh(H)      1.046759    -2.177183     0.906020
Gh(H)      0.429144    -2.436723    -0.416891
Gh(O)     -0.827489     1.270939     1.147935
Gh(H)     -0.600437     2.141304     1.571362
Gh(H)     -1.791433     1.178595     1.173077

units ang
no_reorient
no_com
symmetry c1
}

set {
basis        aug-cc-pVTZ
scf_type     df
}

energy("mp2")
--------------------------------------------------------------------------

    Molecular point group: c1

    Geometry (in Angstrom), charge = 1, multiplicity = 1:

       Center              X                  Y                   Z               Mass
    ------------   -----------------  -----------------  -----------------  -----------------
         LI           0.000000000000     0.000000000000     0.000000000000     7.016003436600
      Gh(O)          -0.255509000000     0.069921000000    -1.836571000000    15.994914619570
      Gh(H)          -1.027344000000    -0.133534000000    -2.387653000000     1.007825032230
      Gh(H)           0.486014000000    -0.175560000000    -2.395908000000     1.007825032230
      Gh(O)           0.397253000000    -1.764707000000     0.271805000000    15.994914619570
      Gh(H)           1.046759000000    -2.177183000000     0.906020000000     1.007825032230
      Gh(H)           0.429144000000    -2.436723000000    -0.416891000000     1.007825032230
      Gh(O)          -0.827489000000     1.270939000000     1.147935000000    15.994914619570
      Gh(H)          -0.600437000000     2.141304000000     1.571362000000     1.007825032230
      Gh(H)          -1.791433000000     1.178595000000     1.173077000000     1.007825032230

  Charge       = 1
  Multiplicity = 1
  Basis Set: AUG-CC-PVTZ
    Blend: AUG-CC-PVTZ
  Basis Set: (AUG-CC-PVTZ AUX)
    Blend: AUG-CC-PVTZ-JKFIT + DEF2-UNIVERSAL-JKFIT

    Orbital Energies [Eh]
    ---------------------

    Doubly Occupied:

       1A     -2.792355

  @DF-RHF Final Energy:    -7.23638455413576

   => Energetics <=

    Nuclear Repulsion Energy =              0.0000000000000000
    One-Electron Energy =                  -8.8880584998383956
    Two-Electron Energy =                   1.6516739457026337
    Total Energy =                         -7.2363845541357623
 Dipole X            :         -0.0000086            0.0000000           -0.0000086
 Dipole Y            :         -0.0000011            0.0000000           -0.0000011
 Dipole Z            :          0.0000052            0.0000000            0.0000052
 Magnitude           :                                                    0.0000101
  Basis Set: (AUG-CC-PVTZ AUX)
    Blend: AUG-CC-PVTZ-RI + DEF2-QZVPP-RI
	 Reference Energy          =      -7.2363845541357623 [Eh]
	 Singles Energy            =      -0.0000000000000000 [Eh]
	 Same-Spin Energy          =       0.0000000000000000 [Eh]
	 Opposite-Spin Energy      =      -0.0164237500683207 [Eh]
	 Correlation Energy        =      -0.0164237500683207 [Eh]
	 Total Energy              =      -7.2528083042040832 [Eh]

	 ================> DF-SCS-MP2 Energies <==================
	-----------------------------------------------------------
	 SCS Same-Spin Scale       =       0.3333333333333333 [-]
	 SCS Opposite-Spin Scale   =       1.2000000000000000 [-]
	 SCS Same-Spin Energy      =       0.0000000000000000 [Eh]
	 SCS Opposite-Spin Energy  =      -0.0197085000819848 [Eh]
	 SCS Correlation Energy    =      -0.0197085000819848 [Eh]
	 SCS Total Energy          =      -7.2560930542177475 [Eh]
	-----------------------------------------------------------

*** Psi4 exiting successfully. Buy a developer a beer!
