                               Psi4 1.8.2 release

  ==> Input File <==

--------------------------------------------------------------------------
MEMORY 60 GB

molecule dimer {
1 1
Li         0.000000     0.000000     0.000000
O         -0.156941     0.958467     1.896046
H         -1.044531     1.337985     1.806280
H          0.472478     1.694438     2.070088
O          1.878977    -0.036473    -0.312733
H          2.472733     0.679982    -0.021938
H          2.035110    -0.049355    -1.243801
O         -0.712229     1.599462    -0.924556
H         -0.973922     2.332904    -0.344616
H         -1.404245     1.668289    -1.576126
O         -0.193645    -1.095916    -1.492069
H         -1.073154    -1.433089    -1.520338
H          0.383632    -1.886412    -1.626908

units ang
no_reorient
no_com
symmetry c1
}

set {
basis        aug-cc-pVTZ
scf_type     df
}

energy("mp2")
--------------------------------------------------------------------------

    Molecular point group: c1

    Geometry (in Angstrom), charge = 1, multiplicity = 1:

       Center              X                  Y                   Z               Mass
    ------------   -----------------  -----------------  -----------------  -----------------
         LI           0.000000000000     0.000000000000     0.000000000000     7.016003436600
         O           -0.156941000000     0.958467000000     1.896046000000    15.994914619570
         H           -1.044531000000     1.337985000000     1.806280000000     1.007825032230
         H            0.472478000000     1.694438000000     2.070088000000     1.007825032230
         O            1.878977000000    -0.036473000000    -0.312733000000    15.994914619570
         H            2.472733000000     0.679982000000    -0.021938000000     1.007825032230
         H            2.035110000000    -0.049355000000    -1.243801000000     1.007825032230
         O           -0.712229000000     1.599462000000    -0.924556000000    15.994914619570
         H           -0.973922000000     2.332904000000    -0.344616000000     1.007825032230
         H           -1.404245000000     1.668289000000    -1.576126000000     1.007825032230
         O           -0.193645000000    -1.095916000000    -1.492069000000    15.994914619570
         H           -1.073154000000    -1.433089000000    -1.520338000000     1.007825032230
         H            0.383632000000    -1.886412000000    -1.626908000000     1.007825032230

  Charge       = 1
  Multiplicity = 1
  Basis Set: AUG-CC-PVTZ
    Blend: AUG-CC-PVTZ
  Basis Set: (AUG-CC-PVTZ AUX)
    Blend: AUG-CC-PVTZ-JKFIT + DEF2-UNIVERSAL-JKFIT

    Orbital Energies [Eh]
    ---------------------

    Doubly Occupied:

       1A    -20.757300     2A    -20.757033     3A    -20.749731
       4A    -20.742519     5A     -2.542031     6A     -1.551867
       7A     -1.546745     8A     -1.534901     9A     -1.526231
      10A     -0.916640    11A     -0.900159    12A     -0.894023
      13A     -0.883838    14A     -0.817120    15A     -0.791412
      16A     -0.777629    17A     -0.763215    18A     -0.713527
      19A     -0.712395    20A     -0.699753    21A     -0.687461

  @DF-RHF Final Energy:  -311.61006272840768

   => Energetics <=

    Nuclear Repulsion Energy =            167.0346249081646874
    One-Electron Energy =                -754.7583099923170948
    Two-Electron Energy =                 276.1136223557447238
    Total Energy =                       -311.6100627284076836
 Dipole X            :        -14.3636678           13.9790544           -0.3846134
 Dipole Y            :        -28.6086117           29.7614139            1.1528022
 Dipole Z            :         16.4985848          -17.2415872           -0.7430023
 Magnitude           :                                                    1.4244061
  Basis Set: (AUG-CC-PVTZ AUX)
    Blend: AUG-CC-PVTZ-RI + DEF2-QZVPP-RI
	 Reference Energy          =    -311.6100627284076836 [Eh]
	 Singles Energy            =      -0.0000000000000000 [Eh]
	 Same-Spin Energy          =      -0.2770829127394378 [Eh]
	 Opposite-Spin Energy      =      -0.8814179014562361 [Eh]
	 Correlation Energy        =      -1.1585008141956739 [Eh]
	 Total Energy              =    -312.7685635426033741 [Eh]

	 ================> DF-SCS-MP2 Energies <==================
	-----------------------------------------------------------
	 SCS Same-Spin Scale       =       0.3333333333333333 [-]
	 SCS Opposite-Spin Scale   =       1.2000000000000000 [-]
	 SCS Same-Spin Energy      =      -0.0923609709131459 [Eh]
	 SCS Opposite-Spin Energy  =      -1.0577014817474832 [Eh]
	 SCS Correlation Energy    =      -1.1500624526606291 [Eh]
	 SCS Total Energy          =    -312.7601251810683038 [Eh]
	-----------------------------------------------------------

*** Psi4 exiting successfully. Buy a developer a beer!
