                               Psi4 1.8.2 release

  ==> Input File <==

--------------------------------------------------------------------------
MEMORY 60 GB

molecule dimer {
0 1
Gh(Li)     0.000000     0.000000     0.000000
Gh(O)     -0.156941     0.958467     1.896046
Gh(H)     -1.044531     1.337985     1.806280
Gh(H)      0.472478     1.694438     2.070088
O          1.878977    -0.036473    -0.312733
H          2.472733     0.679982    -0.021938
H          2.035110    -0.049355    -1.243801
Gh(O)     -0.712229     1.599462    -0.924556
Gh(H)     -0.973922     2.332904    -0.344616
Gh(H)     -1.404245     1.668289    -1.576126
Gh(O)     -0.193645    -1.095916    -1.492069
Gh(H)     -1.073154    -1.433089    -1.520338
Gh(H)      0.383632    -1.886412    -1.626908

units ang
no_reorient
no_com
symmetry c1
}

set {
basis        aug-cc-pVTZ
scf_type     df
}

energy("mp2")
--------------------------------------------------------------------------

    Molecular point group: c1

    Geometry (in Angstrom), charge = 0, multiplicity = 1:

       Center              X                  Y                   Z               Mass
    ------------   -----------------  -----------------  -----------------  -----------------
      Gh(LI)          0.000000000000     0.000000000000     0.000000000000     7.016003436600
      Gh(O)          -0.156941000000     0.958467000000     1.896046000000    15.994914619570
      Gh(H)          -1.044531000000     1.337985000000     1.806280000000     1.007825032230
      Gh(H)           0.472478000000     1.694438000000     2.070088000000     1.007825032230
         O            1.878977000000    -0.036473000000    -0.312733000000    15.994914619570
         H            2.472733000000     0.679982000000    -0.021938000000     1.007825032230
         H            2.035110000000    -0.049355000000    -1.243801000000     1.007825032230
      Gh(O)          -0.712229000000     1.599462000000    -0.924556000000    15.994914619570
      Gh(H)          -0.973922000000     2.332904000000    -0.344616000000     1.007825032230
      Gh(H)          -1.404245000000     1.668289000000    -1.576126000000     1.007825032230
      Gh(O)          -0.193645000000    -1.095916000000    -1.492069000000    15.994914619570
      Gh(H)          -1.073154000000    -1.433089000000    -1.520338000000     1.007825032230
      Gh(H)           0.383632000000    -1.886412000000    -1.626908000000     1.007825032230

  Charge       = 0
  Multiplicity = 1
  Basis Set: AUG-CC-PVTZ
    Blend: AUG-CC-PVTZ
  Basis Set: (AUG-CC-PVTZ AUX)
    Blend: AUG-CC-PVTZ-JKFIT + DEF2-UNIVERSAL-JKFIT

    Orbital Energies [Eh]
    ---------------------

    Doubly Occupied:

       1A    -20.568504     2A     -1.354534     3A     -0.711074
       4A     -0.589755     5A     -0.510955

  @DF-RHF Final Energy:   -76.05975421746905

   => Energetics <=

    Nuclear Repulsion Energy =              9.1817044555892569
    One-Electron Energy =                -123.0132724689684522
    Two-Electron Energy =                  37.7718137959101554
    Total Energy =                        -76.0597542174690489
 Dipole X            :        -36.4320998           36.9246041            0.4925043
 Dipole Y            :         -0.1797836            0.6403205            0.4605369
 Dipole Z            :          6.6932708           -7.1197378           -0.4264670
 Magnitude           :                                                    0.7978276
  Basis Set: (AUG-CC-PVTZ AUX)
    Blend: AUG-CC-PVTZ-RI + DEF2-QZVPP-RI
	 Reference Energy          =     -76.0597542174690489 [Eh]
	 Singles Energy            =      -0.0000000000000000 [Eh]
	 Same-Spin Energy          =      -0.0685343845889581 [Eh]
	 Opposite-Spin Energy      =      -0.2163479322905274 [Eh]
	 Correlation Energy        =      -0.2848823168794855 [Eh]
	 Total Energy              =     -76.3446365343485382 [Eh]

	 ================> DF-SCS-MP2 Energies <==================
	-----------------------------------------------------------
	 SCS Same-Spin Scale       =       0.3333333333333333 [-]
	 SCS Opposite-Spin Scale   =       1.2000000000000000 [-]
	 SCS Same-Spin Energy      =      -0.0228447948629860 [Eh]
	 SCS Opposite-Spin Energy  =      -0.2596175187486328 [Eh]
	 SCS Correlation Energy    =      -0.2824623136116188 [Eh]
	 SCS Total Energy          =     -76.3422165310806662 [Eh]
	-----------------------------------------------------------

*** Psi4 exiting successfully. Buy a developer a beer!
