                               Psi4 1.8.2 release

  ==> Input File <==

--------------------------------------------------------------------------
MEMORY 60 GB

molecule dimer {
0 1
Gh(Li)     0.000000     0.000000     0.000000
Gh(O)     -1.959429     0.551722    -0.115906
Gh(H)     -2.501903     1.114878     0.470899
Gh(H)     -2.703678     0.065273    -0.568937
O          0.234542    -1.408943     1.091451
H         -0.520325    -2.028104     0.922529
H          0.330550    -1.475194     2.088232
Gh(O)      0.911987     1.610117     0.968941
Gh(H)      1.448281     1.554265     1.803833
Gh(H)      1.223738     2.292862     0.375246
Gh(O)      0.842688     0.233769    -1.798413
Gh(H)      0.637542    -0.124408    -2.680969
Gh(H)      1.557305     0.923962    -1.781956

units ang
no_reorient
no_com
symmetry c1
}

set {
basis        aug-cc-pVTZ
scf_type     df
}

energy("mp2")
--------------------------------------------------------------------------

    Molecular point group: c1

    Geometry (in Angstrom), charge = 0, multiplicity = 1:

       Center              X                  Y                   Z               Mass
    ------------   -----------------  -----------------  -----------------  -----------------
      Gh(LI)          0.000000000000     0.000000000000     0.000000000000     7.016003436600
      Gh(O)          -1.959429000000     0.551722000000    -0.115906000000    15.994914619570
      Gh(H)          -2.501903000000     1.114878000000     0.470899000000     1.007825032230
      Gh(H)          -2.703678000000     0.065273000000    -0.568937000000     1.007825032230
         O            0.234542000000    -1.408943000000     1.091451000000    15.994914619570
         H           -0.520325000000    -2.028104000000     0.922529000000     1.007825032230
         H            0.330550000000    -1.475194000000     2.088232000000     1.007825032230
      Gh(O)           0.911987000000     1.610117000000     0.968941000000    15.994914619570
      Gh(H)           1.448281000000     1.554265000000     1.803833000000     1.007825032230
      Gh(H)           1.223738000000     2.292862000000     0.375246000000     1.007825032230
      Gh(O)           0.842688000000     0.233769000000    -1.798413000000    15.994914619570
      Gh(H)           0.637542000000    -0.124408000000    -2.680969000000     1.007825032230
      Gh(H)           1.557305000000     0.923962000000    -1.781956000000     1.007825032230

  Charge       = 0
  Multiplicity = 1
  Basis Set: AUG-CC-PVTZ
    Blend: AUG-CC-PVTZ
  Basis Set: (AUG-CC-PVTZ AUX)
    Blend: AUG-CC-PVTZ-JKFIT + DEF2-UNIVERSAL-JKFIT

    Orbital Energies [Eh]
    ---------------------

    Doubly Occupied:

       1A    -20.575155     2A     -1.335782     3A     -0.691050
       4A     -0.582748     5A     -0.508102

  @DF-RHF Final Energy:   -76.05499417332301

   => Energetics <=

    Nuclear Repulsion Energy =              8.8333539504814649
    One-Electron Energy =                -122.3910191011880926
    Two-Electron Energy =                  37.5026709773836160
    Total Energy =                        -76.0549941733230099
 Dipole X            :         -3.6122455            3.1871384           -0.4251071
 Dipole Y            :         27.4784376          -27.9204049           -0.4419673
 Dipole Z            :        -21.6589774           22.1898615            0.5308841
 Magnitude           :                                                    0.8111036
  Basis Set: (AUG-CC-PVTZ AUX)
    Blend: AUG-CC-PVTZ-RI + DEF2-QZVPP-RI
	 Reference Energy          =     -76.0549941733230099 [Eh]
	 Singles Energy            =      -0.0000000000000000 [Eh]
	 Same-Spin Energy          =      -0.0692061819617654 [Eh]
	 Opposite-Spin Energy      =      -0.2184116221101186 [Eh]
	 Correlation Energy        =      -0.2876178040718840 [Eh]
	 Total Energy              =     -76.3426119773948955 [Eh]

	 ================> DF-SCS-MP2 Energies <==================
	-----------------------------------------------------------
	 SCS Same-Spin Scale       =       0.3333333333333333 [-]
	 SCS Opposite-Spin Scale   =       1.2000000000000000 [-]
	 SCS Same-Spin Energy      =      -0.0230687273205885 [Eh]
	 SCS Opposite-Spin Energy  =      -0.2620939465321423 [Eh]
	 SCS Correlation Energy    =      -0.2851626738527308 [Eh]
	 SCS Total Energy          =     -76.3401568471757344 [Eh]
	-----------------------------------------------------------

*** Psi4 exiting successfully. Buy a developer a beer!
