                               Psi4 1.8.2 release

  ==> Input File <==

--------------------------------------------------------------------------
MEMORY 60 GB

molecule dimer {
1 1
Li         0.000000     0.000000     0.000000
Gh(O)     -0.956247     0.863490    -1.749096
Gh(H)     -1.677330     0.462424    -2.223924
Gh(H)     -1.171884     1.781797    -1.643295
Gh(O)      1.646899     1.167929    -0.206984
Gh(H)      2.398522     0.950578    -0.761776
Gh(H)      2.002825     1.745984     0.467071
Gh(O)     -1.376351     0.325273     1.324880
Gh(H)     -1.378159    -0.485756     1.792733
Gh(H)     -2.258884     0.513625     1.057259
Gh(O)     -0.433367    -1.659207    -1.078943
Gh(H)     -0.338542    -2.445579    -0.643428
Gh(H)     -1.348443    -1.450485    -1.100673
Gh(O)      1.111588    -0.959952     1.543776
Gh(H)      0.882604    -1.906565     1.587702
Gh(H)      2.069318    -0.934575     1.478701

units ang
no_reorient
no_com
symmetry c1
}

set {
basis        aug-cc-pVTZ
scf_type     df
}

energy("mp2")
--------------------------------------------------------------------------

    Molecular point group: c1

    Geometry (in Angstrom), charge = 1, multiplicity = 1:

       Center              X                  Y                   Z               Mass
    ------------   -----------------  -----------------  -----------------  -----------------
         LI           0.000000000000     0.000000000000     0.000000000000     7.016003436600
      Gh(O)          -0.956247000000     0.863490000000    -1.749096000000    15.994914619570
      Gh(H)          -1.677330000000     0.462424000000    -2.223924000000     1.007825032230
      Gh(H)          -1.171884000000     1.781797000000    -1.643295000000     1.007825032230
      Gh(O)           1.646899000000     1.167929000000    -0.206984000000    15.994914619570
      Gh(H)           2.398522000000     0.950578000000    -0.761776000000     1.007825032230
      Gh(H)           2.002825000000     1.745984000000     0.467071000000     1.007825032230
      Gh(O)          -1.376351000000     0.325273000000     1.324880000000    15.994914619570
      Gh(H)          -1.378159000000    -0.485756000000     1.792733000000     1.007825032230
      Gh(H)          -2.258884000000     0.513625000000     1.057259000000     1.007825032230
      Gh(O)          -0.433367000000    -1.659207000000    -1.078943000000    15.994914619570
      Gh(H)          -0.338542000000    -2.445579000000    -0.643428000000     1.007825032230
      Gh(H)          -1.348443000000    -1.450485000000    -1.100673000000     1.007825032230
      Gh(O)           1.111588000000    -0.959952000000     1.543776000000    15.994914619570
      Gh(H)           0.882604000000    -1.906565000000     1.587702000000     1.007825032230
      Gh(H)           2.069318000000    -0.934575000000     1.478701000000     1.007825032230

  Charge       = 1
  Multiplicity = 1
  Basis Set: AUG-CC-PVTZ
    Blend: AUG-CC-PVTZ
  Basis Set: (AUG-CC-PVTZ AUX)
    Blend: AUG-CC-PVTZ-JKFIT + DEF2-UNIVERSAL-JKFIT

    Orbital Energies [Eh]
    ---------------------

    Doubly Occupied:

       1A     -2.792349

  @DF-RHF Final Energy:    -7.23638511006324

   => Energetics <=

    Nuclear Repulsion Energy =              0.0000000000000000
    One-Electron Energy =                  -8.8880715964107697
    Two-Electron Energy =                   1.6516864863475300
    Total Energy =                         -7.2363851100632397
 Dipole X            :          0.0000079            0.0000000            0.0000079
 Dipole Y            :          0.0000031            0.0000000            0.0000031
 Dipole Z            :         -0.0000053            0.0000000           -0.0000053
 Magnitude           :                                                    0.0000101
  Basis Set: (AUG-CC-PVTZ AUX)
    Blend: AUG-CC-PVTZ-RI + DEF2-QZVPP-RI
	 Reference Energy          =      -7.2363851100632397 [Eh]
	 Singles Energy            =      -0.0000000000000000 [Eh]
	 Same-Spin Energy          =       0.0000000000000000 [Eh]
	 Opposite-Spin Energy      =      -0.0171196486820981 [Eh]
	 Correlation Energy        =      -0.0171196486820981 [Eh]
	 Total Energy              =      -7.2535047587453381 [Eh]

	 ================> DF-SCS-MP2 Energies <==================
	-----------------------------------------------------------
	 SCS Same-Spin Scale       =       0.3333333333333333 [-]
	 SCS Opposite-Spin Scale   =       1.2000000000000000 [-]
	 SCS Same-Spin Energy      =       0.0000000000000000 [Eh]
	 SCS Opposite-Spin Energy  =      -0.0205435784185178 [Eh]
	 SCS Correlation Energy    =      -0.0205435784185178 [Eh]
	 SCS Total Energy          =      -7.2569286884817572 [Eh]
	-----------------------------------------------------------

*** Psi4 exiting successfully. Buy a developer a beer!
