                               Psi4 1.8.2 release

  ==> Input File <==

--------------------------------------------------------------------------
MEMORY 60 GB

molecule dimer {
1 1
Li         0.000000     0.000000     0.000000
O         -0.960185    -1.720806     0.734715
H         -1.609753    -1.980636     0.053101
H         -1.464227    -1.639800     1.581140
O         -0.437682     0.868054     1.944262
H          0.112980     1.630091     1.719873
H          0.152970     0.176865     2.309788
O         -1.028560     1.162893    -1.082054
H         -1.748052     1.570993    -0.564156
H         -1.147301     1.431115    -1.976130
O          1.527560    -0.693332    -0.338641
H          1.804729    -1.158174    -1.131997
H          2.284838    -0.148433    -0.221551

units ang
no_reorient
no_com
symmetry c1
}

set {
basis        aug-cc-pVTZ
scf_type     df
}

energy("mp2")
--------------------------------------------------------------------------

    Molecular point group: c1

    Geometry (in Angstrom), charge = 1, multiplicity = 1:

       Center              X                  Y                   Z               Mass
    ------------   -----------------  -----------------  -----------------  -----------------
         LI           0.000000000000     0.000000000000     0.000000000000     7.016003436600
         O           -0.960185000000    -1.720806000000     0.734715000000    15.994914619570
         H           -1.609753000000    -1.980636000000     0.053101000000     1.007825032230
         H           -1.464227000000    -1.639800000000     1.581140000000     1.007825032230
         O           -0.437682000000     0.868054000000     1.944262000000    15.994914619570
         H            0.112980000000     1.630091000000     1.719873000000     1.007825032230
         H            0.152970000000     0.176865000000     2.309788000000     1.007825032230
         O           -1.028560000000     1.162893000000    -1.082054000000    15.994914619570
         H           -1.748052000000     1.570993000000    -0.564156000000     1.007825032230
         H           -1.147301000000     1.431115000000    -1.976130000000     1.007825032230
         O            1.527560000000    -0.693332000000    -0.338641000000    15.994914619570
         H            1.804729000000    -1.158174000000    -1.131997000000     1.007825032230
         H            2.284838000000    -0.148433000000    -0.221551000000     1.007825032230

  Charge       = 1
  Multiplicity = 1
  Basis Set: AUG-CC-PVTZ
    Blend: AUG-CC-PVTZ
  Basis Set: (AUG-CC-PVTZ AUX)
    Blend: AUG-CC-PVTZ-JKFIT + DEF2-UNIVERSAL-JKFIT

    Orbital Energies [Eh]
    ---------------------

    Doubly Occupied:

       1A    -20.767665     2A    -20.759052     3A    -20.748782
       4A    -20.736948     5A     -2.546071     6A     -1.572720
       7A     -1.550241     8A     -1.528896     9A     -1.511039
      10A     -0.919368    11A     -0.917262    12A     -0.898736
      13A     -0.874317    14A     -0.835159    15A     -0.802197
      16A     -0.760479    17A     -0.756271    18A     -0.726569
      19A     -0.711515    20A     -0.702358    21A     -0.677126

  @DF-RHF Final Energy:  -311.60822407302743

   => Energetics <=

    Nuclear Repulsion Energy =            164.5484005542320745
    One-Electron Energy =                -749.7077076608560446
    Two-Electron Energy =                 273.5510830335965125
    Total Energy =                       -311.6082240730274293
 Dipole X            :         16.6843867          -16.6385699            0.0458168
 Dipole Y            :          6.3991954           -6.0159563            0.3832390
 Dipole Z            :        -22.8294781           22.3674107           -0.4620674
 Magnitude           :                                                    0.6020612
  Basis Set: (AUG-CC-PVTZ AUX)
    Blend: AUG-CC-PVTZ-RI + DEF2-QZVPP-RI
	 Reference Energy          =    -311.6082240730274293 [Eh]
	 Singles Energy            =      -0.0000000000000000 [Eh]
	 Same-Spin Energy          =      -0.2763614504311552 [Eh]
	 Opposite-Spin Energy      =      -0.8802147471433391 [Eh]
	 Correlation Energy        =      -1.1565761975744944 [Eh]
	 Total Energy              =    -312.7648002706019383 [Eh]

	 ================> DF-SCS-MP2 Energies <==================
	-----------------------------------------------------------
	 SCS Same-Spin Scale       =       0.3333333333333333 [-]
	 SCS Opposite-Spin Scale   =       1.2000000000000000 [-]
	 SCS Same-Spin Energy      =      -0.0921204834770517 [Eh]
	 SCS Opposite-Spin Energy  =      -1.0562576965720070 [Eh]
	 SCS Correlation Energy    =      -1.1483781800490587 [Eh]
	 SCS Total Energy          =    -312.7566022530764940 [Eh]
	-----------------------------------------------------------

*** Psi4 exiting successfully. Buy a developer a beer!
