                               Psi4 1.8.2 release

  ==> Input File <==

--------------------------------------------------------------------------
MEMORY 60 GB

molecule dimer {
1 1
Li         0.000000     0.000000     0.000000
O         -0.255509     0.069921    -1.836571
H         -1.027344    -0.133534    -2.387653
H          0.486014    -0.175560    -2.395908
O          0.397253    -1.764707     0.271805
H          1.046759    -2.177183     0.906020
H          0.429144    -2.436723    -0.416891
O         -0.827489     1.270939     1.147935
H         -0.600437     2.141304     1.571362
H         -1.791433     1.178595     1.173077

units ang
no_reorient
no_com
symmetry c1
}

set {
basis        aug-cc-pVTZ
scf_type     df
}

energy("mp2")
--------------------------------------------------------------------------

    Molecular point group: c1

    Geometry (in Angstrom), charge = 1, multiplicity = 1:

       Center              X                  Y                   Z               Mass
    ------------   -----------------  -----------------  -----------------  -----------------
         LI           0.000000000000     0.000000000000     0.000000000000     7.016003436600
         O           -0.255509000000     0.069921000000    -1.836571000000    15.994914619570
         H           -1.027344000000    -0.133534000000    -2.387653000000     1.007825032230
         H            0.486014000000    -0.175560000000    -2.395908000000     1.007825032230
         O            0.397253000000    -1.764707000000     0.271805000000    15.994914619570
         H            1.046759000000    -2.177183000000     0.906020000000     1.007825032230
         H            0.429144000000    -2.436723000000    -0.416891000000     1.007825032230
         O           -0.827489000000     1.270939000000     1.147935000000    15.994914619570
         H           -0.600437000000     2.141304000000     1.571362000000     1.007825032230
         H           -1.791433000000     1.178595000000     1.173077000000     1.007825032230

  Charge       = 1
  Multiplicity = 1
  Basis Set: AUG-CC-PVTZ
    Blend: AUG-CC-PVTZ
  Basis Set: (AUG-CC-PVTZ AUX)
    Blend: AUG-CC-PVTZ-JKFIT + DEF2-UNIVERSAL-JKFIT

    Orbital Energies [Eh]
    ---------------------

    Doubly Occupied:

       1A    -20.771144     2A    -20.766887     3A    -20.760667
       4A     -2.561998     5A     -1.557036     6A     -1.551606
       7A     -1.536929     8A     -0.913933     9A     -0.904308
      10A     -0.896434    11A     -0.826107    12A     -0.812150
      13A     -0.795021    14A     -0.724652    15A     -0.712053
      16A     -0.705686

  @DF-RHF Final Energy:  -235.54450988899001

   => Energetics <=

    Nuclear Repulsion Energy =             98.7264228644555430
    One-Electron Energy =                -514.9486380673278063
    Two-Electron Energy =                 180.6777053138822282
    Total Energy =                       -235.5445098889900066
 Dipole X            :         12.9365640          -13.1208541           -0.1842902
 Dipole Y            :          8.8573588           -9.4370598           -0.5797011
 Dipole Z            :          8.6679918           -9.2306337           -0.5626419
 Magnitude           :                                                    0.8286025
  Basis Set: (AUG-CC-PVTZ AUX)
    Blend: AUG-CC-PVTZ-RI + DEF2-QZVPP-RI
	 Reference Energy          =    -235.5445098889900066 [Eh]
	 Singles Energy            =      -0.0000000000000000 [Eh]
	 Same-Spin Energy          =      -0.2063072474413308 [Eh]
	 Opposite-Spin Energy      =      -0.6622096479003183 [Eh]
	 Correlation Energy        =      -0.8685168953416491 [Eh]
	 Total Energy              =    -236.4130267843316631 [Eh]

	 ================> DF-SCS-MP2 Energies <==================
	-----------------------------------------------------------
	 SCS Same-Spin Scale       =       0.3333333333333333 [-]
	 SCS Opposite-Spin Scale   =       1.2000000000000000 [-]
	 SCS Same-Spin Energy      =      -0.0687690824804436 [Eh]
	 SCS Opposite-Spin Energy  =      -0.7946515774803820 [Eh]
	 SCS Correlation Energy    =      -0.8634206599608255 [Eh]
	 SCS Total Energy          =    -236.4079305489508442 [Eh]
	-----------------------------------------------------------

*** Psi4 exiting successfully. Buy a developer a beer!
