                               Psi4 1.9 release

  ==> Input File <==

--------------------------------------------------------------------------
MEMORY 60 GB

molecule dimer {
1 1
Li     0.000000     0.000000     0.000000
--
0 1
O      1.133636     1.160128     1.243272
H      1.434853     0.831187     2.107622
H      1.945824     1.527758     0.841027
O     -0.306541     1.258901    -1.187418
H      0.454497     1.234098    -1.696850
H     -0.979760     1.240604    -1.874525
O      1.574698    -0.881807    -0.658457
H      1.954431    -1.193772    -1.507817
H      2.305375    -0.692560    -0.134613
O     -1.760856    -0.323595     1.014546
H     -1.586028    -0.713078     1.866818
H     -2.486655    -0.870309     0.629301

units ang
no_reorient
no_com
symmetry c1
}

set {
basis        aug-cc-pVTZ
scf_type     df
}

energy("mp2", bsse_type="cp")
--------------------------------------------------------------------------

                               Psi4 1.9 release
    Molecular point group: c1
  Charge       = 0
  Multiplicity = 1
  Basis Set: AUG-CC-PVTZ
    Blend: AUG-CC-PVTZ
  Basis Set: (AUG-CC-PVTZ AUX)
    Blend: AUG-CC-PVTZ-JKFIT + DEF2-UNIVERSAL-JKFIT
  @DF-RHF Final Energy:  -304.20883524118585
    Total Energy =                       -304.2088352411858523
 Dipole X            :        -14.3605487           15.4391248            1.0785761
 Dipole Y            :        -21.6253757           20.9248316           -0.7005441
 Dipole Z            :         -6.9880021            6.6641324           -0.3238697
 Magnitude           :                                                    1.3262655
  Basis Set: (AUG-CC-PVTZ AUX)
    Blend: AUG-CC-PVTZ-RI + DEF2-QZVPP-RI
	 Reference Energy          =    -304.2088352411858523 [Eh]
	 Singles Energy            =      -0.0000000000000000 [Eh]
	 Same-Spin Energy          =      -0.2778648421293914 [Eh]
	 Opposite-Spin Energy      =      -0.8700180585025667 [Eh]
	 Correlation Energy        =      -1.1478829006319582 [Eh]
	 Total Energy              =    -305.3567181418177938 [Eh]
	 SCS Total Energy          =    -305.3454785254320427 [Eh]
                               Psi4 1.9 release
    Molecular point group: c1
  Multiplicity = 1
  Basis Set: AUG-CC-PVTZ
    Blend: AUG-CC-PVTZ
  Basis Set: (AUG-CC-PVTZ AUX)
    Blend: AUG-CC-PVTZ-JKFIT + DEF2-UNIVERSAL-JKFIT
  @DF-RHF Final Energy:    -7.23638493248617
    Total Energy =                         -7.2363849324861684
  Basis Set: (AUG-CC-PVTZ AUX)
	 Singles Energy            =      -0.0000000000000000 [Eh]
	 Same-Spin Energy          =       0.0000000000000000 [Eh]
	 Opposite-Spin Energy      =      -0.0174078491931373 [Eh]
	 Correlation Energy        =      -0.0174078491931373 [Eh]
	 Total Energy              =      -7.2537927816793060 [Eh]
	 SCS Total Energy          =      -7.2572743515179337 [Eh]
                               Psi4 1.9 release
    Molecular point group: c1

    Geometry (in Bohr), charge = 1, multiplicity = 1:

       Center              X                  Y                   Z               Mass
    ------------   -----------------  -----------------  -----------------  -----------------
         LI           0.000000000000     0.000000000000     0.000000000000     7.016003436600
         O            2.142261565960     2.192324190475     2.349443579450    15.994914619570
         H            2.711479200292     1.570715789041     3.982828355990     1.007825032230
         H            3.677074448343     2.887044205977     1.589310694115     1.007825032230
         O           -0.579278536224     2.378978109065    -2.243894816439    15.994914619570
         H            0.858874854842     2.332107231975    -3.206581775983     1.007825032230
         H           -1.851478068679     2.344401790147    -3.542338865324     1.007825032230
         O            2.975747950306    -1.666373725512    -1.244303395391    15.994914619570
         H            3.693339321105    -2.255902136240    -2.849361177309     1.007825032230
         H            4.356527366477    -1.308748725447    -0.254381702926     1.007825032230
         O           -3.327535586369    -0.611505925568     1.917214081679    15.994914619570
         H           -2.997158547308    -1.347522126089     3.527774746075     1.007825032230
         H           -4.699096918500    -1.644645654521     1.189206540477     1.007825032230

  Charge       = 1
  Multiplicity = 1
  Basis Set: AUG-CC-PVTZ
    Blend: AUG-CC-PVTZ
  Basis Set: (AUG-CC-PVTZ AUX)
    Blend: AUG-CC-PVTZ-JKFIT + DEF2-UNIVERSAL-JKFIT

    Orbital Energies [Eh]
    ---------------------

    Doubly Occupied:

       1A    -20.761016     2A    -20.748363     3A    -20.745297
       4A    -20.741097     5A     -2.533383     6A     -1.562314
       7A     -1.556751     8A     -1.528257     9A     -1.522652
      10A     -0.922906    11A     -0.909723    12A     -0.887762
      13A     -0.883023    14A     -0.811973    15A     -0.807028
      16A     -0.771067    17A     -0.765202    18A     -0.723791
      19A     -0.704362    20A     -0.692639    21A     -0.688105

  @DF-RHF Final Energy:  -311.61258538256220

   => Energetics <=

    Nuclear Repulsion Energy =            166.3550299829138055
    One-Electron Energy =                -753.4018029806142067
    Two-Electron Energy =                 275.4341876151381712
    Total Energy =                       -311.6125853825622016
 Dipole X            :        -14.1923175           15.4391248            1.2468073
 Dipole Y            :        -21.4569604           20.9248316           -0.5321288
 Dipole Z            :         -7.0400536            6.6641324           -0.3759212
 Magnitude           :                                                    1.4067716
  Basis Set: (AUG-CC-PVTZ AUX)
    Blend: AUG-CC-PVTZ-RI + DEF2-QZVPP-RI
	 Reference Energy          =    -311.6125853825622016 [Eh]
	 Singles Energy            =      -0.0000000000000000 [Eh]
	 Same-Spin Energy          =      -0.2761826370696289 [Eh]
	 Opposite-Spin Energy      =      -0.8795944666803943 [Eh]
	 Correlation Energy        =      -1.1557771037500233 [Eh]
	 Total Energy              =    -312.7683624863122418 [Eh]

	 ================> DF-SCS-MP2 Energies <==================
	-----------------------------------------------------------
	 SCS Same-Spin Scale       =       0.3333333333333333 [-]
	 SCS Opposite-Spin Scale   =       1.2000000000000000 [-]
	 SCS Same-Spin Energy      =      -0.0920608790232096 [Eh]
	 SCS Opposite-Spin Energy  =      -1.0555133600164732 [Eh]
	 SCS Correlation Energy    =      -1.1475742390396828 [Eh]
	 SCS Total Energy          =    -312.7601596216018720 [Eh]
	-----------------------------------------------------------

*** Psi4 exiting successfully. Buy a developer a beer!
