                               Psi4 1.8.2 release

  ==> Input File <==

--------------------------------------------------------------------------
MEMORY 60 GB

molecule dimer {
0 1
Gh(Li)     0.000000     0.000000     0.000000
Gh(O)      0.814019    -1.627178    -0.750547
Gh(H)      0.515286    -1.888018    -1.619965
Gh(H)      1.776685    -1.477163    -0.804751
Gh(O)     -1.975126    -0.101471     0.138953
Gh(H)     -2.662290     0.539971     0.324561
Gh(H)     -2.473143    -0.849112    -0.390923
Gh(O)      0.507752     1.359512    -1.147321
Gh(H)      1.373943     1.714330    -1.381481
Gh(H)      0.123691     1.025614    -1.939705
O          0.223291    -0.134039     1.993173
H          1.169830    -0.151311     2.130046
H          0.009339     0.679243     2.474654

units ang
no_reorient
no_com
symmetry c1
}

set {
basis        aug-cc-pVTZ
scf_type     df
}

energy("mp2")
--------------------------------------------------------------------------

    Molecular point group: c1

    Geometry (in Angstrom), charge = 0, multiplicity = 1:

       Center              X                  Y                   Z               Mass
    ------------   -----------------  -----------------  -----------------  -----------------
      Gh(LI)          0.000000000000     0.000000000000     0.000000000000     7.016003436600
      Gh(O)           0.814019000000    -1.627178000000    -0.750547000000    15.994914619570
      Gh(H)           0.515286000000    -1.888018000000    -1.619965000000     1.007825032230
      Gh(H)           1.776685000000    -1.477163000000    -0.804751000000     1.007825032230
      Gh(O)          -1.975126000000    -0.101471000000     0.138953000000    15.994914619570
      Gh(H)          -2.662290000000     0.539971000000     0.324561000000     1.007825032230
      Gh(H)          -2.473143000000    -0.849112000000    -0.390923000000     1.007825032230
      Gh(O)           0.507752000000     1.359512000000    -1.147321000000    15.994914619570
      Gh(H)           1.373943000000     1.714330000000    -1.381481000000     1.007825032230
      Gh(H)           0.123691000000     1.025614000000    -1.939705000000     1.007825032230
         O            0.223291000000    -0.134039000000     1.993173000000    15.994914619570
         H            1.169830000000    -0.151311000000     2.130046000000     1.007825032230
         H            0.009339000000     0.679243000000     2.474654000000     1.007825032230

  Charge       = 0
  Multiplicity = 1
  Basis Set: AUG-CC-PVTZ
    Blend: AUG-CC-PVTZ
  Basis Set: (AUG-CC-PVTZ AUX)
    Blend: AUG-CC-PVTZ-JKFIT + DEF2-UNIVERSAL-JKFIT

    Orbital Energies [Eh]
    ---------------------

    Doubly Occupied:

       1A    -20.570119     2A     -1.354429     3A     -0.704417
       4A     -0.593906     5A     -0.511362

  @DF-RHF Final Energy:   -76.05924642168580

   => Energetics <=

    Nuclear Repulsion Energy =              9.1549108391362068
    One-Electron Energy =                -122.9598460621604374
    Two-Electron Energy =                  37.7456888013384457
    Total Energy =                        -76.0592464216857849
 Dipole X            :         -5.1236696            5.6039772            0.4803076
 Dipole Y            :          1.5469932           -1.0287291            0.5182641
 Dipole Z            :        -38.4306368           38.8340306            0.4033938
 Magnitude           :                                                    0.8136459
  Basis Set: (AUG-CC-PVTZ AUX)
    Blend: AUG-CC-PVTZ-RI + DEF2-QZVPP-RI
	 Reference Energy          =     -76.0592464216857991 [Eh]
	 Singles Energy            =      -0.0000000000000000 [Eh]
	 Same-Spin Energy          =      -0.0686549771959342 [Eh]
	 Opposite-Spin Energy      =      -0.2166382361659774 [Eh]
	 Correlation Energy        =      -0.2852932133619116 [Eh]
	 Total Energy              =     -76.3445396350477097 [Eh]

	 ================> DF-SCS-MP2 Energies <==================
	-----------------------------------------------------------
	 SCS Same-Spin Scale       =       0.3333333333333333 [-]
	 SCS Opposite-Spin Scale   =       1.2000000000000000 [-]
	 SCS Same-Spin Energy      =      -0.0228849923986447 [Eh]
	 SCS Opposite-Spin Energy  =      -0.2599658833991729 [Eh]
	 SCS Correlation Energy    =      -0.2828508757978176 [Eh]
	 SCS Total Energy          =     -76.3420972974836189 [Eh]
	-----------------------------------------------------------

*** Psi4 exiting successfully. Buy a developer a beer!
