                               Psi4 1.8.2 release

  ==> Input File <==

--------------------------------------------------------------------------
MEMORY 60 GB

molecule dimer {
1 1
Li         0.000000     0.000000     0.000000
O         -0.266443     1.938313    -0.248340
H         -0.088316     2.610611    -0.926278
H         -0.885622     2.402495     0.339436
O         -1.305581    -1.041945    -1.192735
H         -1.614892    -1.898100    -0.899961
H         -0.845776    -1.154356    -2.000716
O          2.066109    -0.498860    -0.290542
H          2.623530    -0.650184     0.499648
H          2.518418    -0.862145    -1.036711
O         -0.099893    -0.786188     1.651962
H          0.363831    -1.589227     1.918952
H         -1.018921    -0.908196     1.943922

units ang
no_reorient
no_com
symmetry c1
}

set {
basis        aug-cc-pVTZ
scf_type     df
}

energy("mp2")
--------------------------------------------------------------------------

    Molecular point group: c1

    Geometry (in Angstrom), charge = 1, multiplicity = 1:

       Center              X                  Y                   Z               Mass
    ------------   -----------------  -----------------  -----------------  -----------------
         LI           0.000000000000     0.000000000000     0.000000000000     7.016003436600
         O           -0.266443000000     1.938313000000    -0.248340000000    15.994914619570
         H           -0.088316000000     2.610611000000    -0.926278000000     1.007825032230
         H           -0.885622000000     2.402495000000     0.339436000000     1.007825032230
         O           -1.305581000000    -1.041945000000    -1.192735000000    15.994914619570
         H           -1.614892000000    -1.898100000000    -0.899961000000     1.007825032230
         H           -0.845776000000    -1.154356000000    -2.000716000000     1.007825032230
         O            2.066109000000    -0.498860000000    -0.290542000000    15.994914619570
         H            2.623530000000    -0.650184000000     0.499648000000     1.007825032230
         H            2.518418000000    -0.862145000000    -1.036711000000     1.007825032230
         O           -0.099893000000    -0.786188000000     1.651962000000    15.994914619570
         H            0.363831000000    -1.589227000000     1.918952000000     1.007825032230
         H           -1.018921000000    -0.908196000000     1.943922000000     1.007825032230

  Charge       = 1
  Multiplicity = 1
  Basis Set: AUG-CC-PVTZ
    Blend: AUG-CC-PVTZ
  Basis Set: (AUG-CC-PVTZ AUX)
    Blend: AUG-CC-PVTZ-JKFIT + DEF2-UNIVERSAL-JKFIT

    Orbital Energies [Eh]
    ---------------------

    Doubly Occupied:

       1A    -20.757295     2A    -20.741041     3A    -20.740868
       4A    -20.737026     5A     -2.536130     6A     -1.545130
       7A     -1.537735     8A     -1.523560     9A     -1.522471
      10A     -0.911613    11A     -0.908364    12A     -0.892166
      13A     -0.878727    14A     -0.799818    15A     -0.785074
      16A     -0.770688    17A     -0.763717    18A     -0.715707
      19A     -0.691922    20A     -0.686967    21A     -0.682501

  @DF-RHF Final Energy:  -311.62837519350387

   => Energetics <=

    Nuclear Repulsion Energy =            160.0941061790170465
    One-Electron Energy =                -741.1879175345148951
    Two-Electron Energy =                 269.4654361619939209
    Total Energy =                       -311.6283751935038708
 Dipole X            :         -7.7190064            7.9477875            0.2287811
 Dipole Y            :          8.8336001           -9.7482316           -0.9146315
 Dipole Z            :          1.5242015           -1.5097929            0.0144086
 Magnitude           :                                                    0.9429206
  Basis Set: (AUG-CC-PVTZ AUX)
    Blend: AUG-CC-PVTZ-RI + DEF2-QZVPP-RI
	 Reference Energy          =    -311.6283751935038708 [Eh]
	 Singles Energy            =      -0.0000000000000000 [Eh]
	 Same-Spin Energy          =      -0.2749577600904446 [Eh]
	 Opposite-Spin Energy      =      -0.8773050321922944 [Eh]
	 Correlation Energy        =      -1.1522627922827391 [Eh]
	 Total Energy              =    -312.7806379857865977 [Eh]

	 ================> DF-SCS-MP2 Energies <==================
	-----------------------------------------------------------
	 SCS Same-Spin Scale       =       0.3333333333333333 [-]
	 SCS Opposite-Spin Scale   =       1.2000000000000000 [-]
	 SCS Same-Spin Energy      =      -0.0916525866968149 [Eh]
	 SCS Opposite-Spin Energy  =      -1.0527660386307531 [Eh]
	 SCS Correlation Energy    =      -1.1444186253275681 [Eh]
	 SCS Total Energy          =    -312.7727938188314170 [Eh]
	-----------------------------------------------------------

*** Psi4 exiting successfully. Buy a developer a beer!
