                               Psi4 1.8.2 release

  ==> Input File <==

--------------------------------------------------------------------------
MEMORY 60 GB

molecule dimer {
0 1
Gh(Li)     0.000000     0.000000     0.000000
Gh(O)      1.718350     0.176551     0.544897
Gh(H)      2.140398     0.825322    -0.025747
Gh(H)      1.574066     0.694093     1.420858
O         -0.618594     1.178660    -1.431382
H         -1.462932     1.491536    -1.765382
H         -0.007693     1.643578    -2.053149
Gh(O)     -0.276860    -1.382086    -1.514478
Gh(H)     -0.026138    -2.301828    -1.619613
Gh(H)     -0.080953    -0.943301    -2.378795
Gh(O)     -1.025451    -0.316730     1.697479
Gh(H)     -1.827661    -0.788100     1.402480
Gh(H)     -0.931749    -0.447840     2.626507

units ang
no_reorient
no_com
symmetry c1
}

set {
basis        aug-cc-pVTZ
scf_type     df
}

energy("mp2")
--------------------------------------------------------------------------

    Molecular point group: c1

    Geometry (in Angstrom), charge = 0, multiplicity = 1:

       Center              X                  Y                   Z               Mass
    ------------   -----------------  -----------------  -----------------  -----------------
      Gh(LI)          0.000000000000     0.000000000000     0.000000000000     7.016003436600
      Gh(O)           1.718350000000     0.176551000000     0.544897000000    15.994914619570
      Gh(H)           2.140398000000     0.825322000000    -0.025747000000     1.007825032230
      Gh(H)           1.574066000000     0.694093000000     1.420858000000     1.007825032230
         O           -0.618594000000     1.178660000000    -1.431382000000    15.994914619570
         H           -1.462932000000     1.491536000000    -1.765382000000     1.007825032230
         H           -0.007693000000     1.643578000000    -2.053149000000     1.007825032230
      Gh(O)          -0.276860000000    -1.382086000000    -1.514478000000    15.994914619570
      Gh(H)          -0.026138000000    -2.301828000000    -1.619613000000     1.007825032230
      Gh(H)          -0.080953000000    -0.943301000000    -2.378795000000     1.007825032230
      Gh(O)          -1.025451000000    -0.316730000000     1.697479000000    15.994914619570
      Gh(H)          -1.827661000000    -0.788100000000     1.402480000000     1.007825032230
      Gh(H)          -0.931749000000    -0.447840000000     2.626507000000     1.007825032230

  Charge       = 0
  Multiplicity = 1
  Basis Set: AUG-CC-PVTZ
    Blend: AUG-CC-PVTZ
  Basis Set: (AUG-CC-PVTZ AUX)
    Blend: AUG-CC-PVTZ-JKFIT + DEF2-UNIVERSAL-JKFIT

    Orbital Energies [Eh]
    ---------------------

    Doubly Occupied:

       1A    -20.571850     2A     -1.348344     3A     -0.699598
       4A     -0.590562     5A     -0.510325

  @DF-RHF Final Energy:   -76.05807135776074

   => Energetics <=

    Nuclear Repulsion Energy =              9.0481532321310265
    One-Electron Energy =                -122.7710874873012159
    Two-Electron Energy =                  37.6648628974094564
    Total Energy =                        -76.0580713577607241
 Dipole X            :         11.9739673          -12.1308644           -0.1568971
 Dipole Y            :        -23.2386492           23.7432636            0.5046144
 Dipole Z            :         28.2357620          -28.8553375           -0.6195755
 Magnitude           :                                                    0.8143256
  Basis Set: (AUG-CC-PVTZ AUX)
    Blend: AUG-CC-PVTZ-RI + DEF2-QZVPP-RI
	 Reference Energy          =     -76.0580713577607384 [Eh]
	 Singles Energy            =      -0.0000000000000000 [Eh]
	 Same-Spin Energy          =      -0.0688515771613594 [Eh]
	 Opposite-Spin Energy      =      -0.2172826962154289 [Eh]
	 Correlation Energy        =      -0.2861342733767882 [Eh]
	 Total Energy              =     -76.3442056311375268 [Eh]

	 ================> DF-SCS-MP2 Energies <==================
	-----------------------------------------------------------
	 SCS Same-Spin Scale       =       0.3333333333333333 [-]
	 SCS Opposite-Spin Scale   =       1.2000000000000000 [-]
	 SCS Same-Spin Energy      =      -0.0229505257204531 [Eh]
	 SCS Opposite-Spin Energy  =      -0.2607392354585146 [Eh]
	 SCS Correlation Energy    =      -0.2836897611789678 [Eh]
	 SCS Total Energy          =     -76.3417611189397007 [Eh]
	-----------------------------------------------------------

*** Psi4 exiting successfully. Buy a developer a beer!
