                               Psi4 1.8.2 release

  ==> Input File <==

--------------------------------------------------------------------------
MEMORY 60 GB

molecule dimer {
0 1
Gh(Li)     0.000000     0.000000     0.000000
O         -1.794227     0.878304     0.383152
H         -2.284044     0.065626     0.360832
H         -2.211283     1.348316    -0.381184
Gh(O)      0.587966    -1.606327     0.751206
Gh(H)      0.384051    -2.413930     0.275990
Gh(H)      1.532090    -1.679654     1.064559
Gh(O)      1.426308     1.329057     0.381484
Gh(H)      1.492507     1.221218     1.387216
Gh(H)      2.369890     1.360172     0.089581
Gh(O)     -0.005725    -0.582202    -1.970709
Gh(H)     -0.732065    -0.750880    -2.621085
Gh(H)      0.674197    -1.253645    -2.250473

units ang
no_reorient
no_com
symmetry c1
}

set {
basis        aug-cc-pVTZ
scf_type     df
}

energy("mp2")
--------------------------------------------------------------------------

    Molecular point group: c1

    Geometry (in Angstrom), charge = 0, multiplicity = 1:

       Center              X                  Y                   Z               Mass
    ------------   -----------------  -----------------  -----------------  -----------------
      Gh(LI)          0.000000000000     0.000000000000     0.000000000000     7.016003436600
         O           -1.794227000000     0.878304000000     0.383152000000    15.994914619570
         H           -2.284044000000     0.065626000000     0.360832000000     1.007825032230
         H           -2.211283000000     1.348316000000    -0.381184000000     1.007825032230
      Gh(O)           0.587966000000    -1.606327000000     0.751206000000    15.994914619570
      Gh(H)           0.384051000000    -2.413930000000     0.275990000000     1.007825032230
      Gh(H)           1.532090000000    -1.679654000000     1.064559000000     1.007825032230
      Gh(O)           1.426308000000     1.329057000000     0.381484000000    15.994914619570
      Gh(H)           1.492507000000     1.221218000000     1.387216000000     1.007825032230
      Gh(H)           2.369890000000     1.360172000000     0.089581000000     1.007825032230
      Gh(O)          -0.005725000000    -0.582202000000    -1.970709000000    15.994914619570
      Gh(H)          -0.732065000000    -0.750880000000    -2.621085000000     1.007825032230
      Gh(H)           0.674197000000    -1.253645000000    -2.250473000000     1.007825032230

  Charge       = 0
  Multiplicity = 1
  Basis Set: AUG-CC-PVTZ
    Blend: AUG-CC-PVTZ
  Basis Set: (AUG-CC-PVTZ AUX)
    Blend: AUG-CC-PVTZ-JKFIT + DEF2-UNIVERSAL-JKFIT

    Orbital Energies [Eh]
    ---------------------

    Doubly Occupied:

       1A    -20.571021     2A     -1.351059     3A     -0.702189
       4A     -0.591488     5A     -0.510747

  @DF-RHF Final Energy:   -76.05814067943113

   => Energetics <=

    Nuclear Repulsion Energy =              9.0954062320183624
    One-Electron Energy =                -122.8540824252123542
    Two-Electron Energy =                  37.7005355137628513
    Total Energy =                        -76.0581406794311476
 Dipole X            :         35.0283748          -35.6197180           -0.5913432
 Dipole Y            :        -16.1799355           15.9499953           -0.2299402
 Dipole Z            :         -6.2623666            5.7539590           -0.5084076
 Magnitude           :                                                    0.8130422
  Basis Set: (AUG-CC-PVTZ AUX)
    Blend: AUG-CC-PVTZ-RI + DEF2-QZVPP-RI
	 Reference Energy          =     -76.0581406794311334 [Eh]
	 Singles Energy            =      -0.0000000000000000 [Eh]
	 Same-Spin Energy          =      -0.0687481960275058 [Eh]
	 Opposite-Spin Energy      =      -0.2169620412194986 [Eh]
	 Correlation Energy        =      -0.2857102372470044 [Eh]
	 Total Energy              =     -76.3438509166781358 [Eh]

	 ================> DF-SCS-MP2 Energies <==================
	-----------------------------------------------------------
	 SCS Same-Spin Scale       =       0.3333333333333333 [-]
	 SCS Opposite-Spin Scale   =       1.2000000000000000 [-]
	 SCS Same-Spin Energy      =      -0.0229160653425019 [Eh]
	 SCS Opposite-Spin Energy  =      -0.2603544494633983 [Eh]
	 SCS Correlation Energy    =      -0.2832705148059003 [Eh]
	 SCS Total Energy          =     -76.3414111942370397 [Eh]
	-----------------------------------------------------------

*** Psi4 exiting successfully. Buy a developer a beer!
