                               Psi4 1.8.2 release

  ==> Input File <==

--------------------------------------------------------------------------
MEMORY 60 GB

molecule dimer {
0 1
Gh(Li)     0.000000     0.000000     0.000000
O          0.893831    -0.282893     1.641377
H          0.718451     0.374103     2.337286
H          1.825254    -0.373815     1.492424
Gh(O)      1.120839     1.073113    -0.996718
Gh(H)      1.303960     0.761379    -1.868653
Gh(H)      0.652772     1.948855    -1.098737
Gh(O)     -1.672896     0.785810     0.484622
Gh(H)     -2.287744     0.750544    -0.303037
Gh(H)     -1.709276     1.657872     0.942048

units ang
no_reorient
no_com
symmetry c1
}

set {
basis        aug-cc-pVTZ
scf_type     df
}

energy("mp2")
--------------------------------------------------------------------------

    Molecular point group: c1

    Geometry (in Angstrom), charge = 0, multiplicity = 1:

       Center              X                  Y                   Z               Mass
    ------------   -----------------  -----------------  -----------------  -----------------
      Gh(LI)          0.000000000000     0.000000000000     0.000000000000     7.016003436600
         O            0.893831000000    -0.282893000000     1.641377000000    15.994914619570
         H            0.718451000000     0.374103000000     2.337286000000     1.007825032230
         H            1.825254000000    -0.373815000000     1.492424000000     1.007825032230
      Gh(O)           1.120839000000     1.073113000000    -0.996718000000    15.994914619570
      Gh(H)           1.303960000000     0.761379000000    -1.868653000000     1.007825032230
      Gh(H)           0.652772000000     1.948855000000    -1.098737000000     1.007825032230
      Gh(O)          -1.672896000000     0.785810000000     0.484622000000    15.994914619570
      Gh(H)          -2.287744000000     0.750544000000    -0.303037000000     1.007825032230
      Gh(H)          -1.709276000000     1.657872000000     0.942048000000     1.007825032230

  Charge       = 0
  Multiplicity = 1
  Basis Set: AUG-CC-PVTZ
    Blend: AUG-CC-PVTZ
  Basis Set: (AUG-CC-PVTZ AUX)
    Blend: AUG-CC-PVTZ-JKFIT + DEF2-UNIVERSAL-JKFIT

    Orbital Energies [Eh]
    ---------------------

    Doubly Occupied:

       1A    -20.564630     2A     -1.347712     3A     -0.727630
       4A     -0.572123     5A     -0.508197

  @DF-RHF Final Energy:   -76.05955375101102

   => Energetics <=

    Nuclear Repulsion Energy =              9.1531551887406373
    One-Electron Energy =                -122.9848297853828001
    Two-Electron Energy =                  37.7721208456311430
    Total Energy =                        -76.0595537510110091
 Dipole X            :        -17.8054512           18.3196721            0.5142210
 Dipole Y            :          4.6574424           -4.2761781            0.3812643
 Dipole Z            :        -31.6826414           32.0511270            0.3684856
 Magnitude           :                                                    0.7386253
  Basis Set: (AUG-CC-PVTZ AUX)
    Blend: AUG-CC-PVTZ-RI + DEF2-QZVPP-RI
	 Reference Energy          =     -76.0595537510110233 [Eh]
	 Singles Energy            =      -0.0000000000000000 [Eh]
	 Same-Spin Energy          =      -0.0683952349429566 [Eh]
	 Opposite-Spin Energy      =      -0.2157811608944066 [Eh]
	 Correlation Energy        =      -0.2841763958373633 [Eh]
	 Total Energy              =     -76.3437301468483867 [Eh]

	 ================> DF-SCS-MP2 Energies <==================
	-----------------------------------------------------------
	 SCS Same-Spin Scale       =       0.3333333333333333 [-]
	 SCS Opposite-Spin Scale   =       1.2000000000000000 [-]
	 SCS Same-Spin Energy      =      -0.0227984116476522 [Eh]
	 SCS Opposite-Spin Energy  =      -0.2589373930732879 [Eh]
	 SCS Correlation Energy    =      -0.2817358047209402 [Eh]
	 SCS Total Energy          =     -76.3412895557319615 [Eh]
	-----------------------------------------------------------

*** Psi4 exiting successfully. Buy a developer a beer!
