                               Psi4 1.8.2 release

  ==> Input File <==

--------------------------------------------------------------------------
MEMORY 60 GB

molecule dimer {
1 1
Li         0.000000     0.000000     0.000000
O          0.417117    -1.590090    -0.715265
H          0.113479    -1.780133    -1.561165
H         -0.072674    -2.333038    -0.261775
O         -0.978605     0.856936    -1.604785
H         -0.831895     0.649771    -2.541595
H         -1.405275     1.676017    -1.545406
O          1.758787     1.151787     0.325826
H          1.656124     1.242794     1.331459
H          2.733052     0.921730     0.180866
O         -0.660341    -0.397747     1.752656
H         -1.486978    -0.023294     2.186827
H         -0.498526    -1.285573     1.955375

units ang
no_reorient
no_com
symmetry c1
}

set {
basis        aug-cc-pVTZ
scf_type     df
}

energy("mp2")
--------------------------------------------------------------------------

    Molecular point group: c1

    Geometry (in Angstrom), charge = 1, multiplicity = 1:

       Center              X                  Y                   Z               Mass
    ------------   -----------------  -----------------  -----------------  -----------------
         LI           0.000000000000     0.000000000000     0.000000000000     7.016003436600
         O            0.417117000000    -1.590090000000    -0.715265000000    15.994914619570
         H            0.113479000000    -1.780133000000    -1.561165000000     1.007825032230
         H           -0.072674000000    -2.333038000000    -0.261775000000     1.007825032230
         O           -0.978605000000     0.856936000000    -1.604785000000    15.994914619570
         H           -0.831895000000     0.649771000000    -2.541595000000     1.007825032230
         H           -1.405275000000     1.676017000000    -1.545406000000     1.007825032230
         O            1.758787000000     1.151787000000     0.325826000000    15.994914619570
         H            1.656124000000     1.242794000000     1.331459000000     1.007825032230
         H            2.733052000000     0.921730000000     0.180866000000     1.007825032230
         O           -0.660341000000    -0.397747000000     1.752656000000    15.994914619570
         H           -1.486978000000    -0.023294000000     2.186827000000     1.007825032230
         H           -0.498526000000    -1.285573000000     1.955375000000     1.007825032230

  Charge       = 1
  Multiplicity = 1
  Basis Set: AUG-CC-PVTZ
    Blend: AUG-CC-PVTZ
  Basis Set: (AUG-CC-PVTZ AUX)
    Blend: AUG-CC-PVTZ-JKFIT + DEF2-UNIVERSAL-JKFIT

    Orbital Energies [Eh]
    ---------------------

    Doubly Occupied:

       1A    -20.761115     2A    -20.760418     3A    -20.738159
       4A    -20.732978     5A     -2.534418     6A     -1.561862
       7A     -1.547601     8A     -1.533857     9A     -1.487591
      10A     -0.931939    11A     -0.909601    12A     -0.895721
      13A     -0.849765    14A     -0.816425    15A     -0.785784
      16A     -0.776876    17A     -0.743235    18A     -0.723174
      19A     -0.708110    20A     -0.689106    21A     -0.669893

  @DF-RHF Final Energy:  -311.60639978753960

   => Energetics <=

    Nuclear Repulsion Energy =            161.8491216118168836
    One-Electron Energy =                -744.5957824232979192
    Two-Electron Energy =                 271.1402610239413775
    Total Energy =                       -311.6063997875396012
 Dipole X            :         -9.0914982            8.5093819           -0.5821163
 Dipole Y            :          0.7617618           -1.4449564           -0.6831946
 Dipole Z            :          4.2474828           -4.1346414            0.1128414
 Magnitude           :                                                    0.9046256
  Basis Set: (AUG-CC-PVTZ AUX)
    Blend: AUG-CC-PVTZ-RI + DEF2-QZVPP-RI
	 Reference Energy          =    -311.6063997875396012 [Eh]
	 Singles Energy            =      -0.0000000000000000 [Eh]
	 Same-Spin Energy          =      -0.2760833232337163 [Eh]
	 Opposite-Spin Energy      =      -0.8802360211244381 [Eh]
	 Correlation Energy        =      -1.1563193443581543 [Eh]
	 Total Energy              =    -312.7627191318977680 [Eh]

	 ================> DF-SCS-MP2 Energies <==================
	-----------------------------------------------------------
	 SCS Same-Spin Scale       =       0.3333333333333333 [-]
	 SCS Opposite-Spin Scale   =       1.2000000000000000 [-]
	 SCS Same-Spin Energy      =      -0.0920277744112387 [Eh]
	 SCS Opposite-Spin Energy  =      -1.0562832253493257 [Eh]
	 SCS Correlation Energy    =      -1.1483109997605645 [Eh]
	 SCS Total Energy          =    -312.7547107873001551 [Eh]
	-----------------------------------------------------------

*** Psi4 exiting successfully. Buy a developer a beer!
