                               Psi4 1.8.2 release

  ==> Input File <==

--------------------------------------------------------------------------
MEMORY 60 GB

molecule dimer {
1 1
Li         0.000000     0.000000     0.000000
O         -1.599702    -0.834408    -0.032075
H         -1.671490    -1.753336     0.164015
H         -2.104307    -0.340925     0.605746
O          0.005994     1.410873     1.210917
H         -0.817348     1.609443     0.914181
H         -0.067656     1.285409     2.156336
O          0.490183     0.722640    -1.670961
H          0.003584     0.447548    -2.436389
H          1.403239     0.553948    -1.838663

units ang
no_reorient
no_com
symmetry c1
}

set {
basis        aug-cc-pVTZ
scf_type     df
}

energy("mp2")
--------------------------------------------------------------------------

    Molecular point group: c1

    Geometry (in Angstrom), charge = 1, multiplicity = 1:

       Center              X                  Y                   Z               Mass
    ------------   -----------------  -----------------  -----------------  -----------------
         LI           0.000000000000     0.000000000000     0.000000000000     7.016003436600
         O           -1.599702000000    -0.834408000000    -0.032075000000    15.994914619570
         H           -1.671490000000    -1.753336000000     0.164015000000     1.007825032230
         H           -2.104307000000    -0.340925000000     0.605746000000     1.007825032230
         O            0.005994000000     1.410873000000     1.210917000000    15.994914619570
         H           -0.817348000000     1.609443000000     0.914181000000     1.007825032230
         H           -0.067656000000     1.285409000000     2.156336000000     1.007825032230
         O            0.490183000000     0.722640000000    -1.670961000000    15.994914619570
         H            0.003584000000     0.447548000000    -2.436389000000     1.007825032230
         H            1.403239000000     0.553948000000    -1.838663000000     1.007825032230

  Charge       = 1
  Multiplicity = 1
  Basis Set: AUG-CC-PVTZ
    Blend: AUG-CC-PVTZ
  Basis Set: (AUG-CC-PVTZ AUX)
    Blend: AUG-CC-PVTZ-JKFIT + DEF2-UNIVERSAL-JKFIT

    Orbital Energies [Eh]
    ---------------------

    Doubly Occupied:

       1A    -20.785927     2A    -20.771864     3A    -20.762571
       4A     -2.580103     5A     -1.590028     6A     -1.585990
       7A     -1.562491     8A     -0.963976     9A     -0.950601
      10A     -0.931207    11A     -0.826293    12A     -0.817842
      13A     -0.795324    14A     -0.754333    15A     -0.732068
      16A     -0.721233

  @DF-RHF Final Energy:  -235.52898935184547

   => Energetics <=

    Nuclear Repulsion Energy =            102.9978091218227831
    One-Electron Energy =                -522.7898900730368723
    Two-Electron Energy =                 184.2630915993686074
    Total Energy =                       -235.5289893518454676
 Dipole X            :         21.9146982          -22.8320074           -0.9173092
 Dipole Y            :        -23.4264384           23.0450721           -0.3813663
 Dipole Z            :          8.5553086           -8.2613648            0.2939437
 Magnitude           :                                                    1.0360016
  Basis Set: (AUG-CC-PVTZ AUX)
    Blend: AUG-CC-PVTZ-RI + DEF2-QZVPP-RI
	 Reference Energy          =    -235.5289893518454676 [Eh]
	 Singles Energy            =      -0.0000000000000000 [Eh]
	 Same-Spin Energy          =      -0.2049468267581150 [Eh]
	 Opposite-Spin Energy      =      -0.6579569235519405 [Eh]
	 Correlation Energy        =      -0.8629037503100555 [Eh]
	 Total Energy              =    -236.3918931021555352 [Eh]

	 ================> DF-SCS-MP2 Energies <==================
	-----------------------------------------------------------
	 SCS Same-Spin Scale       =       0.3333333333333333 [-]
	 SCS Opposite-Spin Scale   =       1.2000000000000000 [-]
	 SCS Same-Spin Energy      =      -0.0683156089193717 [Eh]
	 SCS Opposite-Spin Energy  =      -0.7895483082623286 [Eh]
	 SCS Correlation Energy    =      -0.8578639171817003 [Eh]
	 SCS Total Energy          =    -236.3868532690271707 [Eh]
	-----------------------------------------------------------

*** Psi4 exiting successfully. Buy a developer a beer!
