                               Psi4 1.8.2 release

  ==> Input File <==

--------------------------------------------------------------------------
MEMORY 60 GB

molecule dimer {
0 1
Gh(Li)     0.000000     0.000000     0.000000
Gh(O)     -0.956247     0.863490    -1.749096
Gh(H)     -1.677330     0.462424    -2.223924
Gh(H)     -1.171884     1.781797    -1.643295
O          1.646899     1.167929    -0.206984
H          2.398522     0.950578    -0.761776
H          2.002825     1.745984     0.467071
Gh(O)     -1.376351     0.325273     1.324880
Gh(H)     -1.378159    -0.485756     1.792733
Gh(H)     -2.258884     0.513625     1.057259
Gh(O)     -0.433367    -1.659207    -1.078943
Gh(H)     -0.338542    -2.445579    -0.643428
Gh(H)     -1.348443    -1.450485    -1.100673
Gh(O)      1.111588    -0.959952     1.543776
Gh(H)      0.882604    -1.906565     1.587702
Gh(H)      2.069318    -0.934575     1.478701

units ang
no_reorient
no_com
symmetry c1
}

set {
basis        aug-cc-pVTZ
scf_type     df
}

energy("mp2")
--------------------------------------------------------------------------

    Molecular point group: c1

    Geometry (in Angstrom), charge = 0, multiplicity = 1:

       Center              X                  Y                   Z               Mass
    ------------   -----------------  -----------------  -----------------  -----------------
      Gh(LI)          0.000000000000     0.000000000000     0.000000000000     7.016003436600
      Gh(O)          -0.956247000000     0.863490000000    -1.749096000000    15.994914619570
      Gh(H)          -1.677330000000     0.462424000000    -2.223924000000     1.007825032230
      Gh(H)          -1.171884000000     1.781797000000    -1.643295000000     1.007825032230
         O            1.646899000000     1.167929000000    -0.206984000000    15.994914619570
         H            2.398522000000     0.950578000000    -0.761776000000     1.007825032230
         H            2.002825000000     1.745984000000     0.467071000000     1.007825032230
      Gh(O)          -1.376351000000     0.325273000000     1.324880000000    15.994914619570
      Gh(H)          -1.378159000000    -0.485756000000     1.792733000000     1.007825032230
      Gh(H)          -2.258884000000     0.513625000000     1.057259000000     1.007825032230
      Gh(O)          -0.433367000000    -1.659207000000    -1.078943000000    15.994914619570
      Gh(H)          -0.338542000000    -2.445579000000    -0.643428000000     1.007825032230
      Gh(H)          -1.348443000000    -1.450485000000    -1.100673000000     1.007825032230
      Gh(O)           1.111588000000    -0.959952000000     1.543776000000    15.994914619570
      Gh(H)           0.882604000000    -1.906565000000     1.587702000000     1.007825032230
      Gh(H)           2.069318000000    -0.934575000000     1.478701000000     1.007825032230

  Charge       = 0
  Multiplicity = 1
  Basis Set: AUG-CC-PVTZ
    Blend: AUG-CC-PVTZ
  Basis Set: (AUG-CC-PVTZ AUX)
    Blend: AUG-CC-PVTZ-JKFIT + DEF2-UNIVERSAL-JKFIT

    Orbital Energies [Eh]
    ---------------------

    Doubly Occupied:

       1A    -20.566986     2A     -1.353002     3A     -0.717597
       4A     -0.584427     5A     -0.510212

  @DF-RHF Final Energy:   -76.06073706547097

   => Energetics <=

    Nuclear Repulsion Energy =              9.1879377058075722
    One-Electron Energy =                -123.0328974111937868
    Two-Electron Energy =                  37.7842226399152423
    Total Energy =                        -76.0607370654709740
 Dipole X            :        -32.4786549           33.2148449            0.7361901
 Dipole Y            :        -22.5121565           22.7522912            0.2401347
 Dipole Z            :          3.7656295           -3.6860563            0.0795732
 Magnitude           :                                                    0.7784423
  Basis Set: (AUG-CC-PVTZ AUX)
    Blend: AUG-CC-PVTZ-RI + DEF2-QZVPP-RI
	 Reference Energy          =     -76.0607370654709740 [Eh]
	 Singles Energy            =      -0.0000000000000000 [Eh]
	 Same-Spin Energy          =      -0.0684462029763685 [Eh]
	 Opposite-Spin Energy      =      -0.2160940100164729 [Eh]
	 Correlation Energy        =      -0.2845402129928413 [Eh]
	 Total Energy              =     -76.3452772784638114 [Eh]

	 ================> DF-SCS-MP2 Energies <==================
	-----------------------------------------------------------
	 SCS Same-Spin Scale       =       0.3333333333333333 [-]
	 SCS Opposite-Spin Scale   =       1.2000000000000000 [-]
	 SCS Same-Spin Energy      =      -0.0228154009921228 [Eh]
	 SCS Opposite-Spin Energy  =      -0.2593128120197674 [Eh]
	 SCS Correlation Energy    =      -0.2821282130118902 [Eh]
	 SCS Total Energy          =     -76.3428652784828614 [Eh]
	-----------------------------------------------------------

*** Psi4 exiting successfully. Buy a developer a beer!
