                               Psi4 1.9 release

  ==> Input File <==

--------------------------------------------------------------------------
MEMORY 60 GB

molecule dimer {
1 1
Li     0.000000     0.000000     0.000000
--
0 1
O     -1.789506    -1.056934    -0.088662
H     -2.270001    -1.416814     0.653930
H     -2.363175    -1.218597    -0.863242
O      0.279767     1.907371     0.284771
H      0.476565     2.388574    -0.523007
H      1.091074     1.967825     0.824365
O      0.700472    -0.401485    -1.683438
H      0.674482    -1.335976    -1.879120
H      0.103655     0.037381    -2.268641
O      1.421464    -0.932024     0.947236
H      1.436621    -1.871810     0.673333
H      1.380837    -1.071578     1.956669

units ang
no_reorient
no_com
symmetry c1
}

set {
basis        aug-cc-pVTZ
scf_type     df
}

energy("mp2", bsse_type="cp")
--------------------------------------------------------------------------

                               Psi4 1.9 release
    Molecular point group: c1
  Charge       = 0
  Multiplicity = 1
  Basis Set: AUG-CC-PVTZ
    Blend: AUG-CC-PVTZ
  Basis Set: (AUG-CC-PVTZ AUX)
    Blend: AUG-CC-PVTZ-JKFIT + DEF2-UNIVERSAL-JKFIT
  @DF-RHF Final Energy:  -304.21150677813455
    Total Energy =                       -304.2115067781345488
 Dipole X            :        -10.7398094           10.2567418           -0.4830676
 Dipole Y            :         11.0848480          -12.0669803           -0.9821323
 Dipole Z            :         10.6466096          -10.8592299           -0.2126203
 Magnitude           :                                                    1.1149644
  Basis Set: (AUG-CC-PVTZ AUX)
    Blend: AUG-CC-PVTZ-RI + DEF2-QZVPP-RI
	 Reference Energy          =    -304.2115067781345488 [Eh]
	 Singles Energy            =      -0.0000000000000000 [Eh]
	 Same-Spin Energy          =      -0.2779503030858004 [Eh]
	 Opposite-Spin Energy      =      -0.8711768780479039 [Eh]
	 Correlation Energy        =      -1.1491271811337043 [Eh]
	 Total Energy              =    -305.3606339592682275 [Eh]
	 SCS Total Energy          =    -305.3495691328206476 [Eh]
                               Psi4 1.9 release
    Molecular point group: c1
  Multiplicity = 1
  Basis Set: AUG-CC-PVTZ
    Blend: AUG-CC-PVTZ
  Basis Set: (AUG-CC-PVTZ AUX)
    Blend: AUG-CC-PVTZ-JKFIT + DEF2-UNIVERSAL-JKFIT
  @DF-RHF Final Energy:    -7.23638490217831
    Total Energy =                         -7.2363849021783127
  Basis Set: (AUG-CC-PVTZ AUX)
	 Singles Energy            =      -0.0000000000000000 [Eh]
	 Same-Spin Energy          =       0.0000000000000000 [Eh]
	 Opposite-Spin Energy      =      -0.0170572452471574 [Eh]
	 Correlation Energy        =      -0.0170572452471574 [Eh]
	 Total Energy              =      -7.2534421474254689 [Eh]
	 SCS Total Energy          =      -7.2568535964749010 [Eh]
                               Psi4 1.9 release
    Molecular point group: c1

    Geometry (in Bohr), charge = 1, multiplicity = 1:

       Center              X                  Y                   Z               Mass
    ------------   -----------------  -----------------  -----------------  -----------------
         LI           0.000000000000     0.000000000000     0.000000000000     7.016003436600
         O           -3.381676239864    -1.997315792685    -0.167546897735    15.994914619570
         H           -4.289680194515    -2.677390430714     1.235748605221     1.007825032230
         H           -4.465753536529    -2.302814587305    -1.631290959992     1.007825032230
         O            0.528683008941     3.604408809641     0.538139198473    15.994914619570
         H            0.900577330979     4.513750690389    -0.988339991697     1.007825032230
         H            2.061831042608     3.718650312829     1.557824077413     1.007825032230
         O            1.323700238552    -0.758696693479    -3.181236769188    15.994914619570
         H            1.274586256551    -2.524628750185    -3.551022156870     1.007825032230
         H            0.195879561534     0.070639852296    -4.287110166985     1.007825032230
         O            2.686177657198    -1.761270102354     1.790016616174    15.994914619570
         H            2.714820236081    -3.537208258893     1.272414961233     1.007825032230
         H            2.609403753899    -2.024988942066     3.697568528173     1.007825032230

  Charge       = 1
  Multiplicity = 1
  Basis Set: AUG-CC-PVTZ
    Blend: AUG-CC-PVTZ
  Basis Set: (AUG-CC-PVTZ AUX)
    Blend: AUG-CC-PVTZ-JKFIT + DEF2-UNIVERSAL-JKFIT

    Orbital Energies [Eh]
    ---------------------

    Doubly Occupied:

       1A    -20.759407     2A    -20.752912     3A    -20.751411
       4A    -20.744075     5A     -2.535684     6A     -1.551899
       7A     -1.536810     8A     -1.529326     9A     -1.526621
      10A     -0.922973    11A     -0.900590    12A     -0.892356
      13A     -0.870260    14A     -0.802696    15A     -0.791709
      16A     -0.773225    17A     -0.771359    18A     -0.714085
      19A     -0.703184    20A     -0.697318    21A     -0.695682

  @DF-RHF Final Energy:  -311.61614666826569

   => Energetics <=

    Nuclear Repulsion Energy =            163.8533716469648596
    One-Electron Energy =                -748.4918695894940583
    Two-Electron Energy =                 273.0223512742634853
    Total Energy =                       -311.6161466682656851
 Dipole X            :        -10.6163356           10.2567418           -0.3595939
 Dipole Y            :         10.9373875          -12.0669803           -1.1295929
 Dipole Z            :         10.5392661          -10.8592299           -0.3199638
 Magnitude           :                                                    1.2278699
  Basis Set: (AUG-CC-PVTZ AUX)
    Blend: AUG-CC-PVTZ-RI + DEF2-QZVPP-RI
	 Reference Energy          =    -311.6161466682656851 [Eh]
	 Singles Energy            =      -0.0000000000000000 [Eh]
	 Same-Spin Energy          =      -0.2764242094903935 [Eh]
	 Opposite-Spin Energy      =      -0.8808203038266676 [Eh]
	 Correlation Energy        =      -1.1572445133170612 [Eh]
	 Total Energy              =    -312.7733911815827241 [Eh]

	 ================> DF-SCS-MP2 Energies <==================
	-----------------------------------------------------------
	 SCS Same-Spin Scale       =       0.3333333333333333 [-]
	 SCS Opposite-Spin Scale   =       1.2000000000000000 [-]
	 SCS Same-Spin Energy      =      -0.0921414031634645 [Eh]
	 SCS Opposite-Spin Energy  =      -1.0569843645920012 [Eh]
	 SCS Correlation Energy    =      -1.1491257677554656 [Eh]
	 SCS Total Energy          =    -312.7652724360211778 [Eh]
	-----------------------------------------------------------

*** Psi4 exiting successfully. Buy a developer a beer!
