                               Psi4 1.8.2 release

  ==> Input File <==

--------------------------------------------------------------------------
MEMORY 60 GB

molecule dimer {
0 1
Gh(Li)     0.000000     0.000000     0.000000
Gh(O)      1.624676     0.930347    -0.687789
Gh(H)      1.665506     1.787976    -0.163954
Gh(H)      2.371292     0.410789    -0.401384
O          1.173391    -1.680161    -0.212338
H          2.036435    -1.610877    -0.690179
H          0.993748    -2.598798    -0.378489
Gh(O)     -1.459926     0.080801    -0.837685
Gh(H)     -1.519684     0.169931    -1.784495
Gh(H)     -2.009970    -0.641099    -0.565310
Gh(O)     -0.236587    -0.097317     1.963066
Gh(H)      0.470180    -0.606954     2.365849
Gh(H)     -0.104803     0.790192     2.342656

units ang
no_reorient
no_com
symmetry c1
}

set {
basis        aug-cc-pVTZ
scf_type     df
}

energy("mp2")
--------------------------------------------------------------------------

    Molecular point group: c1

    Geometry (in Angstrom), charge = 0, multiplicity = 1:

       Center              X                  Y                   Z               Mass
    ------------   -----------------  -----------------  -----------------  -----------------
      Gh(LI)          0.000000000000     0.000000000000     0.000000000000     7.016003436600
      Gh(O)           1.624676000000     0.930347000000    -0.687789000000    15.994914619570
      Gh(H)           1.665506000000     1.787976000000    -0.163954000000     1.007825032230
      Gh(H)           2.371292000000     0.410789000000    -0.401384000000     1.007825032230
         O            1.173391000000    -1.680161000000    -0.212338000000    15.994914619570
         H            2.036435000000    -1.610877000000    -0.690179000000     1.007825032230
         H            0.993748000000    -2.598798000000    -0.378489000000     1.007825032230
      Gh(O)          -1.459926000000     0.080801000000    -0.837685000000    15.994914619570
      Gh(H)          -1.519684000000     0.169931000000    -1.784495000000     1.007825032230
      Gh(H)          -2.009970000000    -0.641099000000    -0.565310000000     1.007825032230
      Gh(O)          -0.236587000000    -0.097317000000     1.963066000000    15.994914619570
      Gh(H)           0.470180000000    -0.606954000000     2.365849000000     1.007825032230
      Gh(H)          -0.104803000000     0.790192000000     2.342656000000     1.007825032230

  Charge       = 0
  Multiplicity = 1
  Basis Set: AUG-CC-PVTZ
    Blend: AUG-CC-PVTZ
  Basis Set: (AUG-CC-PVTZ AUX)
    Blend: AUG-CC-PVTZ-JKFIT + DEF2-UNIVERSAL-JKFIT

    Orbital Energies [Eh]
    ---------------------

    Doubly Occupied:

       1A    -20.571651     2A     -1.351737     3A     -0.699223
       4A     -0.594018     5A     -0.511054

  @DF-RHF Final Energy:   -76.05774202558929

   => Energetics <=

    Nuclear Repulsion Energy =              9.0939422622324511
    One-Electron Energy =                -122.8480011826053158
    Two-Electron Energy =                  37.6963168947835783
    Total Energy =                        -76.0577420255892918
 Dipole X            :        -23.0273037           23.4653170            0.4380133
 Dipole Y            :         32.7991305          -33.3554859           -0.5563554
 Dipole Z            :          4.8135297           -5.2295752           -0.4160455
 Magnitude           :                                                    0.8212678
  Basis Set: (AUG-CC-PVTZ AUX)
    Blend: AUG-CC-PVTZ-RI + DEF2-QZVPP-RI
	 Reference Energy          =     -76.0577420255892918 [Eh]
	 Singles Energy            =      -0.0000000000000000 [Eh]
	 Same-Spin Energy          =      -0.0688019959078072 [Eh]
	 Opposite-Spin Energy      =      -0.2170668691410707 [Eh]
	 Correlation Energy        =      -0.2858688650488779 [Eh]
	 Total Energy              =     -76.3436108906381747 [Eh]

	 ================> DF-SCS-MP2 Energies <==================
	-----------------------------------------------------------
	 SCS Same-Spin Scale       =       0.3333333333333333 [-]
	 SCS Opposite-Spin Scale   =       1.2000000000000000 [-]
	 SCS Same-Spin Energy      =      -0.0229339986359357 [Eh]
	 SCS Opposite-Spin Energy  =      -0.2604802429692848 [Eh]
	 SCS Correlation Energy    =      -0.2834142416052206 [Eh]
	 SCS Total Energy          =     -76.3411562671945063 [Eh]
	-----------------------------------------------------------

*** Psi4 exiting successfully. Buy a developer a beer!
