                               Psi4 1.8.2 release

  ==> Input File <==

--------------------------------------------------------------------------
MEMORY 60 GB

molecule dimer {
0 1
Gh(Li)     0.000000     0.000000     0.000000
Gh(O)     -1.338879    -1.195158     0.469759
Gh(H)     -2.206298    -0.841443     0.411118
Gh(H)     -1.348766    -2.032418     0.013778
Gh(O)     -0.934211     1.705753    -0.411991
Gh(H)     -1.886530     1.902021    -0.625808
Gh(H)     -0.587757     2.579575    -0.080228
Gh(O)      1.030291     0.006627    -1.612348
Gh(H)      1.063590    -0.834805    -1.968945
Gh(H)      0.649284     0.567706    -2.305850
O          1.441199    -0.544489     1.384860
H          0.936835    -0.980818     2.110251
H          1.651553     0.325783     1.741433

units ang
no_reorient
no_com
symmetry c1
}

set {
basis        aug-cc-pVTZ
scf_type     df
}

energy("mp2")
--------------------------------------------------------------------------

    Molecular point group: c1

    Geometry (in Angstrom), charge = 0, multiplicity = 1:

       Center              X                  Y                   Z               Mass
    ------------   -----------------  -----------------  -----------------  -----------------
      Gh(LI)          0.000000000000     0.000000000000     0.000000000000     7.016003436600
      Gh(O)          -1.338879000000    -1.195158000000     0.469759000000    15.994914619570
      Gh(H)          -2.206298000000    -0.841443000000     0.411118000000     1.007825032230
      Gh(H)          -1.348766000000    -2.032418000000     0.013778000000     1.007825032230
      Gh(O)          -0.934211000000     1.705753000000    -0.411991000000    15.994914619570
      Gh(H)          -1.886530000000     1.902021000000    -0.625808000000     1.007825032230
      Gh(H)          -0.587757000000     2.579575000000    -0.080228000000     1.007825032230
      Gh(O)           1.030291000000     0.006627000000    -1.612348000000    15.994914619570
      Gh(H)           1.063590000000    -0.834805000000    -1.968945000000     1.007825032230
      Gh(H)           0.649284000000     0.567706000000    -2.305850000000     1.007825032230
         O            1.441199000000    -0.544489000000     1.384860000000    15.994914619570
         H            0.936835000000    -0.980818000000     2.110251000000     1.007825032230
         H            1.651553000000     0.325783000000     1.741433000000     1.007825032230

  Charge       = 0
  Multiplicity = 1
  Basis Set: AUG-CC-PVTZ
    Blend: AUG-CC-PVTZ
  Basis Set: (AUG-CC-PVTZ AUX)
    Blend: AUG-CC-PVTZ-JKFIT + DEF2-UNIVERSAL-JKFIT

    Orbital Energies [Eh]
    ---------------------

    Doubly Occupied:

       1A    -20.570273     2A     -1.345272     3A     -0.707093
       4A     -0.582770     5A     -0.509139

  @DF-RHF Final Energy:   -76.05880114940484

   => Energetics <=

    Nuclear Repulsion Energy =              9.0339266472007846
    One-Electron Energy =                -122.7563603285223337
    Two-Electron Energy =                  37.6636325319167042
    Total Energy =                        -76.0588011494048430
 Dipole X            :        -26.8701057           26.6791156           -0.1909901
 Dipole Y            :          9.7573031           -9.4693175            0.2879856
 Dipole Z            :        -27.5051368           28.2146769            0.7095401
 Magnitude           :                                                    0.7892148
  Basis Set: (AUG-CC-PVTZ AUX)
    Blend: AUG-CC-PVTZ-RI + DEF2-QZVPP-RI
	 Reference Energy          =     -76.0588011494048430 [Eh]
	 Singles Energy            =      -0.0000000000000000 [Eh]
	 Same-Spin Energy          =      -0.0687450482436804 [Eh]
	 Opposite-Spin Energy      =      -0.2169751383333746 [Eh]
	 Correlation Energy        =      -0.2857201865770550 [Eh]
	 Total Energy              =     -76.3445213359818950 [Eh]

	 ================> DF-SCS-MP2 Energies <==================
	-----------------------------------------------------------
	 SCS Same-Spin Scale       =       0.3333333333333333 [-]
	 SCS Opposite-Spin Scale   =       1.2000000000000000 [-]
	 SCS Same-Spin Energy      =      -0.0229150160812268 [Eh]
	 SCS Opposite-Spin Energy  =      -0.2603701660000495 [Eh]
	 SCS Correlation Energy    =      -0.2832851820812763 [Eh]
	 SCS Total Energy          =     -76.3420863314861151 [Eh]
	-----------------------------------------------------------

*** Psi4 exiting successfully. Buy a developer a beer!
