                               Psi4 1.8.2 release

  ==> Input File <==

--------------------------------------------------------------------------
MEMORY 60 GB

molecule dimer {
1 1
Li         0.000000     0.000000     0.000000
O          1.019083     0.534807    -1.726191
H          0.625080     0.290251    -2.608177
H          0.830858     1.498588    -1.618666
O          0.965199     1.220004     1.116919
H          0.489944     1.995527     1.292918
H          1.415083     0.944086     1.921579
O         -1.437462     1.300273    -0.217367
H         -1.717662     1.772714     0.555732
H         -1.328741     1.931896    -0.948455
O         -0.568332    -1.731301    -0.760465
H         -0.202881    -1.985016    -1.680965
H         -0.497598    -2.566820    -0.278428

units ang
no_reorient
no_com
symmetry c1
}

set {
basis        aug-cc-pVTZ
scf_type     df
}

energy("mp2")
--------------------------------------------------------------------------

    Molecular point group: c1

    Geometry (in Angstrom), charge = 1, multiplicity = 1:

       Center              X                  Y                   Z               Mass
    ------------   -----------------  -----------------  -----------------  -----------------
         LI           0.000000000000     0.000000000000     0.000000000000     7.016003436600
         O            1.019083000000     0.534807000000    -1.726191000000    15.994914619570
         H            0.625080000000     0.290251000000    -2.608177000000     1.007825032230
         H            0.830858000000     1.498588000000    -1.618666000000     1.007825032230
         O            0.965199000000     1.220004000000     1.116919000000    15.994914619570
         H            0.489944000000     1.995527000000     1.292918000000     1.007825032230
         H            1.415083000000     0.944086000000     1.921579000000     1.007825032230
         O           -1.437462000000     1.300273000000    -0.217367000000    15.994914619570
         H           -1.717662000000     1.772714000000     0.555732000000     1.007825032230
         H           -1.328741000000     1.931896000000    -0.948455000000     1.007825032230
         O           -0.568332000000    -1.731301000000    -0.760465000000    15.994914619570
         H           -0.202881000000    -1.985016000000    -1.680965000000     1.007825032230
         H           -0.497598000000    -2.566820000000    -0.278428000000     1.007825032230

  Charge       = 1
  Multiplicity = 1
  Basis Set: AUG-CC-PVTZ
    Blend: AUG-CC-PVTZ
  Basis Set: (AUG-CC-PVTZ AUX)
    Blend: AUG-CC-PVTZ-JKFIT + DEF2-UNIVERSAL-JKFIT

    Orbital Energies [Eh]
    ---------------------

    Doubly Occupied:

       1A    -20.758741     2A    -20.755243     3A    -20.750371
       4A    -20.747592     5A     -2.542615     6A     -1.559245
       7A     -1.548036     8A     -1.520642     9A     -1.515228
      10A     -0.932256    11A     -0.921584    12A     -0.883600
      13A     -0.869367    14A     -0.801362    15A     -0.791845
      16A     -0.775881    17A     -0.759599    18A     -0.723286
      19A     -0.704567    20A     -0.695353    21A     -0.684621

  @DF-RHF Final Energy:  -311.60402965313335

   => Energetics <=

    Nuclear Repulsion Energy =            166.3239144383499308
    One-Electron Energy =                -753.3738168142886025
    Two-Electron Energy =                 275.4458727228053476
    Total Energy =                       -311.6040296531333524
 Dipole X            :          0.8160936           -1.0544917           -0.2383981
 Dipole Y            :        -26.3725115           27.3471527            0.9746413
 Dipole Z            :         30.1071779          -30.3514469           -0.2442690
 Magnitude           :                                                    1.0326793
  Basis Set: (AUG-CC-PVTZ AUX)
    Blend: AUG-CC-PVTZ-RI + DEF2-QZVPP-RI
	 Reference Energy          =    -311.6040296531333524 [Eh]
	 Singles Energy            =      -0.0000000000000000 [Eh]
	 Same-Spin Energy          =      -0.2772701491443758 [Eh]
	 Opposite-Spin Energy      =      -0.8822578177769934 [Eh]
	 Correlation Energy        =      -1.1595279669213692 [Eh]
	 Total Energy              =    -312.7635576200547121 [Eh]

	 ================> DF-SCS-MP2 Energies <==================
	-----------------------------------------------------------
	 SCS Same-Spin Scale       =       0.3333333333333333 [-]
	 SCS Opposite-Spin Scale   =       1.2000000000000000 [-]
	 SCS Same-Spin Energy      =      -0.0924233830481253 [Eh]
	 SCS Opposite-Spin Energy  =      -1.0587093813323920 [Eh]
	 SCS Correlation Energy    =      -1.1511327643805174 [Eh]
	 SCS Total Energy          =    -312.7551624175138727 [Eh]
	-----------------------------------------------------------

*** Psi4 exiting successfully. Buy a developer a beer!
