                               Psi4 1.8.2 release

  ==> Input File <==

--------------------------------------------------------------------------
MEMORY 60 GB

molecule dimer {
1 1
Li         0.000000     0.000000     0.000000
O          0.093466     1.102529     1.398467
H         -0.286264     0.781074     2.237075
H          1.062890     1.237794     1.569113
O         -0.817145    -1.577921     0.295809
H         -0.126605    -2.261842     0.420003
H         -1.199869    -1.626482    -0.594808

units ang
no_reorient
no_com
symmetry c1
}

set {
basis        aug-cc-pVTZ
scf_type     df
}

energy("mp2")
--------------------------------------------------------------------------

    Molecular point group: c1

    Geometry (in Angstrom), charge = 1, multiplicity = 1:

       Center              X                  Y                   Z               Mass
    ------------   -----------------  -----------------  -----------------  -----------------
         LI           0.000000000000     0.000000000000     0.000000000000     7.016003436600
         O            0.093466000000     1.102529000000     1.398467000000    15.994914619570
         H           -0.286264000000     0.781074000000     2.237075000000     1.007825032230
         H            1.062890000000     1.237794000000     1.569113000000     1.007825032230
         O           -0.817145000000    -1.577921000000     0.295809000000    15.994914619570
         H           -0.126605000000    -2.261842000000     0.420003000000     1.007825032230
         H           -1.199869000000    -1.626482000000    -0.594808000000     1.007825032230

  Charge       = 1
  Multiplicity = 1
  Basis Set: AUG-CC-PVTZ
    Blend: AUG-CC-PVTZ
  Basis Set: (AUG-CC-PVTZ AUX)
    Blend: AUG-CC-PVTZ-JKFIT + DEF2-UNIVERSAL-JKFIT

    Orbital Energies [Eh]
    ---------------------

    Doubly Occupied:

       1A    -20.802906     2A    -20.795398     3A     -2.632885
       4A     -1.586297     5A     -1.573825     6A     -0.959528
       7A     -0.935662     8A     -0.829608     9A     -0.819103
      10A     -0.762523    11A     -0.748204

  @DF-RHF Final Energy:  -159.43326373435116

   => Energetics <=

    Nuclear Repulsion Energy =             51.5392527548587864
    One-Electron Energy =                -317.0531525463584899
    Two-Electron Energy =                 106.0806360571485385
    Total Energy =                       -159.4332637343511578
 Dipole X            :         12.4563066          -11.9795030            0.4768036
 Dipole Y            :          9.9475390          -10.7196453           -0.7721063
 Dipole Z            :        -31.9572790           32.4760603            0.5187813
 Magnitude           :                                                    1.0452865
  Basis Set: (AUG-CC-PVTZ AUX)
    Blend: AUG-CC-PVTZ-RI + DEF2-QZVPP-RI
	 Reference Energy          =    -159.4332637343511578 [Eh]
	 Singles Energy            =      -0.0000000000000000 [Eh]
	 Same-Spin Energy          =      -0.1372700426641085 [Eh]
	 Opposite-Spin Energy      =      -0.4453246417843070 [Eh]
	 Correlation Energy        =      -0.5825946844484156 [Eh]
	 Total Energy              =    -160.0158584187995814 [Eh]

	 ================> DF-SCS-MP2 Energies <==================
	-----------------------------------------------------------
	 SCS Same-Spin Scale       =       0.3333333333333333 [-]
	 SCS Opposite-Spin Scale   =       1.2000000000000000 [-]
	 SCS Same-Spin Energy      =      -0.0457566808880362 [Eh]
	 SCS Opposite-Spin Energy  =      -0.5343895701411684 [Eh]
	 SCS Correlation Energy    =      -0.5801462510292046 [Eh]
	 SCS Total Energy          =    -160.0134099853803491 [Eh]
	-----------------------------------------------------------

*** Psi4 exiting successfully. Buy a developer a beer!
