                               Psi4 1.8.2 release

  ==> Input File <==

--------------------------------------------------------------------------
MEMORY 60 GB

molecule dimer {
0 1
Gh(Li)     0.000000     0.000000     0.000000
Gh(O)      1.401258    -0.552767    -1.148847
Gh(H)      2.222717    -0.099344    -1.190559
Gh(H)      1.562451    -1.490832    -1.304563
Gh(O)     -0.330704     1.780111     0.510752
Gh(H)     -0.929458     1.795993     1.257868
Gh(H)     -0.397182     2.647959     0.120718
O          0.494746    -0.773349     1.790483
H          1.287530    -0.312464     2.047423
H         -0.132202    -0.417194     2.419929
Gh(O)     -1.664275    -0.879300    -0.710838
Gh(H)     -2.365985    -1.429029    -0.223341
Gh(H)     -2.197362    -0.354210    -1.323729

units ang
no_reorient
no_com
symmetry c1
}

set {
basis        aug-cc-pVTZ
scf_type     df
}

energy("mp2")
--------------------------------------------------------------------------

    Molecular point group: c1

    Geometry (in Angstrom), charge = 0, multiplicity = 1:

       Center              X                  Y                   Z               Mass
    ------------   -----------------  -----------------  -----------------  -----------------
      Gh(LI)          0.000000000000     0.000000000000     0.000000000000     7.016003436600
      Gh(O)           1.401258000000    -0.552767000000    -1.148847000000    15.994914619570
      Gh(H)           2.222717000000    -0.099344000000    -1.190559000000     1.007825032230
      Gh(H)           1.562451000000    -1.490832000000    -1.304563000000     1.007825032230
      Gh(O)          -0.330704000000     1.780111000000     0.510752000000    15.994914619570
      Gh(H)          -0.929458000000     1.795993000000     1.257868000000     1.007825032230
      Gh(H)          -0.397182000000     2.647959000000     0.120718000000     1.007825032230
         O            0.494746000000    -0.773349000000     1.790483000000    15.994914619570
         H            1.287530000000    -0.312464000000     2.047423000000     1.007825032230
         H           -0.132202000000    -0.417194000000     2.419929000000     1.007825032230
      Gh(O)          -1.664275000000    -0.879300000000    -0.710838000000    15.994914619570
      Gh(H)          -2.365985000000    -1.429029000000    -0.223341000000     1.007825032230
      Gh(H)          -2.197362000000    -0.354210000000    -1.323729000000     1.007825032230

  Charge       = 0
  Multiplicity = 1
  Basis Set: AUG-CC-PVTZ
    Blend: AUG-CC-PVTZ
  Basis Set: (AUG-CC-PVTZ AUX)
    Blend: AUG-CC-PVTZ-JKFIT + DEF2-UNIVERSAL-JKFIT

    Orbital Energies [Eh]
    ---------------------

    Doubly Occupied:

       1A    -20.568084     2A     -1.357514     3A     -0.711697
       4A     -0.592597     5A     -0.511598

  @DF-RHF Final Energy:   -76.06025562173544

   => Energetics <=

    Nuclear Repulsion Energy =              9.2279195335450641
    One-Electron Energy =                -123.0933670676825358
    Two-Electron Energy =                  37.8051919124020372
    Total Energy =                        -76.0602556217354362
 Dipole X            :         -9.5525034            9.6627290            0.1102257
 Dipole Y            :         13.6085255          -13.0701963            0.5383292
 Dipole Z            :        -34.9262091           35.5102518            0.5840427
 Magnitude           :                                                    0.8019065
  Basis Set: (AUG-CC-PVTZ AUX)
    Blend: AUG-CC-PVTZ-RI + DEF2-QZVPP-RI
	 Reference Energy          =     -76.0602556217354362 [Eh]
	 Singles Energy            =      -0.0000000000000000 [Eh]
	 Same-Spin Energy          =      -0.0684686663680839 [Eh]
	 Opposite-Spin Energy      =      -0.2160700311017698 [Eh]
	 Correlation Energy        =      -0.2845386974698537 [Eh]
	 Total Energy              =     -76.3447943192052918 [Eh]

	 ================> DF-SCS-MP2 Energies <==================
	-----------------------------------------------------------
	 SCS Same-Spin Scale       =       0.3333333333333333 [-]
	 SCS Opposite-Spin Scale   =       1.2000000000000000 [-]
	 SCS Same-Spin Energy      =      -0.0228228887893613 [Eh]
	 SCS Opposite-Spin Energy  =      -0.2592840373221237 [Eh]
	 SCS Correlation Energy    =      -0.2821069261114850 [Eh]
	 SCS Total Energy          =     -76.3423625478469177 [Eh]
	-----------------------------------------------------------

*** Psi4 exiting successfully. Buy a developer a beer!
