                               Psi4 1.9 release

  ==> Input File <==

--------------------------------------------------------------------------
MEMORY 60 GB

molecule dimer {
1 1
Li     0.000000     0.000000     0.000000
--
0 1
O      0.893831    -0.282893     1.641377
H      0.718451     0.374103     2.337286
H      1.825254    -0.373815     1.492424
O      1.120839     1.073113    -0.996718
H      1.303960     0.761379    -1.868653
H      0.652772     1.948855    -1.098737
O     -1.672896     0.785810     0.484622
H     -2.287744     0.750544    -0.303037
H     -1.709276     1.657872     0.942048

units ang
no_reorient
no_com
symmetry c1
}

set {
basis        aug-cc-pVTZ
scf_type     df
}

energy("mp2", bsse_type="cp")
--------------------------------------------------------------------------

                               Psi4 1.9 release
    Molecular point group: c1
  Charge       = 0
  Multiplicity = 1
  Basis Set: AUG-CC-PVTZ
    Blend: AUG-CC-PVTZ
  Basis Set: (AUG-CC-PVTZ AUX)
    Blend: AUG-CC-PVTZ-JKFIT + DEF2-UNIVERSAL-JKFIT
  @DF-RHF Final Energy:  -228.15850225050588
    Total Energy =                       -228.1585022505058760
 Dipole X            :         -6.2422536            6.1181943           -0.1240593
 Dipole Y            :        -32.2741771           33.4995114            1.2253343
 Dipole Z            :        -20.4446050           19.9093589           -0.5352461
 Magnitude           :                                                    1.3428788
  Basis Set: (AUG-CC-PVTZ AUX)
    Blend: AUG-CC-PVTZ-RI + DEF2-QZVPP-RI
	 Reference Energy          =    -228.1585022505058760 [Eh]
	 Singles Energy            =      -0.0000000000000000 [Eh]
	 Same-Spin Energy          =      -0.2077817365607249 [Eh]
	 Opposite-Spin Energy      =      -0.6520631648363798 [Eh]
	 Correlation Energy        =      -0.8598449013971048 [Eh]
	 Total Energy              =    -229.0183471519029865 [Eh]
	 SCS Total Energy          =    -229.0102386271631190 [Eh]
                               Psi4 1.9 release
    Molecular point group: c1
  Multiplicity = 1
  Basis Set: AUG-CC-PVTZ
    Blend: AUG-CC-PVTZ
  Basis Set: (AUG-CC-PVTZ AUX)
    Blend: AUG-CC-PVTZ-JKFIT + DEF2-UNIVERSAL-JKFIT
  @DF-RHF Final Energy:    -7.23638448437988
    Total Energy =                         -7.2363844843798777
  Basis Set: (AUG-CC-PVTZ AUX)
	 Singles Energy            =      -0.0000000000000000 [Eh]
	 Same-Spin Energy          =      -0.0000000000000000 [Eh]
	 Opposite-Spin Energy      =      -0.0162663337256729 [Eh]
	 Correlation Energy        =      -0.0162663337256729 [Eh]
	 Total Energy              =      -7.2526508181055513 [Eh]
	 SCS Total Energy          =      -7.2559040848506857 [Eh]
                               Psi4 1.9 release
    Molecular point group: c1

    Geometry (in Bohr), charge = 1, multiplicity = 1:

       Center              X                  Y                   Z               Mass
    ------------   -----------------  -----------------  -----------------  -----------------
         LI           0.000000000000     0.000000000000     0.000000000000     7.016003436600
         O            1.689095792444    -0.534590292809     3.101752998626    15.994914619570
         H            1.357675624561     0.706952212712     4.416830416867     1.007825032230
         H            3.449230169396    -0.706407971588     2.820272623060     1.007825032230
         O            2.118078740732     2.027889671668    -1.883524044314    15.994914619570
         H            2.464127278552     1.438797787675    -3.531242393515     1.007825032230
         H            1.233560302367     3.682802208229    -2.076312013907     1.007825032230
         O           -3.161315276374     1.484965686646     0.915802854372    15.994914619570
         H           -4.323209605159     1.418322605106    -0.572656935880     1.007825032230
         H           -3.230063512818     3.132924031065     1.780212717035     1.007825032230

  Charge       = 1
  Multiplicity = 1
  Basis Set: AUG-CC-PVTZ
    Blend: AUG-CC-PVTZ
  Basis Set: (AUG-CC-PVTZ AUX)
    Blend: AUG-CC-PVTZ-JKFIT + DEF2-UNIVERSAL-JKFIT

    Orbital Energies [Eh]
    ---------------------

    Doubly Occupied:

       1A    -20.780145     2A    -20.776972     3A    -20.754477
       4A     -2.573612     5A     -1.566337     6A     -1.546712
       7A     -1.543968     8A     -0.930923     9A     -0.924496
      10A     -0.918904    11A     -0.813303    12A     -0.798583
      13A     -0.779191    14A     -0.740654    15A     -0.719889
      16A     -0.708159

  @DF-RHF Final Energy:  -235.53110241060091

   => Energetics <=

    Nuclear Repulsion Energy =            101.0400973029578040
    One-Electron Energy =                -519.3897457452393382
    Two-Electron Energy =                 182.8185460316806257
    Total Energy =                       -235.5311024106009086
 Dipole X            :         -6.1891412            6.1181943           -0.0709468
 Dipole Y            :        -31.8459911           33.4995114            1.6535203
 Dipole Z            :        -20.2716797           19.9093589           -0.3623208
 Magnitude           :                                                    1.6942370
  Basis Set: (AUG-CC-PVTZ AUX)
    Blend: AUG-CC-PVTZ-RI + DEF2-QZVPP-RI
	 Reference Energy          =    -235.5311024106009086 [Eh]
	 Singles Energy            =      -0.0000000000000000 [Eh]
	 Same-Spin Energy          =      -0.2064899805819157 [Eh]
	 Opposite-Spin Energy      =      -0.6621190215838644 [Eh]
	 Correlation Energy        =      -0.8686090021657801 [Eh]
	 Total Energy              =    -236.3997114127666919 [Eh]

	 ================> DF-SCS-MP2 Energies <==================
	-----------------------------------------------------------
	 SCS Same-Spin Scale       =       0.3333333333333333 [-]
	 SCS Opposite-Spin Scale   =       1.2000000000000000 [-]
	 SCS Same-Spin Energy      =      -0.0688299935273052 [Eh]
	 SCS Opposite-Spin Energy  =      -0.7945428259006372 [Eh]
	 SCS Correlation Energy    =      -0.8633728194279424 [Eh]
	 SCS Total Energy          =    -236.3944752300288599 [Eh]
	-----------------------------------------------------------

*** Psi4 exiting successfully. Buy a developer a beer!
