                               Psi4 1.8.2 release

  ==> Input File <==

--------------------------------------------------------------------------
MEMORY 60 GB

molecule dimer {
0 1
Gh(Li)     0.000000     0.000000     0.000000
Gh(O)     -0.984691    -0.969052     1.267687
Gh(H)     -1.298677    -0.512598     2.085258
Gh(H)     -1.774992    -1.550102     1.066930
Gh(O)      0.635689     1.405102     0.678468
Gh(H)      1.386421     1.451552     1.210237
Gh(H)     -0.135008     1.841375     1.074997
O          1.465994    -1.501291    -0.557694
H          1.460995    -2.365831    -0.942800
H          1.959287    -0.902242    -1.128803
Gh(O)     -0.443803     0.020399    -1.936730
Gh(H)     -0.816450    -0.798888    -2.251870
Gh(H)     -1.133766     0.682308    -2.119070

units ang
no_reorient
no_com
symmetry c1
}

set {
basis        aug-cc-pVTZ
scf_type     df
}

energy("mp2")
--------------------------------------------------------------------------

    Molecular point group: c1

    Geometry (in Angstrom), charge = 0, multiplicity = 1:

       Center              X                  Y                   Z               Mass
    ------------   -----------------  -----------------  -----------------  -----------------
      Gh(LI)          0.000000000000     0.000000000000     0.000000000000     7.016003436600
      Gh(O)          -0.984691000000    -0.969052000000     1.267687000000    15.994914619570
      Gh(H)          -1.298677000000    -0.512598000000     2.085258000000     1.007825032230
      Gh(H)          -1.774992000000    -1.550102000000     1.066930000000     1.007825032230
      Gh(O)           0.635689000000     1.405102000000     0.678468000000    15.994914619570
      Gh(H)           1.386421000000     1.451552000000     1.210237000000     1.007825032230
      Gh(H)          -0.135008000000     1.841375000000     1.074997000000     1.007825032230
         O            1.465994000000    -1.501291000000    -0.557694000000    15.994914619570
         H            1.460995000000    -2.365831000000    -0.942800000000     1.007825032230
         H            1.959287000000    -0.902242000000    -1.128803000000     1.007825032230
      Gh(O)          -0.443803000000     0.020399000000    -1.936730000000    15.994914619570
      Gh(H)          -0.816450000000    -0.798888000000    -2.251870000000     1.007825032230
      Gh(H)          -1.133766000000     0.682308000000    -2.119070000000     1.007825032230

  Charge       = 0
  Multiplicity = 1
  Basis Set: AUG-CC-PVTZ
    Blend: AUG-CC-PVTZ
  Basis Set: (AUG-CC-PVTZ AUX)
    Blend: AUG-CC-PVTZ-JKFIT + DEF2-UNIVERSAL-JKFIT

    Orbital Energies [Eh]
    ---------------------

    Doubly Occupied:

       1A    -20.564432     2A     -1.351370     3A     -0.727911
       4A     -0.576055     5A     -0.509110

  @DF-RHF Final Energy:   -76.06047646570715

   => Energetics <=

    Nuclear Repulsion Energy =              9.2064962899047362
    One-Electron Energy =                -123.0761858140667044
    Two-Electron Energy =                  37.8092130584548229
    Total Energy =                        -76.0604764657071541
 Dipole X            :        -28.2968518           28.6260135            0.3291617
 Dipole Y            :         28.6901596          -28.8719935           -0.1818339
 Dipole Z            :         11.7000744          -12.3458737           -0.6457993
 Magnitude           :                                                    0.7473070
  Basis Set: (AUG-CC-PVTZ AUX)
    Blend: AUG-CC-PVTZ-RI + DEF2-QZVPP-RI
	 Reference Energy          =     -76.0604764657071541 [Eh]
	 Singles Energy            =      -0.0000000000000000 [Eh]
	 Same-Spin Energy          =      -0.0683207135311469 [Eh]
	 Opposite-Spin Energy      =      -0.2156323304958331 [Eh]
	 Correlation Energy        =      -0.2839530440269800 [Eh]
	 Total Energy              =     -76.3444295097341410 [Eh]

	 ================> DF-SCS-MP2 Energies <==================
	-----------------------------------------------------------
	 SCS Same-Spin Scale       =       0.3333333333333333 [-]
	 SCS Opposite-Spin Scale   =       1.2000000000000000 [-]
	 SCS Same-Spin Energy      =      -0.0227735711770490 [Eh]
	 SCS Opposite-Spin Energy  =      -0.2587587965949997 [Eh]
	 SCS Correlation Energy    =      -0.2815323677720487 [Eh]
	 SCS Total Energy          =     -76.3420088334791984 [Eh]
	-----------------------------------------------------------

*** Psi4 exiting successfully. Buy a developer a beer!
