                               Psi4 1.8.2 release

  ==> Input File <==

--------------------------------------------------------------------------
MEMORY 60 GB

molecule dimer {
0 1
Gh(Li)     0.000000     0.000000     0.000000
Gh(O)      1.625213     0.972567    -0.130984
Gh(H)      2.385363     0.442167     0.052306
Gh(H)      1.744821     1.783338     0.393105
Gh(O)     -0.494873    -0.049516    -1.857659
Gh(H)     -1.472930    -0.211893    -1.914216
Gh(H)     -0.138603    -0.782973    -2.357050
Gh(O)     -0.071954    -1.647819     0.654952
Gh(H)      0.228828    -1.705075     1.564639
Gh(H)     -0.688509    -2.401562     0.512174
O         -1.490186     0.845902     1.174509
H         -1.068979     0.975324     2.036246
H         -2.159523     0.106016     1.305168

units ang
no_reorient
no_com
symmetry c1
}

set {
basis        aug-cc-pVTZ
scf_type     df
}

energy("mp2")
--------------------------------------------------------------------------

    Molecular point group: c1

    Geometry (in Angstrom), charge = 0, multiplicity = 1:

       Center              X                  Y                   Z               Mass
    ------------   -----------------  -----------------  -----------------  -----------------
      Gh(LI)          0.000000000000     0.000000000000     0.000000000000     7.016003436600
      Gh(O)           1.625213000000     0.972567000000    -0.130984000000    15.994914619570
      Gh(H)           2.385363000000     0.442167000000     0.052306000000     1.007825032230
      Gh(H)           1.744821000000     1.783338000000     0.393105000000     1.007825032230
      Gh(O)          -0.494873000000    -0.049516000000    -1.857659000000    15.994914619570
      Gh(H)          -1.472930000000    -0.211893000000    -1.914216000000     1.007825032230
      Gh(H)          -0.138603000000    -0.782973000000    -2.357050000000     1.007825032230
      Gh(O)          -0.071954000000    -1.647819000000     0.654952000000    15.994914619570
      Gh(H)           0.228828000000    -1.705075000000     1.564639000000     1.007825032230
      Gh(H)          -0.688509000000    -2.401562000000     0.512174000000     1.007825032230
         O           -1.490186000000     0.845902000000     1.174509000000    15.994914619570
         H           -1.068979000000     0.975324000000     2.036246000000     1.007825032230
         H           -2.159523000000     0.106016000000     1.305168000000     1.007825032230

  Charge       = 0
  Multiplicity = 1
  Basis Set: AUG-CC-PVTZ
    Blend: AUG-CC-PVTZ
  Basis Set: (AUG-CC-PVTZ AUX)
    Blend: AUG-CC-PVTZ-JKFIT + DEF2-UNIVERSAL-JKFIT

    Orbital Energies [Eh]
    ---------------------

    Doubly Occupied:

       1A    -20.571454     2A     -1.338067     3A     -0.704132
       4A     -0.576507     5A     -0.507588

  @DF-RHF Final Energy:   -76.05653098483297

   => Energetics <=

    Nuclear Repulsion Energy =              8.9172284059704072
    One-Electron Energy =                -122.5520189498510604
    Two-Electron Energy =                  37.5782595590476802
    Total Energy =                        -76.0565309848329747
 Dipole X            :         28.4709985          -28.6293319           -0.1583334
 Dipole Y            :        -15.2279670           14.8316213           -0.3963457
 Dipole Z            :        -23.4170871           24.0703601            0.6532730
 Magnitude           :                                                    0.7803365
  Basis Set: (AUG-CC-PVTZ AUX)
    Blend: AUG-CC-PVTZ-RI + DEF2-QZVPP-RI
	 Reference Energy          =     -76.0565309848329747 [Eh]
	 Singles Energy            =      -0.0000000000000000 [Eh]
	 Same-Spin Energy          =      -0.0689203551002923 [Eh]
	 Opposite-Spin Energy      =      -0.2175874479065115 [Eh]
	 Correlation Energy        =      -0.2865078030068038 [Eh]
	 Total Energy              =     -76.3430387878397738 [Eh]

	 ================> DF-SCS-MP2 Energies <==================
	-----------------------------------------------------------
	 SCS Same-Spin Scale       =       0.3333333333333333 [-]
	 SCS Opposite-Spin Scale   =       1.2000000000000000 [-]
	 SCS Same-Spin Energy      =      -0.0229734517000974 [Eh]
	 SCS Opposite-Spin Energy  =      -0.2611049374878138 [Eh]
	 SCS Correlation Energy    =      -0.2840783891879112 [Eh]
	 SCS Total Energy          =     -76.3406093740208860 [Eh]
	-----------------------------------------------------------

*** Psi4 exiting successfully. Buy a developer a beer!
