                               Psi4 1.8.2 release

  ==> Input File <==

--------------------------------------------------------------------------
MEMORY 60 GB

molecule dimer {
1 1
Li         0.000000     0.000000     0.000000
O          1.625213     0.972567    -0.130984
H          2.385363     0.442167     0.052306
H          1.744821     1.783338     0.393105
O         -0.494873    -0.049516    -1.857659
H         -1.472930    -0.211893    -1.914216
H         -0.138603    -0.782973    -2.357050
O         -0.071954    -1.647819     0.654952
H          0.228828    -1.705075     1.564639
H         -0.688509    -2.401562     0.512174
O         -1.490186     0.845902     1.174509
H         -1.068979     0.975324     2.036246
H         -2.159523     0.106016     1.305168

units ang
no_reorient
no_com
symmetry c1
}

set {
basis        aug-cc-pVTZ
scf_type     df
}

energy("mp2")
--------------------------------------------------------------------------

    Molecular point group: c1

    Geometry (in Angstrom), charge = 1, multiplicity = 1:

       Center              X                  Y                   Z               Mass
    ------------   -----------------  -----------------  -----------------  -----------------
         LI           0.000000000000     0.000000000000     0.000000000000     7.016003436600
         O            1.625213000000     0.972567000000    -0.130984000000    15.994914619570
         H            2.385363000000     0.442167000000     0.052306000000     1.007825032230
         H            1.744821000000     1.783338000000     0.393105000000     1.007825032230
         O           -0.494873000000    -0.049516000000    -1.857659000000    15.994914619570
         H           -1.472930000000    -0.211893000000    -1.914216000000     1.007825032230
         H           -0.138603000000    -0.782973000000    -2.357050000000     1.007825032230
         O           -0.071954000000    -1.647819000000     0.654952000000    15.994914619570
         H            0.228828000000    -1.705075000000     1.564639000000     1.007825032230
         H           -0.688509000000    -2.401562000000     0.512174000000     1.007825032230
         O           -1.490186000000     0.845902000000     1.174509000000    15.994914619570
         H           -1.068979000000     0.975324000000     2.036246000000     1.007825032230
         H           -2.159523000000     0.106016000000     1.305168000000     1.007825032230

  Charge       = 1
  Multiplicity = 1
  Basis Set: AUG-CC-PVTZ
    Blend: AUG-CC-PVTZ
  Basis Set: (AUG-CC-PVTZ AUX)
    Blend: AUG-CC-PVTZ-JKFIT + DEF2-UNIVERSAL-JKFIT

    Orbital Energies [Eh]
    ---------------------

    Doubly Occupied:

       1A    -20.773281     2A    -20.751276     3A    -20.747904
       4A    -20.742316     5A     -2.527184     6A     -1.560650
       7A     -1.539881     8A     -1.524817     9A     -1.522979
      10A     -0.926443    11A     -0.902425    12A     -0.887051
      13A     -0.878239    14A     -0.817023    15A     -0.795217
      16A     -0.765878    17A     -0.762382    18A     -0.735519
      19A     -0.702858    20A     -0.692872    21A     -0.688551

  @DF-RHF Final Energy:  -311.61177091854967

   => Energetics <=

    Nuclear Repulsion Energy =            165.3769158357537492
    One-Electron Energy =                -751.4878790513274680
    Two-Electron Energy =                 274.4991922970240807
    Total Energy =                       -311.6117709185496665
 Dipole X            :          8.5287315           -8.7379651           -0.2092336
 Dipole Y            :          0.1571901           -1.5601314           -1.4029413
 Dipole Z            :          0.6507009            0.6026639            1.2533648
 Magnitude           :                                                    1.8928673
  Basis Set: (AUG-CC-PVTZ AUX)
    Blend: AUG-CC-PVTZ-RI + DEF2-QZVPP-RI
	 Reference Energy          =    -311.6117709185496665 [Eh]
	 Singles Energy            =      -0.0000000000000000 [Eh]
	 Same-Spin Energy          =      -0.2766932008280691 [Eh]
	 Opposite-Spin Energy      =      -0.8817184026760104 [Eh]
	 Correlation Energy        =      -1.1584116035040797 [Eh]
	 Total Energy              =    -312.7701825220537444 [Eh]

	 ================> DF-SCS-MP2 Energies <==================
	-----------------------------------------------------------
	 SCS Same-Spin Scale       =       0.3333333333333333 [-]
	 SCS Opposite-Spin Scale   =       1.2000000000000000 [-]
	 SCS Same-Spin Energy      =      -0.0922310669426897 [Eh]
	 SCS Opposite-Spin Energy  =      -1.0580620832112124 [Eh]
	 SCS Correlation Energy    =      -1.1502931501539022 [Eh]
	 SCS Total Energy          =    -312.7620640687035802 [Eh]
	-----------------------------------------------------------

*** Psi4 exiting successfully. Buy a developer a beer!
