                               Psi4 1.8.2 release

  ==> Input File <==

--------------------------------------------------------------------------
MEMORY 60 GB

molecule dimer {
1 1
Li         0.000000     0.000000     0.000000
Gh(O)      0.974801    -1.457324    -0.803063
Gh(H)      1.616648    -1.821333    -0.185071
Gh(H)      0.543412    -2.209643    -1.228589
Gh(O)     -1.022460    -0.705935     1.627113
Gh(H)     -1.734123    -0.103167     1.913218
Gh(H)     -1.500284    -1.468483     1.235082
Gh(O)     -1.471986     0.365186    -1.104744
Gh(H)     -1.395966     1.135543    -1.703561
Gh(H)     -2.409858     0.169828    -1.010243
Gh(O)      1.111405     1.672966    -0.206272
Gh(H)      1.061116     2.268920     0.588148
Gh(H)      1.217032     2.358049    -0.946568

units ang
no_reorient
no_com
symmetry c1
}

set {
basis        aug-cc-pVTZ
scf_type     df
}

energy("mp2")
--------------------------------------------------------------------------

    Molecular point group: c1

    Geometry (in Angstrom), charge = 1, multiplicity = 1:

       Center              X                  Y                   Z               Mass
    ------------   -----------------  -----------------  -----------------  -----------------
         LI           0.000000000000     0.000000000000     0.000000000000     7.016003436600
      Gh(O)           0.974801000000    -1.457324000000    -0.803063000000    15.994914619570
      Gh(H)           1.616648000000    -1.821333000000    -0.185071000000     1.007825032230
      Gh(H)           0.543412000000    -2.209643000000    -1.228589000000     1.007825032230
      Gh(O)          -1.022460000000    -0.705935000000     1.627113000000    15.994914619570
      Gh(H)          -1.734123000000    -0.103167000000     1.913218000000     1.007825032230
      Gh(H)          -1.500284000000    -1.468483000000     1.235082000000     1.007825032230
      Gh(O)          -1.471986000000     0.365186000000    -1.104744000000    15.994914619570
      Gh(H)          -1.395966000000     1.135543000000    -1.703561000000     1.007825032230
      Gh(H)          -2.409858000000     0.169828000000    -1.010243000000     1.007825032230
      Gh(O)           1.111405000000     1.672966000000    -0.206272000000    15.994914619570
      Gh(H)           1.061116000000     2.268920000000     0.588148000000     1.007825032230
      Gh(H)           1.217032000000     2.358049000000    -0.946568000000     1.007825032230

  Charge       = 1
  Multiplicity = 1
  Basis Set: AUG-CC-PVTZ
    Blend: AUG-CC-PVTZ
  Basis Set: (AUG-CC-PVTZ AUX)
    Blend: AUG-CC-PVTZ-JKFIT + DEF2-UNIVERSAL-JKFIT

    Orbital Energies [Eh]
    ---------------------

    Doubly Occupied:

       1A     -2.792353

  @DF-RHF Final Energy:    -7.23638486969187

   => Energetics <=

    Nuclear Repulsion Energy =              0.0000000000000000
    One-Electron Energy =                  -8.8880635533317207
    Two-Electron Energy =                   1.6516786836398485
    Total Energy =                         -7.2363848696918724
 Dipole X            :          0.0000006            0.0000000            0.0000006
 Dipole Y            :          0.0000099            0.0000000            0.0000099
 Dipole Z            :          0.0000048            0.0000000            0.0000048
 Magnitude           :                                                    0.0000110
  Basis Set: (AUG-CC-PVTZ AUX)
    Blend: AUG-CC-PVTZ-RI + DEF2-QZVPP-RI
	 Reference Energy          =      -7.2363848696918724 [Eh]
	 Singles Energy            =      -0.0000000000000000 [Eh]
	 Same-Spin Energy          =       0.0000000000000000 [Eh]
	 Opposite-Spin Energy      =      -0.0169393559614195 [Eh]
	 Correlation Energy        =      -0.0169393559614195 [Eh]
	 Total Energy              =      -7.2533242256532917 [Eh]

	 ================> DF-SCS-MP2 Energies <==================
	-----------------------------------------------------------
	 SCS Same-Spin Scale       =       0.3333333333333333 [-]
	 SCS Opposite-Spin Scale   =       1.2000000000000000 [-]
	 SCS Same-Spin Energy      =       0.0000000000000000 [Eh]
	 SCS Opposite-Spin Energy  =      -0.0203272271537034 [Eh]
	 SCS Correlation Energy    =      -0.0203272271537034 [Eh]
	 SCS Total Energy          =      -7.2567120968455763 [Eh]
	-----------------------------------------------------------

*** Psi4 exiting successfully. Buy a developer a beer!
