                               Psi4 1.9 release

  ==> Input File <==

--------------------------------------------------------------------------
MEMORY 60 GB

molecule dimer {
1 1
Li     0.000000     0.000000     0.000000
--
0 1
O      1.650053    -0.530993    -1.064242
H      2.392035    -0.101949    -0.686952
H      1.463285    -0.258144    -1.959656
O     -0.289415    -0.712498     1.685242
H     -1.101029    -0.657522     2.234823
H     -0.070434    -1.611500     1.899930
O      0.217487     1.895362     0.182598
H     -0.273195     2.192923     0.988240
H      1.131525     2.307122     0.234605
O     -1.285096    -0.509246    -1.306926
H     -0.917246    -0.560268    -2.152485
H     -1.585156    -1.421720    -1.166242

units ang
no_reorient
no_com
symmetry c1
}

set {
basis        aug-cc-pVTZ
scf_type     df
}

energy("mp2", bsse_type="cp")
--------------------------------------------------------------------------

                               Psi4 1.9 release
    Molecular point group: c1
  Charge       = 0
  Multiplicity = 1
  Basis Set: AUG-CC-PVTZ
    Blend: AUG-CC-PVTZ
  Basis Set: (AUG-CC-PVTZ AUX)
    Blend: AUG-CC-PVTZ-JKFIT + DEF2-UNIVERSAL-JKFIT
  @DF-RHF Final Energy:  -304.20889892570352
    Total Energy =                       -304.2088989257034655
 Dipole X            :         -6.0973935            6.3948653            0.2974719
 Dipole Y            :         -2.1956043            1.9463083           -0.2492960
 Dipole Z            :          9.0389150           -8.7576731            0.2812419
 Magnitude           :                                                    0.4793068
  Basis Set: (AUG-CC-PVTZ AUX)
    Blend: AUG-CC-PVTZ-RI + DEF2-QZVPP-RI
	 Reference Energy          =    -304.2088989257035223 [Eh]
	 Singles Energy            =      -0.0000000000000000 [Eh]
	 Same-Spin Energy          =      -0.2774763939469493 [Eh]
	 Opposite-Spin Energy      =      -0.8698108043335792 [Eh]
	 Correlation Energy        =      -1.1472871982805284 [Eh]
	 Total Energy              =    -305.3561861239840596 [Eh]
	 SCS Total Energy          =    -305.3451640222194783 [Eh]
                               Psi4 1.9 release
    Molecular point group: c1
  Multiplicity = 1
  Basis Set: AUG-CC-PVTZ
    Blend: AUG-CC-PVTZ
  Basis Set: (AUG-CC-PVTZ AUX)
    Blend: AUG-CC-PVTZ-JKFIT + DEF2-UNIVERSAL-JKFIT
  @DF-RHF Final Energy:    -7.23638491480704
    Total Energy =                         -7.2363849148070365
  Basis Set: (AUG-CC-PVTZ AUX)
	 Singles Energy            =      -0.0000000000000000 [Eh]
	 Same-Spin Energy          =       0.0000000000000000 [Eh]
	 Opposite-Spin Energy      =      -0.0173231113208740 [Eh]
	 Correlation Energy        =      -0.0173231113208740 [Eh]
	 Total Energy              =      -7.2537080261279101 [Eh]
	 SCS Total Energy          =      -7.2571726483920855 [Eh]
                               Psi4 1.9 release
    Molecular point group: c1

    Geometry (in Bohr), charge = 1, multiplicity = 1:

       Center              X                  Y                   Z               Mass
    ------------   -----------------  -----------------  -----------------  -----------------
         LI           0.000000000000     0.000000000000     0.000000000000     7.016003436600
         O            3.118148262490    -1.003431344535    -2.011125911209    15.994914619570
         H            4.520291032510    -0.192655688764    -1.298151141336     1.007825032230
         H            2.765207893491    -0.487821460930    -3.703213140110     1.007825032230
         O           -0.546915086599    -1.346426084936     3.184645835119    15.994914619570
         H           -2.080643266187    -1.242536501463     4.223203408874     1.007825032230
         H           -0.133100969920    -3.045293651175     3.590347357541     1.007825032230
         O            0.410990865847     3.581715088600     0.345060211056    15.994914619570
         H           -0.516263728844     4.144023884217     1.867502946222     1.007825032230
         H            2.138272354109     4.359828718019     0.443339197663     1.007825032230
         O           -2.428479484921    -0.962335470485    -2.469732206240    15.994914619570
         H           -1.733343729672    -1.058753076858    -4.067607139156     1.007825032230
         H           -2.995510706126    -2.686661427086    -2.203877976006     1.007825032230

  Charge       = 1
  Multiplicity = 1
  Basis Set: AUG-CC-PVTZ
    Blend: AUG-CC-PVTZ
  Basis Set: (AUG-CC-PVTZ AUX)
    Blend: AUG-CC-PVTZ-JKFIT + DEF2-UNIVERSAL-JKFIT

    Orbital Energies [Eh]
    ---------------------

    Doubly Occupied:

       1A    -20.763620     2A    -20.752875     3A    -20.749296
       4A    -20.745670     5A     -2.528442     6A     -1.554872
       7A     -1.552021     8A     -1.542473     9A     -1.520588
      10A     -0.930219    11A     -0.903973    12A     -0.895208
      13A     -0.884588    14A     -0.819879    15A     -0.796016
      16A     -0.772742    17A     -0.768570    18A     -0.718430
      19A     -0.711458    20A     -0.700982    21A     -0.692110

  @DF-RHF Final Energy:  -311.61528807453431

   => Energetics <=

    Nuclear Repulsion Energy =            165.2445594157116204
    One-Electron Energy =                -751.1116271031449969
    Two-Electron Energy =                 274.2517796128990994
    Total Energy =                       -311.6152880745343055
 Dipole X            :         -6.0585880            6.3948653            0.3362773
 Dipole Y            :         -2.1866021            1.9463083           -0.2402938
 Dipole Z            :          9.0208992           -8.7576731            0.2632262
 Magnitude           :                                                    0.4900118
  Basis Set: (AUG-CC-PVTZ AUX)
    Blend: AUG-CC-PVTZ-RI + DEF2-QZVPP-RI
	 Reference Energy          =    -311.6152880745343055 [Eh]
	 Singles Energy            =      -0.0000000000000000 [Eh]
	 Same-Spin Energy          =      -0.2758802352739541 [Eh]
	 Opposite-Spin Energy      =      -0.8794470456899094 [Eh]
	 Correlation Energy        =      -1.1553272809638635 [Eh]
	 Total Energy              =    -312.7706153554981938 [Eh]

	 ================> DF-SCS-MP2 Energies <==================
	-----------------------------------------------------------
	 SCS Same-Spin Scale       =       0.3333333333333333 [-]
	 SCS Opposite-Spin Scale   =       1.2000000000000000 [-]
	 SCS Same-Spin Energy      =      -0.0919600784246513 [Eh]
	 SCS Opposite-Spin Energy  =      -1.0553364548278912 [Eh]
	 SCS Correlation Energy    =      -1.1472965332525424 [Eh]
	 SCS Total Energy          =    -312.7625846077868346 [Eh]
	-----------------------------------------------------------

*** Psi4 exiting successfully. Buy a developer a beer!
