                               Psi4 1.8.2 release

  ==> Input File <==

--------------------------------------------------------------------------
MEMORY 60 GB

molecule dimer {
1 1
Li         0.000000     0.000000     0.000000
O         -1.794227     0.878304     0.383152
H         -2.284044     0.065626     0.360832
H         -2.211283     1.348316    -0.381184
O          0.587966    -1.606327     0.751206
H          0.384051    -2.413930     0.275990
H          1.532090    -1.679654     1.064559
O          1.426308     1.329057     0.381484
H          1.492507     1.221218     1.387216
H          2.369890     1.360172     0.089581
O         -0.005725    -0.582202    -1.970709
H         -0.732065    -0.750880    -2.621085
H          0.674197    -1.253645    -2.250473

units ang
no_reorient
no_com
symmetry c1
}

set {
basis        aug-cc-pVTZ
scf_type     df
}

energy("mp2")
--------------------------------------------------------------------------

    Molecular point group: c1

    Geometry (in Angstrom), charge = 1, multiplicity = 1:

       Center              X                  Y                   Z               Mass
    ------------   -----------------  -----------------  -----------------  -----------------
         LI           0.000000000000     0.000000000000     0.000000000000     7.016003436600
         O           -1.794227000000     0.878304000000     0.383152000000    15.994914619570
         H           -2.284044000000     0.065626000000     0.360832000000     1.007825032230
         H           -2.211283000000     1.348316000000    -0.381184000000     1.007825032230
         O            0.587966000000    -1.606327000000     0.751206000000    15.994914619570
         H            0.384051000000    -2.413930000000     0.275990000000     1.007825032230
         H            1.532090000000    -1.679654000000     1.064559000000     1.007825032230
         O            1.426308000000     1.329057000000     0.381484000000    15.994914619570
         H            1.492507000000     1.221218000000     1.387216000000     1.007825032230
         H            2.369890000000     1.360172000000     0.089581000000     1.007825032230
         O           -0.005725000000    -0.582202000000    -1.970709000000    15.994914619570
         H           -0.732065000000    -0.750880000000    -2.621085000000     1.007825032230
         H            0.674197000000    -1.253645000000    -2.250473000000     1.007825032230

  Charge       = 1
  Multiplicity = 1
  Basis Set: AUG-CC-PVTZ
    Blend: AUG-CC-PVTZ
  Basis Set: (AUG-CC-PVTZ AUX)
    Blend: AUG-CC-PVTZ-JKFIT + DEF2-UNIVERSAL-JKFIT

    Orbital Energies [Eh]
    ---------------------

    Doubly Occupied:

       1A    -20.764498     2A    -20.757811     3A    -20.750363
       4A    -20.745594     5A     -2.540799     6A     -1.545293
       7A     -1.530438     8A     -1.526109     9A     -1.514340
      10A     -0.912045    11A     -0.880282    12A     -0.878008
      13A     -0.871931    14A     -0.799438    15A     -0.788042
      16A     -0.778783    17A     -0.765682    18A     -0.720351
      19A     -0.700172    20A     -0.692902    21A     -0.687972

  @DF-RHF Final Energy:  -311.60924237211395

   => Energetics <=

    Nuclear Repulsion Energy =            160.6182644288060430
    One-Electron Energy =                -742.1533047965879177
    Two-Electron Energy =                 269.9257979956679492
    Total Energy =                       -311.6092423721139539
 Dipole X            :         -4.9441634            5.5556417            0.6114783
 Dipole Y            :          2.2485103           -3.6889741           -1.4404638
 Dipole Z            :          9.9265261          -10.7969502           -0.8704241
 Magnitude           :                                                    1.7906646
  Basis Set: (AUG-CC-PVTZ AUX)
    Blend: AUG-CC-PVTZ-RI + DEF2-QZVPP-RI
	 Reference Energy          =    -311.6092423721139539 [Eh]
	 Singles Energy            =      -0.0000000000000000 [Eh]
	 Same-Spin Energy          =      -0.2772605277734322 [Eh]
	 Opposite-Spin Energy      =      -0.8838244438511303 [Eh]
	 Correlation Energy        =      -1.1610849716245626 [Eh]
	 Total Energy              =    -312.7703273437385292 [Eh]

	 ================> DF-SCS-MP2 Energies <==================
	-----------------------------------------------------------
	 SCS Same-Spin Scale       =       0.3333333333333333 [-]
	 SCS Opposite-Spin Scale   =       1.2000000000000000 [-]
	 SCS Same-Spin Energy      =      -0.0924201759244774 [Eh]
	 SCS Opposite-Spin Energy  =      -1.0605893326213565 [Eh]
	 SCS Correlation Energy    =      -1.1530095085458338 [Eh]
	 SCS Total Energy          =    -312.7622518806597895 [Eh]
	-----------------------------------------------------------

*** Psi4 exiting successfully. Buy a developer a beer!
