                               Psi4 1.8.2 release

  ==> Input File <==

--------------------------------------------------------------------------
MEMORY 60 GB

molecule dimer {
1 1
Li         0.000000     0.000000     0.000000
O          0.834436    -0.241329    -1.578276
H          1.191917    -1.111872    -1.723723
H          1.469698     0.437227    -1.857302
O         -1.157150    -1.678256     0.354050
H         -2.090219    -1.865260     0.521759
H         -0.712408    -2.505514     0.115149
O         -1.517712     1.412924    -0.255778
H         -1.084382     2.261262    -0.283873
H         -1.989995     1.420311     0.576573
O          0.904310     1.187102     1.315687
H          1.168203     0.886967     2.209891
H          0.442074     1.996661     1.434603

units ang
no_reorient
no_com
symmetry c1
}

set {
basis        aug-cc-pVTZ
scf_type     df
}

energy("mp2")
--------------------------------------------------------------------------

    Molecular point group: c1

    Geometry (in Angstrom), charge = 1, multiplicity = 1:

       Center              X                  Y                   Z               Mass
    ------------   -----------------  -----------------  -----------------  -----------------
         LI           0.000000000000     0.000000000000     0.000000000000     7.016003436600
         O            0.834436000000    -0.241329000000    -1.578276000000    15.994914619570
         H            1.191917000000    -1.111872000000    -1.723723000000     1.007825032230
         H            1.469698000000     0.437227000000    -1.857302000000     1.007825032230
         O           -1.157150000000    -1.678256000000     0.354050000000    15.994914619570
         H           -2.090219000000    -1.865260000000     0.521759000000     1.007825032230
         H           -0.712408000000    -2.505514000000     0.115149000000     1.007825032230
         O           -1.517712000000     1.412924000000    -0.255778000000    15.994914619570
         H           -1.084382000000     2.261262000000    -0.283873000000     1.007825032230
         H           -1.989995000000     1.420311000000     0.576573000000     1.007825032230
         O            0.904310000000     1.187102000000     1.315687000000    15.994914619570
         H            1.168203000000     0.886967000000     2.209891000000     1.007825032230
         H            0.442074000000     1.996661000000     1.434603000000     1.007825032230

  Charge       = 1
  Multiplicity = 1
  Basis Set: AUG-CC-PVTZ
    Blend: AUG-CC-PVTZ
  Basis Set: (AUG-CC-PVTZ AUX)
    Blend: AUG-CC-PVTZ-JKFIT + DEF2-UNIVERSAL-JKFIT

    Orbital Energies [Eh]
    ---------------------

    Doubly Occupied:

       1A    -20.757088     2A    -20.751781     3A    -20.744161
       4A    -20.742857     5A     -2.538104     6A     -1.548649
       7A     -1.543104     8A     -1.534998     9A     -1.526131
      10A     -0.919174    11A     -0.914925    12A     -0.900077
      13A     -0.893908    14A     -0.795420    15A     -0.789493
      16A     -0.773632    17A     -0.765691    18A     -0.718335
      19A     -0.707012    20A     -0.690889    21A     -0.687091

  @DF-RHF Final Energy:  -311.62011965394913

   => Energetics <=

    Nuclear Repulsion Energy =            162.5333541395363000
    One-Electron Energy =                -745.8219045162247767
    Two-Electron Energy =                 271.6684307227393447
    Total Energy =                       -311.6201196539491320
 Dipole X            :         17.2806011          -17.1852450            0.0953561
 Dipole Y            :        -13.0249289           13.1587488            0.1338199
 Dipole Z            :          1.4288957           -0.6074695            0.8214262
 Magnitude           :                                                    0.8377002
  Basis Set: (AUG-CC-PVTZ AUX)
    Blend: AUG-CC-PVTZ-RI + DEF2-QZVPP-RI
	 Reference Energy          =    -311.6201196539491320 [Eh]
	 Singles Energy            =      -0.0000000000000000 [Eh]
	 Same-Spin Energy          =      -0.2752969059970470 [Eh]
	 Opposite-Spin Energy      =      -0.8778066910599672 [Eh]
	 Correlation Energy        =      -1.1531035970570143 [Eh]
	 Total Energy              =    -312.7732232510061294 [Eh]

	 ================> DF-SCS-MP2 Energies <==================
	-----------------------------------------------------------
	 SCS Same-Spin Scale       =       0.3333333333333333 [-]
	 SCS Opposite-Spin Scale   =       1.2000000000000000 [-]
	 SCS Same-Spin Energy      =      -0.0917656353323490 [Eh]
	 SCS Opposite-Spin Energy  =      -1.0533680292719607 [Eh]
	 SCS Correlation Energy    =      -1.1451336646043098 [Eh]
	 SCS Total Energy          =    -312.7652533185534480 [Eh]
	-----------------------------------------------------------

*** Psi4 exiting successfully. Buy a developer a beer!
