                               Psi4 1.8.2 release

  ==> Input File <==

--------------------------------------------------------------------------
MEMORY 60 GB

molecule dimer {
1 1
Li         0.000000     0.000000     0.000000
O         -1.713431    -0.192651    -0.922553
H         -2.074049    -0.912705    -1.508446
H         -1.723588     0.568295    -1.499263
O          0.348439    -1.893986     0.119571
H         -0.123004    -2.715643     0.131494
H          1.215094    -2.096468    -0.252221
O         -0.160179     0.708868     1.726520
H         -0.768047     1.453803     1.689983
H         -0.342640     0.096572     2.429882
O          1.531978     0.426968    -1.011974
H          2.042686    -0.201545    -1.515655
H          2.129691     0.960383    -0.509585

units ang
no_reorient
no_com
symmetry c1
}

set {
basis        aug-cc-pVTZ
scf_type     df
}

energy("mp2")
--------------------------------------------------------------------------

    Molecular point group: c1

    Geometry (in Angstrom), charge = 1, multiplicity = 1:

       Center              X                  Y                   Z               Mass
    ------------   -----------------  -----------------  -----------------  -----------------
         LI           0.000000000000     0.000000000000     0.000000000000     7.016003436600
         O           -1.713431000000    -0.192651000000    -0.922553000000    15.994914619570
         H           -2.074049000000    -0.912705000000    -1.508446000000     1.007825032230
         H           -1.723588000000     0.568295000000    -1.499263000000     1.007825032230
         O            0.348439000000    -1.893986000000     0.119571000000    15.994914619570
         H           -0.123004000000    -2.715643000000     0.131494000000     1.007825032230
         H            1.215094000000    -2.096468000000    -0.252221000000     1.007825032230
         O           -0.160179000000     0.708868000000     1.726520000000    15.994914619570
         H           -0.768047000000     1.453803000000     1.689983000000     1.007825032230
         H           -0.342640000000     0.096572000000     2.429882000000     1.007825032230
         O            1.531978000000     0.426968000000    -1.011974000000    15.994914619570
         H            2.042686000000    -0.201545000000    -1.515655000000     1.007825032230
         H            2.129691000000     0.960383000000    -0.509585000000     1.007825032230

  Charge       = 1
  Multiplicity = 1
  Basis Set: AUG-CC-PVTZ
    Blend: AUG-CC-PVTZ
  Basis Set: (AUG-CC-PVTZ AUX)
    Blend: AUG-CC-PVTZ-JKFIT + DEF2-UNIVERSAL-JKFIT

    Orbital Energies [Eh]
    ---------------------

    Doubly Occupied:

       1A    -20.754789     2A    -20.745983     3A    -20.745115
       4A    -20.742834     5A     -2.525235     6A     -1.553324
       7A     -1.538901     8A     -1.534946     9A     -1.527860
      10A     -0.925984    11A     -0.919149    12A     -0.904040
      13A     -0.884111    14A     -0.800985    15A     -0.790622
      16A     -0.774647    17A     -0.768224    18A     -0.712629
      19A     -0.706097    20A     -0.697418    21A     -0.685052

  @DF-RHF Final Energy:  -311.62441375148171

   => Energetics <=

    Nuclear Repulsion Energy =            166.6579537370382127
    One-Electron Energy =                -754.0888389350953958
    Two-Electron Energy =                 275.8064714465755287
    Total Energy =                       -311.6244137514817112
 Dipole X            :         -0.5508846            0.7759197            0.2250351
 Dipole Y            :         18.9578913          -19.7546602           -0.7967689
 Dipole Z            :          2.7355400           -3.2905782           -0.5550383
 Magnitude           :                                                    0.9967692
  Basis Set: (AUG-CC-PVTZ AUX)
    Blend: AUG-CC-PVTZ-RI + DEF2-QZVPP-RI
	 Reference Energy          =    -311.6244137514817112 [Eh]
	 Singles Energy            =      -0.0000000000000000 [Eh]
	 Same-Spin Energy          =      -0.2754979319387316 [Eh]
	 Opposite-Spin Energy      =      -0.8778582019488373 [Eh]
	 Correlation Energy        =      -1.1533561338875689 [Eh]
	 Total Energy              =    -312.7777698853692527 [Eh]

	 ================> DF-SCS-MP2 Energies <==================
	-----------------------------------------------------------
	 SCS Same-Spin Scale       =       0.3333333333333333 [-]
	 SCS Opposite-Spin Scale   =       1.2000000000000000 [-]
	 SCS Same-Spin Energy      =      -0.0918326439795772 [Eh]
	 SCS Opposite-Spin Energy  =      -1.0534298423386048 [Eh]
	 SCS Correlation Energy    =      -1.1452624863181819 [Eh]
	 SCS Total Energy          =    -312.7696762377998994 [Eh]
	-----------------------------------------------------------

*** Psi4 exiting successfully. Buy a developer a beer!
