                               Psi4 1.8.2 release

  ==> Input File <==

--------------------------------------------------------------------------
MEMORY 60 GB

molecule dimer {
1 1
Li         0.000000     0.000000     0.000000
Gh(O)      1.296978    -1.022674    -0.940549
Gh(H)      2.066028    -0.402028    -0.993363
Gh(H)      1.641941    -1.811888    -0.528858
Gh(O)     -0.396746     1.474444    -1.474878
Gh(H)     -1.280057     1.910080    -1.499885
Gh(H)     -0.029846     1.581237    -2.348859
Gh(O)     -1.483670    -0.955584    -0.302297
Gh(H)     -2.040982    -0.609953    -1.043081
Gh(H)     -1.234753    -1.872425    -0.358799
Gh(O)      0.250460     0.847898     1.880600
Gh(H)     -0.509855     0.604026     2.413481
Gh(H)      0.341405     1.822100     1.938332

units ang
no_reorient
no_com
symmetry c1
}

set {
basis        aug-cc-pVTZ
scf_type     df
}

energy("mp2")
--------------------------------------------------------------------------

    Molecular point group: c1

    Geometry (in Angstrom), charge = 1, multiplicity = 1:

       Center              X                  Y                   Z               Mass
    ------------   -----------------  -----------------  -----------------  -----------------
         LI           0.000000000000     0.000000000000     0.000000000000     7.016003436600
      Gh(O)           1.296978000000    -1.022674000000    -0.940549000000    15.994914619570
      Gh(H)           2.066028000000    -0.402028000000    -0.993363000000     1.007825032230
      Gh(H)           1.641941000000    -1.811888000000    -0.528858000000     1.007825032230
      Gh(O)          -0.396746000000     1.474444000000    -1.474878000000    15.994914619570
      Gh(H)          -1.280057000000     1.910080000000    -1.499885000000     1.007825032230
      Gh(H)          -0.029846000000     1.581237000000    -2.348859000000     1.007825032230
      Gh(O)          -1.483670000000    -0.955584000000    -0.302297000000    15.994914619570
      Gh(H)          -2.040982000000    -0.609953000000    -1.043081000000     1.007825032230
      Gh(H)          -1.234753000000    -1.872425000000    -0.358799000000     1.007825032230
      Gh(O)           0.250460000000     0.847898000000     1.880600000000    15.994914619570
      Gh(H)          -0.509855000000     0.604026000000     2.413481000000     1.007825032230
      Gh(H)           0.341405000000     1.822100000000     1.938332000000     1.007825032230

  Charge       = 1
  Multiplicity = 1
  Basis Set: AUG-CC-PVTZ
    Blend: AUG-CC-PVTZ
  Basis Set: (AUG-CC-PVTZ AUX)
    Blend: AUG-CC-PVTZ-JKFIT + DEF2-UNIVERSAL-JKFIT

    Orbital Energies [Eh]
    ---------------------

    Doubly Occupied:

       1A     -2.792353

  @DF-RHF Final Energy:    -7.23638487575068

   => Energetics <=

    Nuclear Repulsion Energy =              0.0000000000000000
    One-Electron Energy =                  -8.8880646088500157
    Two-Electron Energy =                   1.6516797330993382
    Total Energy =                         -7.2363848757506775
 Dipole X            :          0.0000049            0.0000000            0.0000049
 Dipole Y            :          0.0000129            0.0000000            0.0000129
 Dipole Z            :          0.0000027            0.0000000            0.0000027
 Magnitude           :                                                    0.0000140
  Basis Set: (AUG-CC-PVTZ AUX)
    Blend: AUG-CC-PVTZ-RI + DEF2-QZVPP-RI
	 Reference Energy          =      -7.2363848757506775 [Eh]
	 Singles Energy            =      -0.0000000000000000 [Eh]
	 Same-Spin Energy          =       0.0000000000000000 [Eh]
	 Opposite-Spin Energy      =      -0.0170159729473102 [Eh]
	 Correlation Energy        =      -0.0170159729473102 [Eh]
	 Total Energy              =      -7.2534008486979875 [Eh]

	 ================> DF-SCS-MP2 Energies <==================
	-----------------------------------------------------------
	 SCS Same-Spin Scale       =       0.3333333333333333 [-]
	 SCS Opposite-Spin Scale   =       1.2000000000000000 [-]
	 SCS Same-Spin Energy      =       0.0000000000000000 [Eh]
	 SCS Opposite-Spin Energy  =      -0.0204191675367723 [Eh]
	 SCS Correlation Energy    =      -0.0204191675367723 [Eh]
	 SCS Total Energy          =      -7.2568040432874499 [Eh]
	-----------------------------------------------------------

*** Psi4 exiting successfully. Buy a developer a beer!
