                               Psi4 1.9 release

  ==> Input File <==

--------------------------------------------------------------------------
MEMORY 60 GB

molecule dimer {
1 1
Li     0.000000     0.000000     0.000000
--
0 1
O      0.093466     1.102529     1.398467
H     -0.286264     0.781074     2.237075
H      1.062890     1.237794     1.569113
O     -0.817145    -1.577921     0.295809
H     -0.126605    -2.261842     0.420003
H     -1.199869    -1.626482    -0.594808

units ang
no_reorient
no_com
symmetry c1
}

set {
basis        aug-cc-pVTZ
scf_type     df
}

energy("mp2", bsse_type="cp")
--------------------------------------------------------------------------

                               Psi4 1.9 release
    Molecular point group: c1
  Charge       = 0
  Multiplicity = 1
  Basis Set: AUG-CC-PVTZ
    Blend: AUG-CC-PVTZ
  Basis Set: (AUG-CC-PVTZ AUX)
    Blend: AUG-CC-PVTZ-JKFIT + DEF2-UNIVERSAL-JKFIT
  @DF-RHF Final Energy:  -152.11111829345970
    Total Energy =                       -152.1111182934596968
 Dipole X            :         12.5495638          -11.9795030            0.5700607
 Dipole Y            :         10.1056098          -10.7196453           -0.6140355
 Dipole Z            :        -32.3514782           32.4760603            0.1245821
 Magnitude           :                                                    0.8470711
  Basis Set: (AUG-CC-PVTZ AUX)
    Blend: AUG-CC-PVTZ-RI + DEF2-QZVPP-RI
	 Reference Energy          =    -152.1111182934596968 [Eh]
	 Singles Energy            =      -0.0000000000000000 [Eh]
	 Same-Spin Energy          =      -0.1380849326697162 [Eh]
	 Opposite-Spin Energy      =      -0.4343547384400982 [Eh]
	 Correlation Energy        =      -0.5724396711098144 [Eh]
	 Total Energy              =    -152.6835579645695020 [Eh]
	 SCS Total Energy          =    -152.6783722904777107 [Eh]
                               Psi4 1.9 release
    Molecular point group: c1
  Multiplicity = 1
  Basis Set: AUG-CC-PVTZ
    Blend: AUG-CC-PVTZ
  Basis Set: (AUG-CC-PVTZ AUX)
    Blend: AUG-CC-PVTZ-JKFIT + DEF2-UNIVERSAL-JKFIT
  @DF-RHF Final Energy:    -7.23638416173149
    Total Energy =                         -7.2363841617314915
  Basis Set: (AUG-CC-PVTZ AUX)
	 Singles Energy            =      -0.0000000000000000 [Eh]
	 Same-Spin Energy          =       0.0000000000000000 [Eh]
	 Opposite-Spin Energy      =      -0.0154377028314229 [Eh]
	 Correlation Energy        =      -0.0154377028314229 [Eh]
	 Total Energy              =      -7.2518218645629151 [Eh]
	 SCS Total Energy          =      -7.2549094051292000 [Eh]
                               Psi4 1.9 release
    Molecular point group: c1

    Geometry (in Bohr), charge = 1, multiplicity = 1:

       Center              X                  Y                   Z               Mass
    ------------   -----------------  -----------------  -----------------  -----------------
         LI           0.000000000000     0.000000000000     0.000000000000     7.016003436600
         O            0.176625142042     2.083477855375     2.642719625491    15.994914619570
         H           -0.540960559578     1.476015943716     4.227459072109     1.007825032230
         H            2.008571001488     2.339091659735     2.965193829896     1.007825032230
         O           -1.544180254787    -2.981838537609     0.558997995446    15.994914619570
         H           -0.239248776114    -4.274261919058     0.793690641871     1.007825032230
         H           -2.267423796427    -3.073605527987    -1.124024217231     1.007825032230

  Charge       = 1
  Multiplicity = 1
  Basis Set: AUG-CC-PVTZ
    Blend: AUG-CC-PVTZ
  Basis Set: (AUG-CC-PVTZ AUX)
    Blend: AUG-CC-PVTZ-JKFIT + DEF2-UNIVERSAL-JKFIT

    Orbital Energies [Eh]
    ---------------------

    Doubly Occupied:

       1A    -20.802906     2A    -20.795398     3A     -2.632885
       4A     -1.586297     5A     -1.573825     6A     -0.959528
       7A     -0.935662     8A     -0.829608     9A     -0.819103
      10A     -0.762523    11A     -0.748204

  @DF-RHF Final Energy:  -159.43326373436128

   => Energetics <=

    Nuclear Repulsion Energy =             51.5392527548587864
    One-Electron Energy =                -317.0531525463566140
    Two-Electron Energy =                 106.0806360571365303
    Total Energy =                       -159.4332637343612760
 Dipole X            :         12.4563066          -11.9795030            0.4768036
 Dipole Y            :          9.9475390          -10.7196453           -0.7721063
 Dipole Z            :        -31.9572790           32.4760603            0.5187813
 Magnitude           :                                                    1.0452865
  Basis Set: (AUG-CC-PVTZ AUX)
    Blend: AUG-CC-PVTZ-RI + DEF2-QZVPP-RI
	 Reference Energy          =    -159.4332637343612760 [Eh]
	 Singles Energy            =      -0.0000000000000000 [Eh]
	 Same-Spin Energy          =      -0.1372700426638586 [Eh]
	 Opposite-Spin Energy      =      -0.4453246417811696 [Eh]
	 Correlation Energy        =      -0.5825946844450283 [Eh]
	 Total Energy              =    -160.0158584188063173 [Eh]

	 ================> DF-SCS-MP2 Energies <==================
	-----------------------------------------------------------
	 SCS Same-Spin Scale       =       0.3333333333333333 [-]
	 SCS Opposite-Spin Scale   =       1.2000000000000000 [-]
	 SCS Same-Spin Energy      =      -0.0457566808879529 [Eh]
	 SCS Opposite-Spin Energy  =      -0.5343895701374035 [Eh]
	 SCS Correlation Energy    =      -0.5801462510253564 [Eh]
	 SCS Total Energy          =    -160.0134099853866303 [Eh]
	-----------------------------------------------------------

*** Psi4 exiting successfully. Buy a developer a beer!
