                               Psi4 1.8.2 release

  ==> Input File <==

--------------------------------------------------------------------------
MEMORY 60 GB

molecule dimer {
0 1
Gh(Li)     0.000000     0.000000     0.000000
Gh(O)     -0.018395    -0.041580     1.983631
Gh(H)     -0.386092    -0.854160     2.162791
Gh(H)     -0.588807     0.602468     2.387195
O          1.568867    -0.245466    -0.873446
H          1.921565     0.450636    -1.498824
H          1.715073    -1.117651    -1.298721
Gh(O)     -1.777084    -0.764231    -0.483763
Gh(H)     -1.639151    -1.700624    -0.297360
Gh(H)     -2.502232    -0.406567     0.104343

units ang
no_reorient
no_com
symmetry c1
}

set {
basis        aug-cc-pVTZ
scf_type     df
}

energy("mp2")
--------------------------------------------------------------------------

    Molecular point group: c1

    Geometry (in Angstrom), charge = 0, multiplicity = 1:

       Center              X                  Y                   Z               Mass
    ------------   -----------------  -----------------  -----------------  -----------------
      Gh(LI)          0.000000000000     0.000000000000     0.000000000000     7.016003436600
      Gh(O)          -0.018395000000    -0.041580000000     1.983631000000    15.994914619570
      Gh(H)          -0.386092000000    -0.854160000000     2.162791000000     1.007825032230
      Gh(H)          -0.588807000000     0.602468000000     2.387195000000     1.007825032230
         O            1.568867000000    -0.245466000000    -0.873446000000    15.994914619570
         H            1.921565000000     0.450636000000    -1.498824000000     1.007825032230
         H            1.715073000000    -1.117651000000    -1.298721000000     1.007825032230
      Gh(O)          -1.777084000000    -0.764231000000    -0.483763000000    15.994914619570
      Gh(H)          -1.639151000000    -1.700624000000    -0.297360000000     1.007825032230
      Gh(H)          -2.502232000000    -0.406567000000     0.104343000000     1.007825032230

  Charge       = 0
  Multiplicity = 1
  Basis Set: AUG-CC-PVTZ
    Blend: AUG-CC-PVTZ
  Basis Set: (AUG-CC-PVTZ AUX)
    Blend: AUG-CC-PVTZ-JKFIT + DEF2-UNIVERSAL-JKFIT

    Orbital Energies [Eh]
    ---------------------

    Doubly Occupied:

       1A    -20.571458     2A     -1.335191     3A     -0.704530
       4A     -0.573316     5A     -0.506845

  @DF-RHF Final Energy:   -76.05619304855179

   => Energetics <=

    Nuclear Repulsion Energy =              8.8793090781181352
    One-Electron Energy =                -122.4883209133514583
    Two-Electron Energy =                  37.5528187866815344
    Total Energy =                        -76.0561930485517905
 Dipole X            :        -30.2626946           30.5900815            0.3273869
 Dipole Y            :          4.8528823           -4.9713838           -0.1185015
 Dipole Z            :         17.8018947          -18.4911837           -0.6892889
 Magnitude           :                                                    0.7722331
  Basis Set: (AUG-CC-PVTZ AUX)
    Blend: AUG-CC-PVTZ-RI + DEF2-QZVPP-RI
	 Reference Energy          =     -76.0561930485517905 [Eh]
	 Singles Energy            =      -0.0000000000000000 [Eh]
	 Same-Spin Energy          =      -0.0689607321369752 [Eh]
	 Opposite-Spin Energy      =      -0.2175997141987744 [Eh]
	 Correlation Energy        =      -0.2865604463357496 [Eh]
	 Total Energy              =     -76.3427534948875461 [Eh]

	 ================> DF-SCS-MP2 Energies <==================
	-----------------------------------------------------------
	 SCS Same-Spin Scale       =       0.3333333333333333 [-]
	 SCS Opposite-Spin Scale   =       1.2000000000000000 [-]
	 SCS Same-Spin Energy      =      -0.0229869107123251 [Eh]
	 SCS Opposite-Spin Energy  =      -0.2611196570385293 [Eh]
	 SCS Correlation Energy    =      -0.2841065677508544 [Eh]
	 SCS Total Energy          =     -76.3402996163026444 [Eh]
	-----------------------------------------------------------

*** Psi4 exiting successfully. Buy a developer a beer!
