                               Psi4 1.8.2 release

  ==> Input File <==

--------------------------------------------------------------------------
MEMORY 60 GB

molecule dimer {
0 1
Gh(Li)     0.000000     0.000000     0.000000
Gh(O)      0.390042    -1.160616     1.490585
Gh(H)     -0.243993    -1.161479     2.265530
Gh(H)      1.258902    -1.475505     1.814142
O          0.714006    -0.621924    -1.675532
H          0.563089    -1.496172    -2.023043
H          1.634528    -0.693713    -1.380365
Gh(O)      0.007185     1.610878     0.603106
Gh(H)      0.504155     1.802163     1.444361
Gh(H)      0.266326     2.363747     0.036021
Gh(O)     -2.100619    -0.120590     0.246977
Gh(H)     -2.225502     0.165368     1.190818
Gh(H)     -2.740583    -0.897791     0.115905

units ang
no_reorient
no_com
symmetry c1
}

set {
basis        aug-cc-pVTZ
scf_type     df
}

energy("mp2")
--------------------------------------------------------------------------

    Molecular point group: c1

    Geometry (in Angstrom), charge = 0, multiplicity = 1:

       Center              X                  Y                   Z               Mass
    ------------   -----------------  -----------------  -----------------  -----------------
      Gh(LI)          0.000000000000     0.000000000000     0.000000000000     7.016003436600
      Gh(O)           0.390042000000    -1.160616000000     1.490585000000    15.994914619570
      Gh(H)          -0.243993000000    -1.161479000000     2.265530000000     1.007825032230
      Gh(H)           1.258902000000    -1.475505000000     1.814142000000     1.007825032230
         O            0.714006000000    -0.621924000000    -1.675532000000    15.994914619570
         H            0.563089000000    -1.496172000000    -2.023043000000     1.007825032230
         H            1.634528000000    -0.693713000000    -1.380365000000     1.007825032230
      Gh(O)           0.007185000000     1.610878000000     0.603106000000    15.994914619570
      Gh(H)           0.504155000000     1.802163000000     1.444361000000     1.007825032230
      Gh(H)           0.266326000000     2.363747000000     0.036021000000     1.007825032230
      Gh(O)          -2.100619000000    -0.120590000000     0.246977000000    15.994914619570
      Gh(H)          -2.225502000000     0.165368000000     1.190818000000     1.007825032230
      Gh(H)          -2.740583000000    -0.897791000000     0.115905000000     1.007825032230

  Charge       = 0
  Multiplicity = 1
  Basis Set: AUG-CC-PVTZ
    Blend: AUG-CC-PVTZ
  Basis Set: (AUG-CC-PVTZ AUX)
    Blend: AUG-CC-PVTZ-JKFIT + DEF2-UNIVERSAL-JKFIT

    Orbital Energies [Eh]
    ---------------------

    Doubly Occupied:

       1A    -20.569065     2A     -1.353995     3A     -0.709007
       4A     -0.590665     5A     -0.510986

  @DF-RHF Final Energy:   -76.05983913586502

   => Energetics <=

    Nuclear Repulsion Energy =              9.1667288012890378
    One-Electron Energy =                -122.9856993617224248
    Two-Electron Energy =                  37.7591314245683662
    Total Energy =                        -76.0598391358650190
 Dipole X            :        -14.4436789           14.9471006            0.5034217
 Dipole Y            :         12.9171522          -13.5404111           -0.6232589
 Dipole Z            :         31.7259281          -31.7618818           -0.0359536
 Magnitude           :                                                    0.8019836
  Basis Set: (AUG-CC-PVTZ AUX)
    Blend: AUG-CC-PVTZ-RI + DEF2-QZVPP-RI
	 Reference Energy          =     -76.0598391358650190 [Eh]
	 Singles Energy            =      -0.0000000000000000 [Eh]
	 Same-Spin Energy          =      -0.0685746517581520 [Eh]
	 Opposite-Spin Energy      =      -0.2164649622117169 [Eh]
	 Correlation Energy        =      -0.2850396139698689 [Eh]
	 Total Energy              =     -76.3448787498348906 [Eh]

	 ================> DF-SCS-MP2 Energies <==================
	-----------------------------------------------------------
	 SCS Same-Spin Scale       =       0.3333333333333333 [-]
	 SCS Opposite-Spin Scale   =       1.2000000000000000 [-]
	 SCS Same-Spin Energy      =      -0.0228582172527173 [Eh]
	 SCS Opposite-Spin Energy  =      -0.2597579546540603 [Eh]
	 SCS Correlation Energy    =      -0.2826161719067776 [Eh]
	 SCS Total Energy          =     -76.3424553077718002 [Eh]
	-----------------------------------------------------------

*** Psi4 exiting successfully. Buy a developer a beer!
