                               Psi4 1.8.2 release

  ==> Input File <==

--------------------------------------------------------------------------
MEMORY 60 GB

molecule dimer {
1 1
Li         0.000000     0.000000     0.000000
Gh(O)      1.718350     0.176551     0.544897
Gh(H)      2.140398     0.825322    -0.025747
Gh(H)      1.574066     0.694093     1.420858
Gh(O)     -0.618594     1.178660    -1.431382
Gh(H)     -1.462932     1.491536    -1.765382
Gh(H)     -0.007693     1.643578    -2.053149
Gh(O)     -0.276860    -1.382086    -1.514478
Gh(H)     -0.026138    -2.301828    -1.619613
Gh(H)     -0.080953    -0.943301    -2.378795
Gh(O)     -1.025451    -0.316730     1.697479
Gh(H)     -1.827661    -0.788100     1.402480
Gh(H)     -0.931749    -0.447840     2.626507

units ang
no_reorient
no_com
symmetry c1
}

set {
basis        aug-cc-pVTZ
scf_type     df
}

energy("mp2")
--------------------------------------------------------------------------

    Molecular point group: c1

    Geometry (in Angstrom), charge = 1, multiplicity = 1:

       Center              X                  Y                   Z               Mass
    ------------   -----------------  -----------------  -----------------  -----------------
         LI           0.000000000000     0.000000000000     0.000000000000     7.016003436600
      Gh(O)           1.718350000000     0.176551000000     0.544897000000    15.994914619570
      Gh(H)           2.140398000000     0.825322000000    -0.025747000000     1.007825032230
      Gh(H)           1.574066000000     0.694093000000     1.420858000000     1.007825032230
      Gh(O)          -0.618594000000     1.178660000000    -1.431382000000    15.994914619570
      Gh(H)          -1.462932000000     1.491536000000    -1.765382000000     1.007825032230
      Gh(H)          -0.007693000000     1.643578000000    -2.053149000000     1.007825032230
      Gh(O)          -0.276860000000    -1.382086000000    -1.514478000000    15.994914619570
      Gh(H)          -0.026138000000    -2.301828000000    -1.619613000000     1.007825032230
      Gh(H)          -0.080953000000    -0.943301000000    -2.378795000000     1.007825032230
      Gh(O)          -1.025451000000    -0.316730000000     1.697479000000    15.994914619570
      Gh(H)          -1.827661000000    -0.788100000000     1.402480000000     1.007825032230
      Gh(H)          -0.931749000000    -0.447840000000     2.626507000000     1.007825032230

  Charge       = 1
  Multiplicity = 1
  Basis Set: AUG-CC-PVTZ
    Blend: AUG-CC-PVTZ
  Basis Set: (AUG-CC-PVTZ AUX)
    Blend: AUG-CC-PVTZ-JKFIT + DEF2-UNIVERSAL-JKFIT

    Orbital Energies [Eh]
    ---------------------

    Doubly Occupied:

       1A     -2.792353

  @DF-RHF Final Energy:    -7.23638487447330

   => Energetics <=

    Nuclear Repulsion Energy =              0.0000000000000000
    One-Electron Energy =                  -8.8880643849592307
    Two-Electron Energy =                   1.6516795104859294
    Total Energy =                         -7.2363848744733010
 Dipole X            :         -0.0000052            0.0000000           -0.0000052
 Dipole Y            :         -0.0000083            0.0000000           -0.0000083
 Dipole Z            :         -0.0000035            0.0000000           -0.0000035
 Magnitude           :                                                    0.0000104
  Basis Set: (AUG-CC-PVTZ AUX)
    Blend: AUG-CC-PVTZ-RI + DEF2-QZVPP-RI
	 Reference Energy          =      -7.2363848744733010 [Eh]
	 Singles Energy            =      -0.0000000000000000 [Eh]
	 Same-Spin Energy          =       0.0000000000000000 [Eh]
	 Opposite-Spin Energy      =      -0.0169751065729812 [Eh]
	 Correlation Energy        =      -0.0169751065729812 [Eh]
	 Total Energy              =      -7.2533599810462821 [Eh]

	 ================> DF-SCS-MP2 Energies <==================
	-----------------------------------------------------------
	 SCS Same-Spin Scale       =       0.3333333333333333 [-]
	 SCS Opposite-Spin Scale   =       1.2000000000000000 [-]
	 SCS Same-Spin Energy      =       0.0000000000000000 [Eh]
	 SCS Opposite-Spin Energy  =      -0.0203701278875775 [Eh]
	 SCS Correlation Energy    =      -0.0203701278875775 [Eh]
	 SCS Total Energy          =      -7.2567550023608787 [Eh]
	-----------------------------------------------------------

*** Psi4 exiting successfully. Buy a developer a beer!
