                               Psi4 1.8.2 release

  ==> Input File <==

--------------------------------------------------------------------------
MEMORY 60 GB

molecule dimer {
0 1
Gh(Li)     0.000000     0.000000     0.000000
Gh(O)      0.550681     0.947423     1.505334
Gh(H)      0.161846     0.907748     2.392860
Gh(H)      1.467969     1.175398     1.691757
O          0.754605    -1.279638    -0.954929
H          0.270620    -2.057244    -1.226441
H          1.014806    -0.868615    -1.816737
Gh(O)      0.567737     1.533188    -1.263215
Gh(H)      1.376336     2.087318    -1.155885
Gh(H)     -0.117822     2.050584    -1.738495
Gh(O)     -1.991045     0.342734    -0.264047
Gh(H)     -2.302911     0.449848    -1.148678
Gh(H)     -2.370736     1.090364     0.255936

units ang
no_reorient
no_com
symmetry c1
}

set {
basis        aug-cc-pVTZ
scf_type     df
}

energy("mp2")
--------------------------------------------------------------------------

    Molecular point group: c1

    Geometry (in Angstrom), charge = 0, multiplicity = 1:

       Center              X                  Y                   Z               Mass
    ------------   -----------------  -----------------  -----------------  -----------------
      Gh(LI)          0.000000000000     0.000000000000     0.000000000000     7.016003436600
      Gh(O)           0.550681000000     0.947423000000     1.505334000000    15.994914619570
      Gh(H)           0.161846000000     0.907748000000     2.392860000000     1.007825032230
      Gh(H)           1.467969000000     1.175398000000     1.691757000000     1.007825032230
         O            0.754605000000    -1.279638000000    -0.954929000000    15.994914619570
         H            0.270620000000    -2.057244000000    -1.226441000000     1.007825032230
         H            1.014806000000    -0.868615000000    -1.816737000000     1.007825032230
      Gh(O)           0.567737000000     1.533188000000    -1.263215000000    15.994914619570
      Gh(H)           1.376336000000     2.087318000000    -1.155885000000     1.007825032230
      Gh(H)          -0.117822000000     2.050584000000    -1.738495000000     1.007825032230
      Gh(O)          -1.991045000000     0.342734000000    -0.264047000000    15.994914619570
      Gh(H)          -2.302911000000     0.449848000000    -1.148678000000     1.007825032230
      Gh(H)          -2.370736000000     1.090364000000     0.255936000000     1.007825032230

  Charge       = 0
  Multiplicity = 1
  Basis Set: AUG-CC-PVTZ
    Blend: AUG-CC-PVTZ
  Basis Set: (AUG-CC-PVTZ AUX)
    Blend: AUG-CC-PVTZ-JKFIT + DEF2-UNIVERSAL-JKFIT

    Orbital Energies [Eh]
    ---------------------

    Doubly Occupied:

       1A    -20.570258     2A     -1.347105     3A     -0.706526
       4A     -0.584873     5A     -0.509579

  @DF-RHF Final Energy:   -76.05867135300126

   => Energetics <=

    Nuclear Repulsion Energy =              9.0570147079515433
    One-Electron Energy =                -122.7946877503462133
    Two-Electron Energy =                  37.6790016893934236
    Total Energy =                        -76.0586713530012446
 Dipole X            :        -13.9867301           13.8370774           -0.1496528
 Dipole Y            :         24.6289624          -24.8743951           -0.2454327
 Dipole Z            :         19.4463385          -20.1872072           -0.7408687
 Magnitude           :                                                    0.7946821
  Basis Set: (AUG-CC-PVTZ AUX)
    Blend: AUG-CC-PVTZ-RI + DEF2-QZVPP-RI
	 Reference Energy          =     -76.0586713530012588 [Eh]
	 Singles Energy            =      -0.0000000000000000 [Eh]
	 Same-Spin Energy          =      -0.0687408688127953 [Eh]
	 Opposite-Spin Energy      =      -0.2170533863159574 [Eh]
	 Correlation Energy        =      -0.2857942551287527 [Eh]
	 Total Energy              =     -76.3444656081300081 [Eh]

	 ================> DF-SCS-MP2 Energies <==================
	-----------------------------------------------------------
	 SCS Same-Spin Scale       =       0.3333333333333333 [-]
	 SCS Opposite-Spin Scale   =       1.2000000000000000 [-]
	 SCS Same-Spin Energy      =      -0.0229136229375984 [Eh]
	 SCS Opposite-Spin Energy  =      -0.2604640635791489 [Eh]
	 SCS Correlation Energy    =      -0.2833776865167473 [Eh]
	 SCS Total Energy          =     -76.3420490395180025 [Eh]
	-----------------------------------------------------------

*** Psi4 exiting successfully. Buy a developer a beer!
