                               Psi4 1.8.2 release

  ==> Input File <==

--------------------------------------------------------------------------
MEMORY 60 GB

molecule dimer {
0 1
Gh(Li)     0.000000     0.000000     0.000000
Gh(O)      1.858934    -0.623976    -0.526781
Gh(H)      1.848269    -1.539102    -0.846784
Gh(H)      2.660861    -0.574173     0.041889
Gh(O)     -0.075512     1.555018     1.114340
Gh(H)     -0.140334     2.353388     0.602470
Gh(H)      0.715955     1.755071     1.596003
Gh(O)     -0.507566     0.606809    -1.968779
Gh(H)     -0.605809    -0.214582    -2.524121
Gh(H)     -0.969069     1.265079    -2.433698
O         -0.854187    -1.323968     1.103405
H         -1.682373    -1.653239     0.783875
H         -1.040480    -0.735892     1.855917

units ang
no_reorient
no_com
symmetry c1
}

set {
basis        aug-cc-pVTZ
scf_type     df
}

energy("mp2")
--------------------------------------------------------------------------

    Molecular point group: c1

    Geometry (in Angstrom), charge = 0, multiplicity = 1:

       Center              X                  Y                   Z               Mass
    ------------   -----------------  -----------------  -----------------  -----------------
      Gh(LI)          0.000000000000     0.000000000000     0.000000000000     7.016003436600
      Gh(O)           1.858934000000    -0.623976000000    -0.526781000000    15.994914619570
      Gh(H)           1.848269000000    -1.539102000000    -0.846784000000     1.007825032230
      Gh(H)           2.660861000000    -0.574173000000     0.041889000000     1.007825032230
      Gh(O)          -0.075512000000     1.555018000000     1.114340000000    15.994914619570
      Gh(H)          -0.140334000000     2.353388000000     0.602470000000     1.007825032230
      Gh(H)           0.715955000000     1.755071000000     1.596003000000     1.007825032230
      Gh(O)          -0.507566000000     0.606809000000    -1.968779000000    15.994914619570
      Gh(H)          -0.605809000000    -0.214582000000    -2.524121000000     1.007825032230
      Gh(H)          -0.969069000000     1.265079000000    -2.433698000000     1.007825032230
         O           -0.854187000000    -1.323968000000     1.103405000000    15.994914619570
         H           -1.682373000000    -1.653239000000     0.783875000000     1.007825032230
         H           -1.040480000000    -0.735892000000     1.855917000000     1.007825032230

  Charge       = 0
  Multiplicity = 1
  Basis Set: AUG-CC-PVTZ
    Blend: AUG-CC-PVTZ
  Basis Set: (AUG-CC-PVTZ AUX)
    Blend: AUG-CC-PVTZ-JKFIT + DEF2-UNIVERSAL-JKFIT

    Orbital Energies [Eh]
    ---------------------

    Doubly Occupied:

       1A    -20.565978     2A     -1.350015     3A     -0.722293
       4A     -0.578095     5A     -0.509174

  @DF-RHF Final Energy:   -76.06013778691261

   => Energetics <=

    Nuclear Repulsion Energy =              9.1634194106450373
    One-Electron Energy =                -122.9960017702581894
    Two-Electron Energy =                  37.7724445727005502
    Total Energy =                        -76.0601377869126054
 Dipole X            :         17.3771401          -18.0588824           -0.6817423
 Dipole Y            :         24.7010798          -24.5302986            0.1707812
 Dipole Z            :        -21.3819955           21.6695500            0.2875544
 Magnitude           :                                                    0.7593592
  Basis Set: (AUG-CC-PVTZ AUX)
    Blend: AUG-CC-PVTZ-RI + DEF2-QZVPP-RI
	 Reference Energy          =     -76.0601377869126054 [Eh]
	 Singles Energy            =      -0.0000000000000000 [Eh]
	 Same-Spin Energy          =      -0.0684275197408469 [Eh]
	 Opposite-Spin Energy      =      -0.2160038005601284 [Eh]
	 Correlation Energy        =      -0.2844313203009753 [Eh]
	 Total Energy              =     -76.3445691072135872 [Eh]

	 ================> DF-SCS-MP2 Energies <==================
	-----------------------------------------------------------
	 SCS Same-Spin Scale       =       0.3333333333333333 [-]
	 SCS Opposite-Spin Scale   =       1.2000000000000000 [-]
	 SCS Same-Spin Energy      =      -0.0228091732469490 [Eh]
	 SCS Opposite-Spin Energy  =      -0.2592045606721541 [Eh]
	 SCS Correlation Energy    =      -0.2820137339191031 [Eh]
	 SCS Total Energy          =     -76.3421515208317061 [Eh]
	-----------------------------------------------------------

*** Psi4 exiting successfully. Buy a developer a beer!
