                               Psi4 1.8.2 release

  ==> Input File <==

--------------------------------------------------------------------------
MEMORY 60 GB

molecule dimer {
0 1
Gh(Li)     0.000000     0.000000     0.000000
Gh(O)     -0.398786    -1.589021    -1.083653
Gh(H)      0.104594    -1.896182    -1.796161
Gh(H)     -0.340299    -2.316178    -0.427544
Gh(O)      1.473191    -0.539863     0.795211
Gh(H)      2.355782    -0.467384     0.412253
Gh(H)      1.505819    -1.406148     1.233169
O          0.501553     1.463017    -1.262223
H         -0.051961     1.314977    -2.033203
H          1.407051     1.606647    -1.681690
Gh(O)     -1.690669     0.465935     0.912623
Gh(H)     -1.690927     0.654825     1.943650
Gh(H)     -2.533637     0.109345     0.695255

units ang
no_reorient
no_com
symmetry c1
}

set {
basis        aug-cc-pVTZ
scf_type     df
}

energy("mp2")
--------------------------------------------------------------------------

    Molecular point group: c1

    Geometry (in Angstrom), charge = 0, multiplicity = 1:

       Center              X                  Y                   Z               Mass
    ------------   -----------------  -----------------  -----------------  -----------------
      Gh(LI)          0.000000000000     0.000000000000     0.000000000000     7.016003436600
      Gh(O)          -0.398786000000    -1.589021000000    -1.083653000000    15.994914619570
      Gh(H)           0.104594000000    -1.896182000000    -1.796161000000     1.007825032230
      Gh(H)          -0.340299000000    -2.316178000000    -0.427544000000     1.007825032230
      Gh(O)           1.473191000000    -0.539863000000     0.795211000000    15.994914619570
      Gh(H)           2.355782000000    -0.467384000000     0.412253000000     1.007825032230
      Gh(H)           1.505819000000    -1.406148000000     1.233169000000     1.007825032230
         O            0.501553000000     1.463017000000    -1.262223000000    15.994914619570
         H           -0.051961000000     1.314977000000    -2.033203000000     1.007825032230
         H            1.407051000000     1.606647000000    -1.681690000000     1.007825032230
      Gh(O)          -1.690669000000     0.465935000000     0.912623000000    15.994914619570
      Gh(H)          -1.690927000000     0.654825000000     1.943650000000     1.007825032230
      Gh(H)          -2.533637000000     0.109345000000     0.695255000000     1.007825032230

  Charge       = 0
  Multiplicity = 1
  Basis Set: AUG-CC-PVTZ
    Blend: AUG-CC-PVTZ
  Basis Set: (AUG-CC-PVTZ AUX)
    Blend: AUG-CC-PVTZ-JKFIT + DEF2-UNIVERSAL-JKFIT

    Orbital Energies [Eh]
    ---------------------

    Doubly Occupied:

       1A    -20.572746     2A     -1.342211     3A     -0.698356
       4A     -0.584512     5A     -0.509008

  @DF-RHF Final Energy:   -76.05643693282985

   => Energetics <=

    Nuclear Repulsion Energy =              8.9522020908909514
    One-Electron Energy =                -122.6036082237217784
    Two-Electron Energy =                  37.5949692000009819
    Total Energy =                        -76.0564369328298540
 Dipole X            :         -9.9231167           10.1431314            0.2200148
 Dipole Y            :        -27.6430027           27.6386808           -0.0043219
 Dipole Z            :         25.3274941          -26.1021766           -0.7746825
 Magnitude           :                                                    0.8053311
  Basis Set: (AUG-CC-PVTZ AUX)
    Blend: AUG-CC-PVTZ-RI + DEF2-QZVPP-RI
	 Reference Energy          =     -76.0564369328298540 [Eh]
	 Singles Energy            =      -0.0000000000000000 [Eh]
	 Same-Spin Energy          =      -0.0689569362871537 [Eh]
	 Opposite-Spin Energy      =      -0.2176389936346165 [Eh]
	 Correlation Energy        =      -0.2865959299217702 [Eh]
	 Total Energy              =     -76.3430328627516275 [Eh]

	 ================> DF-SCS-MP2 Energies <==================
	-----------------------------------------------------------
	 SCS Same-Spin Scale       =       0.3333333333333333 [-]
	 SCS Opposite-Spin Scale   =       1.2000000000000000 [-]
	 SCS Same-Spin Energy      =      -0.0229856454290512 [Eh]
	 SCS Opposite-Spin Energy  =      -0.2611667923615398 [Eh]
	 SCS Correlation Energy    =      -0.2841524377905910 [Eh]
	 SCS Total Energy          =     -76.3405893706204495 [Eh]
	-----------------------------------------------------------

*** Psi4 exiting successfully. Buy a developer a beer!
