                               Psi4 1.8.2 release

  ==> Input File <==

--------------------------------------------------------------------------
MEMORY 60 GB

molecule dimer {
0 1
Gh(Li)     0.000000     0.000000     0.000000
O          0.479299    -0.023155     2.040576
H          1.401203    -0.047344     1.992724
H          0.183700    -0.723857     2.589691
Gh(O)      1.211465     0.917124    -1.085982
Gh(H)      1.893267     0.250849    -1.335533
Gh(H)      1.514507     1.731669    -0.789172
Gh(O)      0.020647    -1.905313    -0.620925
Gh(H)      0.710937    -2.493526    -1.007313
Gh(H)     -0.763325    -2.495709    -0.483083
Gh(O)     -1.823938     0.516909    -0.645776
Gh(H)     -2.499709    -0.060327    -0.255399
Gh(H)     -2.179640     1.399153    -0.823341

units ang
no_reorient
no_com
symmetry c1
}

set {
basis        aug-cc-pVTZ
scf_type     df
}

energy("mp2")
--------------------------------------------------------------------------

    Molecular point group: c1

    Geometry (in Angstrom), charge = 0, multiplicity = 1:

       Center              X                  Y                   Z               Mass
    ------------   -----------------  -----------------  -----------------  -----------------
      Gh(LI)          0.000000000000     0.000000000000     0.000000000000     7.016003436600
         O            0.479299000000    -0.023155000000     2.040576000000    15.994914619570
         H            1.401203000000    -0.047344000000     1.992724000000     1.007825032230
         H            0.183700000000    -0.723857000000     2.589691000000     1.007825032230
      Gh(O)           1.211465000000     0.917124000000    -1.085982000000    15.994914619570
      Gh(H)           1.893267000000     0.250849000000    -1.335533000000     1.007825032230
      Gh(H)           1.514507000000     1.731669000000    -0.789172000000     1.007825032230
      Gh(O)           0.020647000000    -1.905313000000    -0.620925000000    15.994914619570
      Gh(H)           0.710937000000    -2.493526000000    -1.007313000000     1.007825032230
      Gh(H)          -0.763325000000    -2.495709000000    -0.483083000000     1.007825032230
      Gh(O)          -1.823938000000     0.516909000000    -0.645776000000    15.994914619570
      Gh(H)          -2.499709000000    -0.060327000000    -0.255399000000     1.007825032230
      Gh(H)          -2.179640000000     1.399153000000    -0.823341000000     1.007825032230

  Charge       = 0
  Multiplicity = 1
  Basis Set: AUG-CC-PVTZ
    Blend: AUG-CC-PVTZ
  Basis Set: (AUG-CC-PVTZ AUX)
    Blend: AUG-CC-PVTZ-JKFIT + DEF2-UNIVERSAL-JKFIT

    Orbital Energies [Eh]
    ---------------------

    Doubly Occupied:

       1A    -20.560256     2A     -1.364379     3A     -0.741496
       4A     -0.581070     5A     -0.511378

  @DF-RHF Final Energy:   -76.06082281555456

   => Energetics <=

    Nuclear Repulsion Energy =              9.4466187703391302
    One-Electron Energy =                -123.4977229442461351
    Two-Electron Energy =                  37.9902813583524477
    Total Energy =                        -76.0608228155545589
 Dipole X            :         -9.8096541           10.2409833            0.4313292
 Dipole Y            :          1.3113739           -1.8074115           -0.4960377
 Dipole Z            :        -39.1654018           39.5085476            0.3431458
 Magnitude           :                                                    0.7415169
  Basis Set: (AUG-CC-PVTZ AUX)
    Blend: AUG-CC-PVTZ-RI + DEF2-QZVPP-RI
	 Reference Energy          =     -76.0608228155545589 [Eh]
	 Singles Energy            =      -0.0000000000000000 [Eh]
	 Same-Spin Energy          =      -0.0679037794929644 [Eh]
	 Opposite-Spin Energy      =      -0.2143365864407029 [Eh]
	 Correlation Energy        =      -0.2822403659336672 [Eh]
	 Total Energy              =     -76.3430631814882332 [Eh]

	 ================> DF-SCS-MP2 Energies <==================
	-----------------------------------------------------------
	 SCS Same-Spin Scale       =       0.3333333333333333 [-]
	 SCS Opposite-Spin Scale   =       1.2000000000000000 [-]
	 SCS Same-Spin Energy      =      -0.0226345931643215 [Eh]
	 SCS Opposite-Spin Energy  =      -0.2572039037288434 [Eh]
	 SCS Correlation Energy    =      -0.2798384968931649 [Eh]
	 SCS Total Energy          =     -76.3406613124477218 [Eh]
	-----------------------------------------------------------

*** Psi4 exiting successfully. Buy a developer a beer!
