                               Psi4 1.9 release

  ==> Input File <==

--------------------------------------------------------------------------
MEMORY 60 GB

molecule dimer {
1 1
Li     0.000000     0.000000     0.000000
--
0 1
O      1.625213     0.972567    -0.130984
H      2.385363     0.442167     0.052306
H      1.744821     1.783338     0.393105
O     -0.494873    -0.049516    -1.857659
H     -1.472930    -0.211893    -1.914216
H     -0.138603    -0.782973    -2.357050
O     -0.071954    -1.647819     0.654952
H      0.228828    -1.705075     1.564639
H     -0.688509    -2.401562     0.512174
O     -1.490186     0.845902     1.174509
H     -1.068979     0.975324     2.036246
H     -2.159523     0.106016     1.305168

units ang
no_reorient
no_com
symmetry c1
}

set {
basis        aug-cc-pVTZ
scf_type     df
}

energy("mp2", bsse_type="cp")
--------------------------------------------------------------------------

                               Psi4 1.9 release
    Molecular point group: c1
  Charge       = 0
  Multiplicity = 1
  Basis Set: AUG-CC-PVTZ
    Blend: AUG-CC-PVTZ
  Basis Set: (AUG-CC-PVTZ AUX)
    Blend: AUG-CC-PVTZ-JKFIT + DEF2-UNIVERSAL-JKFIT
  @DF-RHF Final Energy:  -304.20781704666700
    Total Energy =                       -304.2078170466670031
 Dipole X            :          8.6106890           -8.7379651           -0.1272761
 Dipole Y            :          0.2911340           -1.5601314           -1.2689974
 Dipole Z            :          0.5987633            0.6026639            1.2014272
 Magnitude           :                                                    1.7521361
  Basis Set: (AUG-CC-PVTZ AUX)
    Blend: AUG-CC-PVTZ-RI + DEF2-QZVPP-RI
	 Reference Energy          =    -304.2078170466670031 [Eh]
	 Singles Energy            =      -0.0000000000000000 [Eh]
	 Same-Spin Energy          =      -0.2782477850269910 [Eh]
	 Opposite-Spin Energy      =      -0.8721123550000218 [Eh]
	 Correlation Energy        =      -1.1503601400270129 [Eh]
	 Total Energy              =    -305.3581771866940358 [Eh]
	 SCS Total Energy          =    -305.3471011343426653 [Eh]
                               Psi4 1.9 release
    Molecular point group: c1
  Multiplicity = 1
  Basis Set: AUG-CC-PVTZ
    Blend: AUG-CC-PVTZ
  Basis Set: (AUG-CC-PVTZ AUX)
    Blend: AUG-CC-PVTZ-JKFIT + DEF2-UNIVERSAL-JKFIT
  @DF-RHF Final Energy:    -7.23638491208886
    Total Energy =                         -7.2363849120888615
  Basis Set: (AUG-CC-PVTZ AUX)
	 Singles Energy            =      -0.0000000000000000 [Eh]
	 Same-Spin Energy          =       0.0000000000000000 [Eh]
	 Opposite-Spin Energy      =      -0.0174020559876170 [Eh]
	 Correlation Energy        =      -0.0174020559876170 [Eh]
	 Total Energy              =      -7.2537869680764784 [Eh]
	 SCS Total Energy          =      -7.2572673792740021 [Eh]
                               Psi4 1.9 release
    Molecular point group: c1

    Geometry (in Bohr), charge = 1, multiplicity = 1:

       Center              X                  Y                   Z               Mass
    ------------   -----------------  -----------------  -----------------  -----------------
         LI           0.000000000000     0.000000000000     0.000000000000     7.016003436600
         O            3.071207465534     1.837885268658    -0.247523886817    15.994914619570
         H            4.507682779800     0.835574531715     0.098844014718     1.007825032230
         H            3.297233827947     3.370020409122     0.742860788548     1.007825032230
         O           -0.935174436884    -0.093571678828    -3.510466744492    15.994914619570
         H           -2.783434301971    -0.400419737902    -3.617343984969     1.007825032230
         H           -0.261921710167    -1.479604533628    -4.454178964010     1.007825032230
         O           -0.135973353631    -3.113926614326     1.237679905321    15.994914619570
         H            0.432422249836    -3.222124773365     2.956739195210     1.007825032230
         H           -1.301093444913    -4.538294453307     0.967868588580     1.007825032230
         O           -2.816043415991     1.598523108977     2.219500341885    15.994914619570
         H           -2.020077543866     1.843095243586     3.847947264059     1.007825032230
         H           -4.080907031627     0.200341204917     2.466410067712     1.007825032230

  Charge       = 1
  Multiplicity = 1
  Basis Set: AUG-CC-PVTZ
    Blend: AUG-CC-PVTZ
  Basis Set: (AUG-CC-PVTZ AUX)
    Blend: AUG-CC-PVTZ-JKFIT + DEF2-UNIVERSAL-JKFIT

    Orbital Energies [Eh]
    ---------------------

    Doubly Occupied:

       1A    -20.773281     2A    -20.751276     3A    -20.747904
       4A    -20.742316     5A     -2.527184     6A     -1.560650
       7A     -1.539881     8A     -1.524817     9A     -1.522979
      10A     -0.926443    11A     -0.902425    12A     -0.887051
      13A     -0.878239    14A     -0.817023    15A     -0.795217
      16A     -0.765878    17A     -0.762382    18A     -0.735519
      19A     -0.702858    20A     -0.692872    21A     -0.688551

  @DF-RHF Final Energy:  -311.61177091904131

   => Energetics <=

    Nuclear Repulsion Energy =            165.3769158357537492
    One-Electron Energy =                -751.4878790514715092
    Two-Electron Energy =                 274.4991922966764832
    Total Energy =                       -311.6117709190413052
 Dipole X            :          8.5287315           -8.7379651           -0.2092336
 Dipole Y            :          0.1571901           -1.5601314           -1.4029413
 Dipole Z            :          0.6507009            0.6026639            1.2533648
 Magnitude           :                                                    1.8928673
  Basis Set: (AUG-CC-PVTZ AUX)
    Blend: AUG-CC-PVTZ-RI + DEF2-QZVPP-RI
	 Reference Energy          =    -311.6117709190413052 [Eh]
	 Singles Energy            =      -0.0000000000000000 [Eh]
	 Same-Spin Energy          =      -0.2766932008289598 [Eh]
	 Opposite-Spin Energy      =      -0.8817184026897277 [Eh]
	 Correlation Energy        =      -1.1584116035186875 [Eh]
	 Total Energy              =    -312.7701825225599919 [Eh]

	 ================> DF-SCS-MP2 Energies <==================
	-----------------------------------------------------------
	 SCS Same-Spin Scale       =       0.3333333333333333 [-]
	 SCS Opposite-Spin Scale   =       1.2000000000000000 [-]
	 SCS Same-Spin Energy      =      -0.0922310669429866 [Eh]
	 SCS Opposite-Spin Energy  =      -1.0580620832276733 [Eh]
	 SCS Correlation Energy    =      -1.1502931501706599 [Eh]
	 SCS Total Energy          =    -312.7620640692119878 [Eh]
	-----------------------------------------------------------

*** Psi4 exiting successfully. Buy a developer a beer!
