                               Psi4 1.8.2 release

  ==> Input File <==

--------------------------------------------------------------------------
MEMORY 60 GB

molecule dimer {
0 1
Gh(Li)     0.000000     0.000000     0.000000
Gh(O)     -0.726839    -0.118102     1.911175
Gh(H)     -0.115967    -0.212325     2.688357
Gh(H)     -1.622471    -0.399297     2.175709
O          0.992835     1.593091     0.218464
H          0.702150     2.401769     0.685617
H          1.134015     1.873018    -0.713415
Gh(O)      0.978893    -1.627265    -0.419354
Gh(H)      0.322428    -2.297315    -0.615808
Gh(H)      1.423814    -1.960308     0.436537
Gh(O)     -1.645151    -0.250685    -1.119639
Gh(H)     -1.834142     0.556153    -1.664355
Gh(H)     -2.442203    -0.433569    -0.617930

units ang
no_reorient
no_com
symmetry c1
}

set {
basis        aug-cc-pVTZ
scf_type     df
}

energy("mp2")
--------------------------------------------------------------------------

    Molecular point group: c1

    Geometry (in Angstrom), charge = 0, multiplicity = 1:

       Center              X                  Y                   Z               Mass
    ------------   -----------------  -----------------  -----------------  -----------------
      Gh(LI)          0.000000000000     0.000000000000     0.000000000000     7.016003436600
      Gh(O)          -0.726839000000    -0.118102000000     1.911175000000    15.994914619570
      Gh(H)          -0.115967000000    -0.212325000000     2.688357000000     1.007825032230
      Gh(H)          -1.622471000000    -0.399297000000     2.175709000000     1.007825032230
         O            0.992835000000     1.593091000000     0.218464000000    15.994914619570
         H            0.702150000000     2.401769000000     0.685617000000     1.007825032230
         H            1.134015000000     1.873018000000    -0.713415000000     1.007825032230
      Gh(O)           0.978893000000    -1.627265000000    -0.419354000000    15.994914619570
      Gh(H)           0.322428000000    -2.297315000000    -0.615808000000     1.007825032230
      Gh(H)           1.423814000000    -1.960308000000     0.436537000000     1.007825032230
      Gh(O)          -1.645151000000    -0.250685000000    -1.119639000000    15.994914619570
      Gh(H)          -1.834142000000     0.556153000000    -1.664355000000     1.007825032230
      Gh(H)          -2.442203000000    -0.433569000000    -0.617930000000     1.007825032230

  Charge       = 0
  Multiplicity = 1
  Basis Set: AUG-CC-PVTZ
    Blend: AUG-CC-PVTZ
  Basis Set: (AUG-CC-PVTZ AUX)
    Blend: AUG-CC-PVTZ-JKFIT + DEF2-UNIVERSAL-JKFIT

    Orbital Energies [Eh]
    ---------------------

    Doubly Occupied:

       1A    -20.570776     2A     -1.341311     3A     -0.706078
       4A     -0.579262     5A     -0.508266

  @DF-RHF Final Energy:   -76.05819343790795

   => Energetics <=

    Nuclear Repulsion Energy =              8.9738517671182620
    One-Electron Energy =                -122.6527026151448752
    Two-Electron Energy =                  37.6206574101186604
    Total Energy =                        -76.0581934379079598
 Dipole X            :        -18.5775666           18.4793389           -0.0982277
 Dipole Y            :        -31.4473354           32.1622221            0.7148868
 Dipole Z            :         -3.5543514            3.2501664           -0.3041849
 Magnitude           :                                                    0.7830966
  Basis Set: (AUG-CC-PVTZ AUX)
    Blend: AUG-CC-PVTZ-RI + DEF2-QZVPP-RI
	 Reference Energy          =     -76.0581934379079456 [Eh]
	 Singles Energy            =      -0.0000000000000000 [Eh]
	 Same-Spin Energy          =      -0.0688321881185095 [Eh]
	 Opposite-Spin Energy      =      -0.2172746127371713 [Eh]
	 Correlation Energy        =      -0.2861068008556808 [Eh]
	 Total Energy              =     -76.3443002387636227 [Eh]

	 ================> DF-SCS-MP2 Energies <==================
	-----------------------------------------------------------
	 SCS Same-Spin Scale       =       0.3333333333333333 [-]
	 SCS Opposite-Spin Scale   =       1.2000000000000000 [-]
	 SCS Same-Spin Energy      =      -0.0229440627061698 [Eh]
	 SCS Opposite-Spin Energy  =      -0.2607295352846056 [Eh]
	 SCS Correlation Energy    =      -0.2836735979907754 [Eh]
	 SCS Total Energy          =     -76.3418670358987157 [Eh]
	-----------------------------------------------------------

*** Psi4 exiting successfully. Buy a developer a beer!
