                               Psi4 1.8.2 release

  ==> Input File <==

--------------------------------------------------------------------------
MEMORY 60 GB

molecule dimer {
1 1
Li         0.000000     0.000000     0.000000
O          0.430496    -1.782940     0.114535
H         -0.122461    -2.196776     0.778018
H          0.095863    -2.257410    -0.608199
O         -0.871002     0.606188     1.579229
H         -1.261790     1.443134     1.764322
H         -0.325521     0.477508     2.360804
O         -1.263445     0.240469    -1.487618
H         -1.400715    -0.414623    -2.199240
H         -1.655584     1.079449    -1.825628
O          1.839475     0.772754    -0.481884
H          2.223970     0.990559     0.396906
H          1.766020     1.624400    -0.919013

units ang
no_reorient
no_com
symmetry c1
}

set {
basis        aug-cc-pVTZ
scf_type     df
}

energy("mp2")
--------------------------------------------------------------------------

    Molecular point group: c1

    Geometry (in Angstrom), charge = 1, multiplicity = 1:

       Center              X                  Y                   Z               Mass
    ------------   -----------------  -----------------  -----------------  -----------------
         LI           0.000000000000     0.000000000000     0.000000000000     7.016003436600
         O            0.430496000000    -1.782940000000     0.114535000000    15.994914619570
         H           -0.122461000000    -2.196776000000     0.778018000000     1.007825032230
         H            0.095863000000    -2.257410000000    -0.608199000000     1.007825032230
         O           -0.871002000000     0.606188000000     1.579229000000    15.994914619570
         H           -1.261790000000     1.443134000000     1.764322000000     1.007825032230
         H           -0.325521000000     0.477508000000     2.360804000000     1.007825032230
         O           -1.263445000000     0.240469000000    -1.487618000000    15.994914619570
         H           -1.400715000000    -0.414623000000    -2.199240000000     1.007825032230
         H           -1.655584000000     1.079449000000    -1.825628000000     1.007825032230
         O            1.839475000000     0.772754000000    -0.481884000000    15.994914619570
         H            2.223970000000     0.990559000000     0.396906000000     1.007825032230
         H            1.766020000000     1.624400000000    -0.919013000000     1.007825032230

  Charge       = 1
  Multiplicity = 1
  Basis Set: AUG-CC-PVTZ
    Blend: AUG-CC-PVTZ
  Basis Set: (AUG-CC-PVTZ AUX)
    Blend: AUG-CC-PVTZ-JKFIT + DEF2-UNIVERSAL-JKFIT

    Orbital Energies [Eh]
    ---------------------

    Doubly Occupied:

       1A    -20.760233     2A    -20.753669     3A    -20.749363
       4A    -20.741546     5A     -2.530171     6A     -1.558905
       7A     -1.557069     8A     -1.529455     9A     -1.522576
      10A     -0.911815    11A     -0.897762    12A     -0.890142
      13A     -0.881783    14A     -0.811864    15A     -0.807496
      16A     -0.784842    17A     -0.761061    18A     -0.718157
      19A     -0.710472    20A     -0.699315    21A     -0.687694

  @DF-RHF Final Energy:  -311.62002696883047

   => Energetics <=

    Nuclear Repulsion Energy =            163.8574100644963778
    One-Electron Energy =                -748.4240903731188155
    Two-Electron Energy =                 272.9466533397919079
    Total Energy =                       -311.6200269688304729
 Dipole X            :         -1.4498171            0.7634002           -0.6864169
 Dipole Y            :          1.7653959           -1.0620091            0.7033868
 Dipole Z            :          4.7986015           -4.6448221            0.1537794
 Magnitude           :                                                    0.9947709
  Basis Set: (AUG-CC-PVTZ AUX)
    Blend: AUG-CC-PVTZ-RI + DEF2-QZVPP-RI
	 Reference Energy          =    -311.6200269688304729 [Eh]
	 Singles Energy            =      -0.0000000000000000 [Eh]
	 Same-Spin Energy          =      -0.2757917028129291 [Eh]
	 Opposite-Spin Energy      =      -0.8794626230370797 [Eh]
	 Correlation Energy        =      -1.1552543258500088 [Eh]
	 Total Energy              =    -312.7752812946804966 [Eh]

	 ================> DF-SCS-MP2 Energies <==================
	-----------------------------------------------------------
	 SCS Same-Spin Scale       =       0.3333333333333333 [-]
	 SCS Opposite-Spin Scale   =       1.2000000000000000 [-]
	 SCS Same-Spin Energy      =      -0.0919305676043097 [Eh]
	 SCS Opposite-Spin Energy  =      -1.0553551476444956 [Eh]
	 SCS Correlation Energy    =      -1.1472857152488052 [Eh]
	 SCS Total Energy          =    -312.7673126840792861 [Eh]
	-----------------------------------------------------------

*** Psi4 exiting successfully. Buy a developer a beer!
