                               Psi4 1.8.2 release

  ==> Input File <==

--------------------------------------------------------------------------
MEMORY 60 GB

molecule dimer {
0 1
Gh(Li)     0.000000     0.000000     0.000000
Gh(O)     -0.101817    -1.813061    -0.036423
Gh(H)     -0.471130    -2.250333    -0.763005
Gh(H)      0.017925    -2.436449     0.694730
O         -1.581748     0.573901     1.043698
H         -1.213933     0.624233     1.880971
H         -1.854365     1.500408     0.850485
Gh(O)      0.827787     0.387737    -1.742301
Gh(H)      1.255888    -0.363424    -2.191003
Gh(H)      1.514001     1.055898    -1.641117

units ang
no_reorient
no_com
symmetry c1
}

set {
basis        aug-cc-pVTZ
scf_type     df
}

energy("mp2")
--------------------------------------------------------------------------

    Molecular point group: c1

    Geometry (in Angstrom), charge = 0, multiplicity = 1:

       Center              X                  Y                   Z               Mass
    ------------   -----------------  -----------------  -----------------  -----------------
      Gh(LI)          0.000000000000     0.000000000000     0.000000000000     7.016003436600
      Gh(O)          -0.101817000000    -1.813061000000    -0.036423000000    15.994914619570
      Gh(H)          -0.471130000000    -2.250333000000    -0.763005000000     1.007825032230
      Gh(H)           0.017925000000    -2.436449000000     0.694730000000     1.007825032230
         O           -1.581748000000     0.573901000000     1.043698000000    15.994914619570
         H           -1.213933000000     0.624233000000     1.880971000000     1.007825032230
         H           -1.854365000000     1.500408000000     0.850485000000     1.007825032230
      Gh(O)           0.827787000000     0.387737000000    -1.742301000000    15.994914619570
      Gh(H)           1.255888000000    -0.363424000000    -2.191003000000     1.007825032230
      Gh(H)           1.514001000000     1.055898000000    -1.641117000000     1.007825032230

  Charge       = 0
  Multiplicity = 1
  Basis Set: AUG-CC-PVTZ
    Blend: AUG-CC-PVTZ
  Basis Set: (AUG-CC-PVTZ AUX)
    Blend: AUG-CC-PVTZ-JKFIT + DEF2-UNIVERSAL-JKFIT

    Orbital Energies [Eh]
    ---------------------

    Doubly Occupied:

       1A    -20.565802     2A     -1.358752     3A     -0.720504
       4A     -0.587118     5A     -0.511207

  @DF-RHF Final Energy:   -76.05848815207051

   => Energetics <=

    Nuclear Repulsion Energy =              9.2740392067004009
    One-Electron Energy =                -123.1782834960309145
    Two-Electron Energy =                  37.8457561372599969
    Total Energy =                        -76.0584881520705096
 Dipole X            :         29.7792659          -29.7108070            0.0684588
 Dipole Y            :        -12.0468676           12.6911153            0.6442477
 Dipole Z            :        -20.5020175           20.9401308            0.4381133
 Magnitude           :                                                    0.7821029
  Basis Set: (AUG-CC-PVTZ AUX)
    Blend: AUG-CC-PVTZ-RI + DEF2-QZVPP-RI
	 Reference Energy          =     -76.0584881520705096 [Eh]
	 Singles Energy            =      -0.0000000000000000 [Eh]
	 Same-Spin Energy          =      -0.0682936504106658 [Eh]
	 Opposite-Spin Energy      =      -0.2155642647600900 [Eh]
	 Correlation Energy        =      -0.2838579151707558 [Eh]
	 Total Energy              =     -76.3423460672412659 [Eh]

	 ================> DF-SCS-MP2 Energies <==================
	-----------------------------------------------------------
	 SCS Same-Spin Scale       =       0.3333333333333333 [-]
	 SCS Opposite-Spin Scale   =       1.2000000000000000 [-]
	 SCS Same-Spin Energy      =      -0.0227645501368886 [Eh]
	 SCS Opposite-Spin Energy  =      -0.2586771177121079 [Eh]
	 SCS Correlation Energy    =      -0.2814416678489965 [Eh]
	 SCS Total Energy          =     -76.3399298199195044 [Eh]
	-----------------------------------------------------------

*** Psi4 exiting successfully. Buy a developer a beer!
