                               Psi4 1.8.2 release

  ==> Input File <==

--------------------------------------------------------------------------
MEMORY 60 GB

molecule dimer {
1 1
Li         0.000000     0.000000     0.000000
O         -0.398786    -1.589021    -1.083653
H          0.104594    -1.896182    -1.796161
H         -0.340299    -2.316178    -0.427544
O          1.473191    -0.539863     0.795211
H          2.355782    -0.467384     0.412253
H          1.505819    -1.406148     1.233169
O          0.501553     1.463017    -1.262223
H         -0.051961     1.314977    -2.033203
H          1.407051     1.606647    -1.681690
O         -1.690669     0.465935     0.912623
H         -1.690927     0.654825     1.943650
H         -2.533637     0.109345     0.695255

units ang
no_reorient
no_com
symmetry c1
}

set {
basis        aug-cc-pVTZ
scf_type     df
}

energy("mp2")
--------------------------------------------------------------------------

    Molecular point group: c1

    Geometry (in Angstrom), charge = 1, multiplicity = 1:

       Center              X                  Y                   Z               Mass
    ------------   -----------------  -----------------  -----------------  -----------------
         LI           0.000000000000     0.000000000000     0.000000000000     7.016003436600
         O           -0.398786000000    -1.589021000000    -1.083653000000    15.994914619570
         H            0.104594000000    -1.896182000000    -1.796161000000     1.007825032230
         H           -0.340299000000    -2.316178000000    -0.427544000000     1.007825032230
         O            1.473191000000    -0.539863000000     0.795211000000    15.994914619570
         H            2.355782000000    -0.467384000000     0.412253000000     1.007825032230
         H            1.505819000000    -1.406148000000     1.233169000000     1.007825032230
         O            0.501553000000     1.463017000000    -1.262223000000    15.994914619570
         H           -0.051961000000     1.314977000000    -2.033203000000     1.007825032230
         H            1.407051000000     1.606647000000    -1.681690000000     1.007825032230
         O           -1.690669000000     0.465935000000     0.912623000000    15.994914619570
         H           -1.690927000000     0.654825000000     1.943650000000     1.007825032230
         H           -2.533637000000     0.109345000000     0.695255000000     1.007825032230

  Charge       = 1
  Multiplicity = 1
  Basis Set: AUG-CC-PVTZ
    Blend: AUG-CC-PVTZ
  Basis Set: (AUG-CC-PVTZ AUX)
    Blend: AUG-CC-PVTZ-JKFIT + DEF2-UNIVERSAL-JKFIT

    Orbital Energies [Eh]
    ---------------------

    Doubly Occupied:

       1A    -20.763437     2A    -20.750865     3A    -20.743943
       4A    -20.743322     5A     -2.524569     6A     -1.555354
       7A     -1.547019     8A     -1.519029     9A     -1.513032
      10A     -0.913632    11A     -0.904427    12A     -0.878312
      13A     -0.872341    14A     -0.814581    15A     -0.791131
      16A     -0.774663    17A     -0.761477    18A     -0.733455
      19A     -0.693184    20A     -0.688046    21A     -0.685935

  @DF-RHF Final Energy:  -311.61030415797126

   => Energetics <=

    Nuclear Repulsion Energy =            164.6048281366151969
    One-Electron Energy =                -750.0867460156604238
    Two-Electron Energy =                 273.8716137210739703
    Total Energy =                       -311.6103041579712567
 Dipole X            :          0.9874300           -0.3047486            0.6826814
 Dipole Y            :          6.1830876           -7.5580617           -1.3749740
 Dipole Z            :         12.4539531          -12.7719162           -0.3179631
 Magnitude           :                                                    1.5677079
  Basis Set: (AUG-CC-PVTZ AUX)
    Blend: AUG-CC-PVTZ-RI + DEF2-QZVPP-RI
	 Reference Energy          =    -311.6103041579712567 [Eh]
	 Singles Energy            =      -0.0000000000000000 [Eh]
	 Same-Spin Energy          =      -0.2765337519885269 [Eh]
	 Opposite-Spin Energy      =      -0.8815645034444684 [Eh]
	 Correlation Energy        =      -1.1580982554329953 [Eh]
	 Total Energy              =    -312.7684024134042602 [Eh]

	 ================> DF-SCS-MP2 Energies <==================
	-----------------------------------------------------------
	 SCS Same-Spin Scale       =       0.3333333333333333 [-]
	 SCS Opposite-Spin Scale   =       1.2000000000000000 [-]
	 SCS Same-Spin Energy      =      -0.0921779173295089 [Eh]
	 SCS Opposite-Spin Energy  =      -1.0578774041333621 [Eh]
	 SCS Correlation Energy    =      -1.1500553214628710 [Eh]
	 SCS Total Energy          =    -312.7603594794341006 [Eh]
	-----------------------------------------------------------

*** Psi4 exiting successfully. Buy a developer a beer!
