                               Psi4 1.8.2 release

  ==> Input File <==

--------------------------------------------------------------------------
MEMORY 60 GB

molecule dimer {
0 1
Gh(Li)     0.000000     0.000000     0.000000
Gh(O)      0.929126    -1.519541     0.562943
Gh(H)      0.754313    -1.902667     1.397259
Gh(H)      1.807708    -1.139414     0.634185
Gh(O)     -0.504010     0.489688    -1.758484
Gh(H)     -0.791966    -0.159959    -2.448101
Gh(H)     -0.336521     1.310441    -2.247888
Gh(O)      0.902574     1.789651     0.523627
Gh(H)      1.832881     2.030759     0.319652
Gh(H)      0.670851     2.026998     1.405913
O         -1.475233     0.100022     1.458728
H         -1.332384     0.611866     2.288554
H         -2.406648     0.065706     1.327701

units ang
no_reorient
no_com
symmetry c1
}

set {
basis        aug-cc-pVTZ
scf_type     df
}

energy("mp2")
--------------------------------------------------------------------------

    Molecular point group: c1

    Geometry (in Angstrom), charge = 0, multiplicity = 1:

       Center              X                  Y                   Z               Mass
    ------------   -----------------  -----------------  -----------------  -----------------
      Gh(LI)          0.000000000000     0.000000000000     0.000000000000     7.016003436600
      Gh(O)           0.929126000000    -1.519541000000     0.562943000000    15.994914619570
      Gh(H)           0.754313000000    -1.902667000000     1.397259000000     1.007825032230
      Gh(H)           1.807708000000    -1.139414000000     0.634185000000     1.007825032230
      Gh(O)          -0.504010000000     0.489688000000    -1.758484000000    15.994914619570
      Gh(H)          -0.791966000000    -0.159959000000    -2.448101000000     1.007825032230
      Gh(H)          -0.336521000000     1.310441000000    -2.247888000000     1.007825032230
      Gh(O)           0.902574000000     1.789651000000     0.523627000000    15.994914619570
      Gh(H)           1.832881000000     2.030759000000     0.319652000000     1.007825032230
      Gh(H)           0.670851000000     2.026998000000     1.405913000000     1.007825032230
         O           -1.475233000000     0.100022000000     1.458728000000    15.994914619570
         H           -1.332384000000     0.611866000000     2.288554000000     1.007825032230
         H           -2.406648000000     0.065706000000     1.327701000000     1.007825032230

  Charge       = 0
  Multiplicity = 1
  Basis Set: AUG-CC-PVTZ
    Blend: AUG-CC-PVTZ
  Basis Set: (AUG-CC-PVTZ AUX)
    Blend: AUG-CC-PVTZ-JKFIT + DEF2-UNIVERSAL-JKFIT

    Orbital Energies [Eh]
    ---------------------

    Doubly Occupied:

       1A    -20.567146     2A     -1.349594     3A     -0.717820
       4A     -0.580156     5A     -0.509329

  @DF-RHF Final Energy:   -76.05934627416794

   => Energetics <=

    Nuclear Repulsion Energy =              9.1373393924770951
    One-Electron Energy =                -122.9452789616543953
    Two-Electron Energy =                  37.7485932950093712
    Total Energy =                        -76.0593462741679360
 Dipole X            :         28.8377633          -29.3680372           -0.5302739
 Dipole Y            :         -2.4771487            2.7925390            0.3153904
 Dipole Z            :        -28.4256204           28.8865028            0.4608825
 Magnitude           :                                                    0.7701130
  Basis Set: (AUG-CC-PVTZ AUX)
    Blend: AUG-CC-PVTZ-RI + DEF2-QZVPP-RI
	 Reference Energy          =     -76.0593462741679360 [Eh]
	 Singles Energy            =      -0.0000000000000000 [Eh]
	 Same-Spin Energy          =      -0.0684913791800721 [Eh]
	 Opposite-Spin Energy      =      -0.2161622175195238 [Eh]
	 Correlation Energy        =      -0.2846535966995959 [Eh]
	 Total Energy              =     -76.3439998708675347 [Eh]

	 ================> DF-SCS-MP2 Energies <==================
	-----------------------------------------------------------
	 SCS Same-Spin Scale       =       0.3333333333333333 [-]
	 SCS Opposite-Spin Scale   =       1.2000000000000000 [-]
	 SCS Same-Spin Energy      =      -0.0228304597266907 [Eh]
	 SCS Opposite-Spin Energy  =      -0.2593946610234286 [Eh]
	 SCS Correlation Energy    =      -0.2822251207501192 [Eh]
	 SCS Total Energy          =     -76.3415713949180486 [Eh]
	-----------------------------------------------------------

*** Psi4 exiting successfully. Buy a developer a beer!
