                               Psi4 1.8.2 release

  ==> Input File <==

--------------------------------------------------------------------------
MEMORY 60 GB

molecule dimer {
1 1
Li         0.000000     0.000000     0.000000
O         -1.511539    -0.373056     1.444335
H         -2.171177    -0.773198     0.881789
H         -1.822922     0.301399     2.156054
O          1.489676     0.881894     1.248380
H          2.269207     0.733811     0.702855
H          1.792827     0.767859     2.219903
O         -1.062894     1.282392    -0.795663
H         -1.976557     1.447197    -0.506702
H         -1.068516     1.674872    -1.716630
O          0.712000    -1.014444    -1.465121
H          0.958402    -1.983537    -1.419085
H          0.828894    -0.834982    -2.421806

units ang
no_reorient
no_com
symmetry c1
}

set {
basis        aug-cc-pVTZ
scf_type     df
}

energy("mp2")
--------------------------------------------------------------------------

    Molecular point group: c1

    Geometry (in Angstrom), charge = 1, multiplicity = 1:

       Center              X                  Y                   Z               Mass
    ------------   -----------------  -----------------  -----------------  -----------------
         LI           0.000000000000     0.000000000000     0.000000000000     7.016003436600
         O           -1.511539000000    -0.373056000000     1.444335000000    15.994914619570
         H           -2.171177000000    -0.773198000000     0.881789000000     1.007825032230
         H           -1.822922000000     0.301399000000     2.156054000000     1.007825032230
         O            1.489676000000     0.881894000000     1.248380000000    15.994914619570
         H            2.269207000000     0.733811000000     0.702855000000     1.007825032230
         H            1.792827000000     0.767859000000     2.219903000000     1.007825032230
         O           -1.062894000000     1.282392000000    -0.795663000000    15.994914619570
         H           -1.976557000000     1.447197000000    -0.506702000000     1.007825032230
         H           -1.068516000000     1.674872000000    -1.716630000000     1.007825032230
         O            0.712000000000    -1.014444000000    -1.465121000000    15.994914619570
         H            0.958402000000    -1.983537000000    -1.419085000000     1.007825032230
         H            0.828894000000    -0.834982000000    -2.421806000000     1.007825032230

  Charge       = 1
  Multiplicity = 1
  Basis Set: AUG-CC-PVTZ
    Blend: AUG-CC-PVTZ
  Basis Set: (AUG-CC-PVTZ AUX)
    Blend: AUG-CC-PVTZ-JKFIT + DEF2-UNIVERSAL-JKFIT

    Orbital Energies [Eh]
    ---------------------

    Doubly Occupied:

       1A    -20.761762     2A    -20.752018     3A    -20.735125
       4A    -20.731580     5A     -2.538006     6A     -1.533812
       7A     -1.528566     8A     -1.503261     9A     -1.498563
      10A     -0.893909    11A     -0.886824    12A     -0.880301
      13A     -0.863382    14A     -0.806648    15A     -0.791795
      16A     -0.750089    17A     -0.734216    18A     -0.707888
      19A     -0.695000    20A     -0.677366    21A     -0.672108

  @DF-RHF Final Energy:  -311.60366310966111

   => Energetics <=

    Nuclear Repulsion Energy =            159.5334225129769834
    One-Electron Energy =                -740.3897250357249504
    Two-Electron Energy =                 269.2526394130867970
    Total Energy =                       -311.6036631096611131
 Dipole X            :          7.5147621           -7.8837446           -0.3689826
 Dipole Y            :        -14.2985695           14.2631029           -0.0354666
 Dipole Z            :         -6.9924988            6.3340332           -0.6584657
 Magnitude           :                                                    0.7556342
  Basis Set: (AUG-CC-PVTZ AUX)
    Blend: AUG-CC-PVTZ-RI + DEF2-QZVPP-RI
	 Reference Energy          =    -311.6036631096611131 [Eh]
	 Singles Energy            =      -0.0000000000000000 [Eh]
	 Same-Spin Energy          =      -0.2774740580723416 [Eh]
	 Opposite-Spin Energy      =      -0.8836310977183562 [Eh]
	 Correlation Energy        =      -1.1611051557906977 [Eh]
	 Total Energy              =    -312.7647682654518348 [Eh]

	 ================> DF-SCS-MP2 Energies <==================
	-----------------------------------------------------------
	 SCS Same-Spin Scale       =       0.3333333333333333 [-]
	 SCS Opposite-Spin Scale   =       1.2000000000000000 [-]
	 SCS Same-Spin Energy      =      -0.0924913526907805 [Eh]
	 SCS Opposite-Spin Energy  =      -1.0603573172620275 [Eh]
	 SCS Correlation Energy    =      -1.1528486699528080 [Eh]
	 SCS Total Energy          =    -312.7565117796139020 [Eh]
	-----------------------------------------------------------

*** Psi4 exiting successfully. Buy a developer a beer!
