                               Psi4 1.8.2 release

  ==> Input File <==

--------------------------------------------------------------------------
MEMORY 60 GB

molecule dimer {
1 1
Li         0.000000     0.000000     0.000000
O          0.284917     1.873038     0.598396
H         -0.265799     2.437262     1.203763
H          0.312342     2.308963    -0.239182
O          1.375746    -1.157772    -0.584152
H          2.185946    -1.587349    -0.474694
H          0.789827    -1.882919    -1.039732
O         -0.959321     0.359899    -1.687719
H         -1.273101     1.273988    -1.980653
H         -0.367583     0.108484    -2.390242
O         -0.285954    -0.870627     1.731899
H          0.387606    -1.563219     1.998960
H         -1.094979    -1.130535     2.143406

units ang
no_reorient
no_com
symmetry c1
}

set {
basis        aug-cc-pVTZ
scf_type     df
}

energy("mp2")
--------------------------------------------------------------------------

    Molecular point group: c1

    Geometry (in Angstrom), charge = 1, multiplicity = 1:

       Center              X                  Y                   Z               Mass
    ------------   -----------------  -----------------  -----------------  -----------------
         LI           0.000000000000     0.000000000000     0.000000000000     7.016003436600
         O            0.284917000000     1.873038000000     0.598396000000    15.994914619570
         H           -0.265799000000     2.437262000000     1.203763000000     1.007825032230
         H            0.312342000000     2.308963000000    -0.239182000000     1.007825032230
         O            1.375746000000    -1.157772000000    -0.584152000000    15.994914619570
         H            2.185946000000    -1.587349000000    -0.474694000000     1.007825032230
         H            0.789827000000    -1.882919000000    -1.039732000000     1.007825032230
         O           -0.959321000000     0.359899000000    -1.687719000000    15.994914619570
         H           -1.273101000000     1.273988000000    -1.980653000000     1.007825032230
         H           -0.367583000000     0.108484000000    -2.390242000000     1.007825032230
         O           -0.285954000000    -0.870627000000     1.731899000000    15.994914619570
         H            0.387606000000    -1.563219000000     1.998960000000     1.007825032230
         H           -1.094979000000    -1.130535000000     2.143406000000     1.007825032230

  Charge       = 1
  Multiplicity = 1
  Basis Set: AUG-CC-PVTZ
    Blend: AUG-CC-PVTZ
  Basis Set: (AUG-CC-PVTZ AUX)
    Blend: AUG-CC-PVTZ-JKFIT + DEF2-UNIVERSAL-JKFIT

    Orbital Energies [Eh]
    ---------------------

    Doubly Occupied:

       1A    -20.761780     2A    -20.761305     3A    -20.740597
       4A    -20.738451     5A     -2.536964     6A     -1.545137
       7A     -1.539466     8A     -1.523615     9A     -1.521470
      10A     -0.909306    11A     -0.893407    12A     -0.887825
      13A     -0.886631    14A     -0.798199    15A     -0.791944
      16A     -0.779629    17A     -0.758861    18A     -0.718214
      19A     -0.708851    20A     -0.685192    21A     -0.682707

  @DF-RHF Final Energy:  -311.60846523118687

   => Energetics <=

    Nuclear Repulsion Energy =            163.5306671227080813
    One-Electron Energy =                -747.9391542202762366
    Two-Electron Energy =                 272.8000218663812575
    Total Energy =                       -311.6084652311868695
 Dipole X            :         -7.5611561            7.5539213           -0.0072348
 Dipole Y            :         -3.3263713            3.0254118           -0.3009595
 Dipole Z            :          0.0259972           -0.5876708           -0.5616736
 Magnitude           :                                                    0.6372646
  Basis Set: (AUG-CC-PVTZ AUX)
    Blend: AUG-CC-PVTZ-RI + DEF2-QZVPP-RI
	 Reference Energy          =    -311.6084652311868695 [Eh]
	 Singles Energy            =      -0.0000000000000000 [Eh]
	 Same-Spin Energy          =      -0.2767928910496184 [Eh]
	 Opposite-Spin Energy      =      -0.8819393955708135 [Eh]
	 Correlation Energy        =      -1.1587322866204319 [Eh]
	 Total Energy              =    -312.7671975178072898 [Eh]

	 ================> DF-SCS-MP2 Energies <==================
	-----------------------------------------------------------
	 SCS Same-Spin Scale       =       0.3333333333333333 [-]
	 SCS Opposite-Spin Scale   =       1.2000000000000000 [-]
	 SCS Same-Spin Energy      =      -0.0922642970165394 [Eh]
	 SCS Opposite-Spin Energy  =      -1.0583272746849761 [Eh]
	 SCS Correlation Energy    =      -1.1505915717015156 [Eh]
	 SCS Total Energy          =    -312.7590568028883808 [Eh]
	-----------------------------------------------------------

*** Psi4 exiting successfully. Buy a developer a beer!
