                               Psi4 1.8.2 release

  ==> Input File <==

--------------------------------------------------------------------------
MEMORY 60 GB

molecule dimer {
0 1
Gh(Li)     0.000000     0.000000     0.000000
Gh(O)     -1.511539    -0.373056     1.444335
Gh(H)     -2.171177    -0.773198     0.881789
Gh(H)     -1.822922     0.301399     2.156054
O          1.489676     0.881894     1.248380
H          2.269207     0.733811     0.702855
H          1.792827     0.767859     2.219903
Gh(O)     -1.062894     1.282392    -0.795663
Gh(H)     -1.976557     1.447197    -0.506702
Gh(H)     -1.068516     1.674872    -1.716630
Gh(O)      0.712000    -1.014444    -1.465121
Gh(H)      0.958402    -1.983537    -1.419085
Gh(H)      0.828894    -0.834982    -2.421806

units ang
no_reorient
no_com
symmetry c1
}

set {
basis        aug-cc-pVTZ
scf_type     df
}

energy("mp2")
--------------------------------------------------------------------------

    Molecular point group: c1

    Geometry (in Angstrom), charge = 0, multiplicity = 1:

       Center              X                  Y                   Z               Mass
    ------------   -----------------  -----------------  -----------------  -----------------
      Gh(LI)          0.000000000000     0.000000000000     0.000000000000     7.016003436600
      Gh(O)          -1.511539000000    -0.373056000000     1.444335000000    15.994914619570
      Gh(H)          -2.171177000000    -0.773198000000     0.881789000000     1.007825032230
      Gh(H)          -1.822922000000     0.301399000000     2.156054000000     1.007825032230
         O            1.489676000000     0.881894000000     1.248380000000    15.994914619570
         H            2.269207000000     0.733811000000     0.702855000000     1.007825032230
         H            1.792827000000     0.767859000000     2.219903000000     1.007825032230
      Gh(O)          -1.062894000000     1.282392000000    -0.795663000000    15.994914619570
      Gh(H)          -1.976557000000     1.447197000000    -0.506702000000     1.007825032230
      Gh(H)          -1.068516000000     1.674872000000    -1.716630000000     1.007825032230
      Gh(O)           0.712000000000    -1.014444000000    -1.465121000000    15.994914619570
      Gh(H)           0.958402000000    -1.983537000000    -1.419085000000     1.007825032230
      Gh(H)           0.828894000000    -0.834982000000    -2.421806000000     1.007825032230

  Charge       = 0
  Multiplicity = 1
  Basis Set: AUG-CC-PVTZ
    Blend: AUG-CC-PVTZ
  Basis Set: (AUG-CC-PVTZ AUX)
    Blend: AUG-CC-PVTZ-JKFIT + DEF2-UNIVERSAL-JKFIT

    Orbital Energies [Eh]
    ---------------------

    Doubly Occupied:

       1A    -20.572189     2A     -1.335185     3A     -0.701843
       4A     -0.574132     5A     -0.506968

  @DF-RHF Final Energy:   -76.05440776349975

   => Energetics <=

    Nuclear Repulsion Energy =              8.8630386631609728
    One-Electron Energy =                -122.4542549878701863
    Two-Electron Energy =                  37.5368085612094546
    Total Energy =                        -76.0544077634997535
 Dipole X            :        -29.4858915           30.1967690            0.7108775
 Dipole Y            :        -16.3415174           16.1700501           -0.1714673
 Dipole Z            :        -24.1269092           24.3959826            0.2690734
 Magnitude           :                                                    0.7791972
  Basis Set: (AUG-CC-PVTZ AUX)
    Blend: AUG-CC-PVTZ-RI + DEF2-QZVPP-RI
	 Reference Energy          =     -76.0544077634997535 [Eh]
	 Singles Energy            =      -0.0000000000000000 [Eh]
	 Same-Spin Energy          =      -0.0689995800042434 [Eh]
	 Opposite-Spin Energy      =      -0.2177539968457232 [Eh]
	 Correlation Energy        =      -0.2867535768499666 [Eh]
	 Total Energy              =     -76.3411613403497142 [Eh]

	 ================> DF-SCS-MP2 Energies <==================
	-----------------------------------------------------------
	 SCS Same-Spin Scale       =       0.3333333333333333 [-]
	 SCS Opposite-Spin Scale   =       1.2000000000000000 [-]
	 SCS Same-Spin Energy      =      -0.0229998600014145 [Eh]
	 SCS Opposite-Spin Energy  =      -0.2613047962148678 [Eh]
	 SCS Correlation Energy    =      -0.2843046562162823 [Eh]
	 SCS Total Energy          =     -76.3387124197160318 [Eh]
	-----------------------------------------------------------

*** Psi4 exiting successfully. Buy a developer a beer!
