                               Psi4 1.8.2 release

  ==> Input File <==

--------------------------------------------------------------------------
MEMORY 60 GB

molecule dimer {
0 1
Gh(Li)     0.000000     0.000000     0.000000
Gh(O)     -1.715018     0.035203     0.485956
Gh(H)     -1.936750    -0.119626     1.364263
Gh(H)     -2.298787     0.693310     0.156393
Gh(O)      1.091749    -0.253037     1.609196
Gh(H)      1.070284    -1.120083     2.020331
Gh(H)      0.767319     0.430326     2.249368
Gh(O)      0.246191     2.036729    -0.098373
Gh(H)      0.467254     2.250333     0.806838
Gh(H)      0.917922     2.460712    -0.640110
O          0.268445    -0.553088    -1.903107
H         -0.423728    -0.525899    -2.557714
H          0.710424    -1.402795    -2.022738

units ang
no_reorient
no_com
symmetry c1
}

set {
basis        aug-cc-pVTZ
scf_type     df
}

energy("mp2")
--------------------------------------------------------------------------

    Molecular point group: c1

    Geometry (in Angstrom), charge = 0, multiplicity = 1:

       Center              X                  Y                   Z               Mass
    ------------   -----------------  -----------------  -----------------  -----------------
      Gh(LI)          0.000000000000     0.000000000000     0.000000000000     7.016003436600
      Gh(O)          -1.715018000000     0.035203000000     0.485956000000    15.994914619570
      Gh(H)          -1.936750000000    -0.119626000000     1.364263000000     1.007825032230
      Gh(H)          -2.298787000000     0.693310000000     0.156393000000     1.007825032230
      Gh(O)           1.091749000000    -0.253037000000     1.609196000000    15.994914619570
      Gh(H)           1.070284000000    -1.120083000000     2.020331000000     1.007825032230
      Gh(H)           0.767319000000     0.430326000000     2.249368000000     1.007825032230
      Gh(O)           0.246191000000     2.036729000000    -0.098373000000    15.994914619570
      Gh(H)           0.467254000000     2.250333000000     0.806838000000     1.007825032230
      Gh(H)           0.917922000000     2.460712000000    -0.640110000000     1.007825032230
         O            0.268445000000    -0.553088000000    -1.903107000000    15.994914619570
         H           -0.423728000000    -0.525899000000    -2.557714000000     1.007825032230
         H            0.710424000000    -1.402795000000    -2.022738000000     1.007825032230

  Charge       = 0
  Multiplicity = 1
  Basis Set: AUG-CC-PVTZ
    Blend: AUG-CC-PVTZ
  Basis Set: (AUG-CC-PVTZ AUX)
    Blend: AUG-CC-PVTZ-JKFIT + DEF2-UNIVERSAL-JKFIT

    Orbital Energies [Eh]
    ---------------------

    Doubly Occupied:

       1A    -20.566701     2A     -1.351576     3A     -0.719173
       4A     -0.581910     5A     -0.509772

  @DF-RHF Final Energy:   -76.06057661658522

   => Energetics <=

    Nuclear Repulsion Energy =              9.1736154426527214
    One-Electron Energy =                -123.0101184182259004
    Two-Electron Energy =                  37.7759263589879595
    Total Energy =                        -76.0605766165852231
 Dipole X            :         -4.7682891            4.6000772           -0.1682120
 Dipole Y            :         11.4590451          -12.0061822           -0.5471371
 Dipole Z            :         36.9095349          -37.4266080           -0.5170731
 Magnitude           :                                                    0.7713746
  Basis Set: (AUG-CC-PVTZ AUX)
    Blend: AUG-CC-PVTZ-RI + DEF2-QZVPP-RI
	 Reference Energy          =     -76.0605766165852231 [Eh]
	 Singles Energy            =      -0.0000000000000000 [Eh]
	 Same-Spin Energy          =      -0.0684349061847995 [Eh]
	 Opposite-Spin Energy      =      -0.2159720865246694 [Eh]
	 Correlation Energy        =      -0.2844069927094689 [Eh]
	 Total Energy              =     -76.3449836092946867 [Eh]

	 ================> DF-SCS-MP2 Energies <==================
	-----------------------------------------------------------
	 SCS Same-Spin Scale       =       0.3333333333333333 [-]
	 SCS Opposite-Spin Scale   =       1.2000000000000000 [-]
	 SCS Same-Spin Energy      =      -0.0228116353949332 [Eh]
	 SCS Opposite-Spin Energy  =      -0.2591665038296032 [Eh]
	 SCS Correlation Energy    =      -0.2819781392245364 [Eh]
	 SCS Total Energy          =     -76.3425547558097577 [Eh]
	-----------------------------------------------------------

*** Psi4 exiting successfully. Buy a developer a beer!
