                               Psi4 1.8.2 release

  ==> Input File <==

--------------------------------------------------------------------------
MEMORY 60 GB

molecule dimer {
0 1
Gh(Li)     0.000000     0.000000     0.000000
Gh(O)     -1.599702    -0.834408    -0.032075
Gh(H)     -1.671490    -1.753336     0.164015
Gh(H)     -2.104307    -0.340925     0.605746
Gh(O)      0.005994     1.410873     1.210917
Gh(H)     -0.817348     1.609443     0.914181
Gh(H)     -0.067656     1.285409     2.156336
O          0.490183     0.722640    -1.670961
H          0.003584     0.447548    -2.436389
H          1.403239     0.553948    -1.838663

units ang
no_reorient
no_com
symmetry c1
}

set {
basis        aug-cc-pVTZ
scf_type     df
}

energy("mp2")
--------------------------------------------------------------------------

    Molecular point group: c1

    Geometry (in Angstrom), charge = 0, multiplicity = 1:

       Center              X                  Y                   Z               Mass
    ------------   -----------------  -----------------  -----------------  -----------------
      Gh(LI)          0.000000000000     0.000000000000     0.000000000000     7.016003436600
      Gh(O)          -1.599702000000    -0.834408000000    -0.032075000000    15.994914619570
      Gh(H)          -1.671490000000    -1.753336000000     0.164015000000     1.007825032230
      Gh(H)          -2.104307000000    -0.340925000000     0.605746000000     1.007825032230
      Gh(O)           0.005994000000     1.410873000000     1.210917000000    15.994914619570
      Gh(H)          -0.817348000000     1.609443000000     0.914181000000     1.007825032230
      Gh(H)          -0.067656000000     1.285409000000     2.156336000000     1.007825032230
         O            0.490183000000     0.722640000000    -1.670961000000    15.994914619570
         H            0.003584000000     0.447548000000    -2.436389000000     1.007825032230
         H            1.403239000000     0.553948000000    -1.838663000000     1.007825032230

  Charge       = 0
  Multiplicity = 1
  Basis Set: AUG-CC-PVTZ
    Blend: AUG-CC-PVTZ
  Basis Set: (AUG-CC-PVTZ AUX)
    Blend: AUG-CC-PVTZ-JKFIT + DEF2-UNIVERSAL-JKFIT

    Orbital Energies [Eh]
    ---------------------

    Doubly Occupied:

       1A    -20.563583     2A     -1.357360     3A     -0.730052
       4A     -0.581118     5A     -0.510435

  @DF-RHF Final Energy:   -76.06121448047196

   => Energetics <=

    Nuclear Repulsion Energy =              9.3001794054769302
    One-Electron Energy =                -123.2376895301816546
    Two-Electron Energy =                  37.8762956442327692
    Total Energy =                        -76.0612144804719605
 Dipole X            :         -9.7799970           10.0690031            0.2890062
 Dipole Y            :        -13.1170514           12.8172867           -0.2997647
 Dipole Z            :         32.7091461          -33.3399467           -0.6308006
 Magnitude           :                                                    0.7558392
  Basis Set: (AUG-CC-PVTZ AUX)
    Blend: AUG-CC-PVTZ-RI + DEF2-QZVPP-RI
	 Reference Energy          =     -76.0612144804719605 [Eh]
	 Singles Energy            =      -0.0000000000000000 [Eh]
	 Same-Spin Energy          =      -0.0681731516172014 [Eh]
	 Opposite-Spin Energy      =      -0.2151133719132565 [Eh]
	 Correlation Energy        =      -0.2832865235304579 [Eh]
	 Total Energy              =     -76.3445010040024243 [Eh]

	 ================> DF-SCS-MP2 Energies <==================
	-----------------------------------------------------------
	 SCS Same-Spin Scale       =       0.3333333333333333 [-]
	 SCS Opposite-Spin Scale   =       1.2000000000000000 [-]
	 SCS Same-Spin Energy      =      -0.0227243838724005 [Eh]
	 SCS Opposite-Spin Energy  =      -0.2581360462959078 [Eh]
	 SCS Correlation Energy    =      -0.2808604301683083 [Eh]
	 SCS Total Energy          =     -76.3420749106402639 [Eh]
	-----------------------------------------------------------

*** Psi4 exiting successfully. Buy a developer a beer!
