                               Psi4 1.8.2 release

  ==> Input File <==

--------------------------------------------------------------------------
MEMORY 60 GB

molecule dimer {
0 1
Gh(Li)     0.000000     0.000000     0.000000
Gh(O)      0.430496    -1.782940     0.114535
Gh(H)     -0.122461    -2.196776     0.778018
Gh(H)      0.095863    -2.257410    -0.608199
O         -0.871002     0.606188     1.579229
H         -1.261790     1.443134     1.764322
H         -0.325521     0.477508     2.360804
Gh(O)     -1.263445     0.240469    -1.487618
Gh(H)     -1.400715    -0.414623    -2.199240
Gh(H)     -1.655584     1.079449    -1.825628
Gh(O)      1.839475     0.772754    -0.481884
Gh(H)      2.223970     0.990559     0.396906
Gh(H)      1.766020     1.624400    -0.919013

units ang
no_reorient
no_com
symmetry c1
}

set {
basis        aug-cc-pVTZ
scf_type     df
}

energy("mp2")
--------------------------------------------------------------------------

    Molecular point group: c1

    Geometry (in Angstrom), charge = 0, multiplicity = 1:

       Center              X                  Y                   Z               Mass
    ------------   -----------------  -----------------  -----------------  -----------------
      Gh(LI)          0.000000000000     0.000000000000     0.000000000000     7.016003436600
      Gh(O)           0.430496000000    -1.782940000000     0.114535000000    15.994914619570
      Gh(H)          -0.122461000000    -2.196776000000     0.778018000000     1.007825032230
      Gh(H)           0.095863000000    -2.257410000000    -0.608199000000     1.007825032230
         O           -0.871002000000     0.606188000000     1.579229000000    15.994914619570
         H           -1.261790000000     1.443134000000     1.764322000000     1.007825032230
         H           -0.325521000000     0.477508000000     2.360804000000     1.007825032230
      Gh(O)          -1.263445000000     0.240469000000    -1.487618000000    15.994914619570
      Gh(H)          -1.400715000000    -0.414623000000    -2.199240000000     1.007825032230
      Gh(H)          -1.655584000000     1.079449000000    -1.825628000000     1.007825032230
      Gh(O)           1.839475000000     0.772754000000    -0.481884000000    15.994914619570
      Gh(H)           2.223970000000     0.990559000000     0.396906000000     1.007825032230
      Gh(H)           1.766020000000     1.624400000000    -0.919013000000     1.007825032230

  Charge       = 0
  Multiplicity = 1
  Basis Set: AUG-CC-PVTZ
    Blend: AUG-CC-PVTZ
  Basis Set: (AUG-CC-PVTZ AUX)
    Blend: AUG-CC-PVTZ-JKFIT + DEF2-UNIVERSAL-JKFIT

    Orbital Energies [Eh]
    ---------------------

    Doubly Occupied:

       1A    -20.567371     2A     -1.358800     3A     -0.714055
       4A     -0.592341     5A     -0.511713

  @DF-RHF Final Energy:   -76.06029610198802

   => Energetics <=

    Nuclear Repulsion Energy =              9.2552813245771155
    One-Electron Energy =                -123.1425905311572819
    Two-Electron Energy =                  37.8270131045921403
    Total Energy =                        -76.0602961019880297
 Dipole X            :         16.2669651          -16.1672249            0.0997402
 Dipole Y            :        -12.3231788           12.7937218            0.4705430
 Dipole Z            :        -31.0324148           31.6698408            0.6374260
 Magnitude           :                                                    0.7985428
  Basis Set: (AUG-CC-PVTZ AUX)
    Blend: AUG-CC-PVTZ-RI + DEF2-QZVPP-RI
	 Reference Energy          =     -76.0602961019880155 [Eh]
	 Singles Energy            =      -0.0000000000000000 [Eh]
	 Same-Spin Energy          =      -0.0684082657458812 [Eh]
	 Opposite-Spin Energy      =      -0.2158992066958318 [Eh]
	 Correlation Energy        =      -0.2843074724417130 [Eh]
	 Total Energy              =     -76.3446035744297262 [Eh]

	 ================> DF-SCS-MP2 Energies <==================
	-----------------------------------------------------------
	 SCS Same-Spin Scale       =       0.3333333333333333 [-]
	 SCS Opposite-Spin Scale   =       1.2000000000000000 [-]
	 SCS Same-Spin Energy      =      -0.0228027552486271 [Eh]
	 SCS Opposite-Spin Energy  =      -0.2590790480349981 [Eh]
	 SCS Correlation Energy    =      -0.2818818032836252 [Eh]
	 SCS Total Energy          =     -76.3421779052716403 [Eh]
	-----------------------------------------------------------

*** Psi4 exiting successfully. Buy a developer a beer!
