                               Psi4 1.9 release

  ==> Input File <==

--------------------------------------------------------------------------
MEMORY 60 GB

molecule dimer {
1 1
Li     0.000000     0.000000     0.000000
--
0 1
O      1.466760     0.450408    -1.235185
H      2.148328     1.001972    -0.849832
H      1.104955     0.850723    -2.035762
O     -0.000372    -1.923700     0.069063
H     -0.093103    -2.125757    -0.874898
H     -0.820918    -2.233311     0.458196
O     -2.075430     0.042768    -0.218320
H     -2.709974    -0.583971    -0.554856
H     -2.436149     0.294869     0.600464
O      0.553120     0.728764     1.842899
H      1.471289     1.060141     1.753587
H      0.252809     1.353718     2.508178

units ang
no_reorient
no_com
symmetry c1
}

set {
basis        aug-cc-pVTZ
scf_type     df
}

energy("mp2", bsse_type="cp")
--------------------------------------------------------------------------

                               Psi4 1.9 release
    Molecular point group: c1
  Charge       = 0
  Multiplicity = 1
  Basis Set: AUG-CC-PVTZ
    Blend: AUG-CC-PVTZ
  Basis Set: (AUG-CC-PVTZ AUX)
    Blend: AUG-CC-PVTZ-JKFIT + DEF2-UNIVERSAL-JKFIT
  @DF-RHF Final Energy:  -304.21743996802627
    Total Energy =                       -304.2174399680262695
 Dipole X            :          2.2646969           -2.8915436           -0.6268467
 Dipole Y            :         12.0558615          -11.3302234            0.7256381
 Dipole Z            :         -8.7684248            8.8301856            0.0617609
 Magnitude           :                                                    0.9608860
  Basis Set: (AUG-CC-PVTZ AUX)
    Blend: AUG-CC-PVTZ-RI + DEF2-QZVPP-RI
	 Reference Energy          =    -304.2174399680262695 [Eh]
	 Singles Energy            =      -0.0000000000000000 [Eh]
	 Same-Spin Energy          =      -0.2768230875883457 [Eh]
	 Opposite-Spin Energy      =      -0.8682243314474709 [Eh]
	 Correlation Energy        =      -1.1450474190358166 [Eh]
	 Total Energy              =    -305.3624873870620604 [Eh]
	 SCS Total Energy          =    -305.3515835282926787 [Eh]
                               Psi4 1.9 release
    Molecular point group: c1
  Multiplicity = 1
  Basis Set: AUG-CC-PVTZ
    Blend: AUG-CC-PVTZ
  Basis Set: (AUG-CC-PVTZ AUX)
    Blend: AUG-CC-PVTZ-JKFIT + DEF2-UNIVERSAL-JKFIT
  @DF-RHF Final Energy:    -7.23638482796398
    Total Energy =                         -7.2363848279639758
  Basis Set: (AUG-CC-PVTZ AUX)
	 Singles Energy            =      -0.0000000000000000 [Eh]
	 Same-Spin Energy          =       0.0000000000000000 [Eh]
	 Opposite-Spin Energy      =      -0.0166157877364406 [Eh]
	 Correlation Energy        =      -0.0166157877364406 [Eh]
	 Total Energy              =      -7.2530006157004161 [Eh]
	 SCS Total Energy          =      -7.2563237732477042 [Eh]
                               Psi4 1.9 release
    Molecular point group: c1

    Geometry (in Bohr), charge = 1, multiplicity = 1:

       Center              X                  Y                   Z               Mass
    ------------   -----------------  -----------------  -----------------  -----------------
         LI           0.000000000000     0.000000000000     0.000000000000     7.016003436600
         O            2.771774691777     0.851147764715    -2.334161364274    15.994914619570
         H            4.059751547653     1.893452665377    -1.605949732650     1.007825032230
         H            2.088062330955     1.607633478628    -3.847032636614     1.007825032230
         O           -0.000702978119    -3.635266147543     0.130510155402    15.994914619570
         H           -0.175939171459    -4.017098539275    -1.653317607711     1.007825032230
         H           -1.551310191459    -4.220346142972     0.865864951780     1.007825032230
         O           -3.921994292559     0.080819806934    -0.412565007710    15.994914619570
         H           -5.121108667111    -1.103545255210    -1.048525879067     1.007825032230
         H           -4.603654410808     0.557221652888     1.134712508197     1.007825032230
         O            1.045245314513     1.377164370093     3.482574386880    15.994914619570
         H            2.780333261399     2.003376144369     3.313799167163     1.007825032230
         H            0.477739772051     2.558156271103     4.739769493899     1.007825032230

  Charge       = 1
  Multiplicity = 1
  Basis Set: AUG-CC-PVTZ
    Blend: AUG-CC-PVTZ
  Basis Set: (AUG-CC-PVTZ AUX)
    Blend: AUG-CC-PVTZ-JKFIT + DEF2-UNIVERSAL-JKFIT

    Orbital Energies [Eh]
    ---------------------

    Doubly Occupied:

       1A    -20.756137     2A    -20.755289     3A    -20.751052
       4A    -20.740639     5A     -2.549366     6A     -1.554067
       7A     -1.543667     8A     -1.538516     9A     -1.529584
      10A     -0.921610    11A     -0.913321    12A     -0.889717
      13A     -0.883219    14A     -0.800285    15A     -0.794864
      16A     -0.781951    17A     -0.765580    18A     -0.720763
      19A     -0.712326    20A     -0.698427    21A     -0.682219

  @DF-RHF Final Energy:  -311.61686684450655

   => Energetics <=

    Nuclear Repulsion Energy =            161.1811515248175226
    One-Electron Energy =                -743.0308368244956227
    Two-Electron Energy =                 270.2328184551715253
    Total Energy =                       -311.6168668445065464
 Dipole X            :          2.2463097           -2.8915436           -0.6452339
 Dipole Y            :         11.9592480          -11.3302234            0.6290246
 Dipole Z            :         -8.7088198            8.8301856            0.1213658
 Magnitude           :                                                    0.9092461
  Basis Set: (AUG-CC-PVTZ AUX)
    Blend: AUG-CC-PVTZ-RI + DEF2-QZVPP-RI
	 Reference Energy          =    -311.6168668445065464 [Eh]
	 Singles Energy            =      -0.0000000000000000 [Eh]
	 Same-Spin Energy          =      -0.2754166138489338 [Eh]
	 Opposite-Spin Energy      =      -0.8782315111547342 [Eh]
	 Correlation Energy        =      -1.1536481250036679 [Eh]
	 Total Energy              =    -312.7705149695102023 [Eh]

	 ================> DF-SCS-MP2 Energies <==================
	-----------------------------------------------------------
	 SCS Same-Spin Scale       =       0.3333333333333333 [-]
	 SCS Opposite-Spin Scale   =       1.2000000000000000 [-]
	 SCS Same-Spin Energy      =      -0.0918055379496446 [Eh]
	 SCS Opposite-Spin Energy  =      -1.0538778133856810 [Eh]
	 SCS Correlation Energy    =      -1.1456833513353255 [Eh]
	 SCS Total Energy          =    -312.7625501958418681 [Eh]
	-----------------------------------------------------------

*** Psi4 exiting successfully. Buy a developer a beer!
