                               Psi4 1.9 release

  ==> Input File <==

--------------------------------------------------------------------------
MEMORY 60 GB

molecule dimer {
1 1
Li     0.000000     0.000000     0.000000
--
0 1
O      1.858934    -0.623976    -0.526781
H      1.848269    -1.539102    -0.846784
H      2.660861    -0.574173     0.041889
O     -0.075512     1.555018     1.114340
H     -0.140334     2.353388     0.602470
H      0.715955     1.755071     1.596003
O     -0.507566     0.606809    -1.968779
H     -0.605809    -0.214582    -2.524121
H     -0.969069     1.265079    -2.433698
O     -0.854187    -1.323968     1.103405
H     -1.682373    -1.653239     0.783875
H     -1.040480    -0.735892     1.855917

units ang
no_reorient
no_com
symmetry c1
}

set {
basis        aug-cc-pVTZ
scf_type     df
}

energy("mp2", bsse_type="cp")
--------------------------------------------------------------------------

                               Psi4 1.9 release
    Molecular point group: c1
  Charge       = 0
  Multiplicity = 1
  Basis Set: AUG-CC-PVTZ
    Blend: AUG-CC-PVTZ
  Basis Set: (AUG-CC-PVTZ AUX)
    Blend: AUG-CC-PVTZ-JKFIT + DEF2-UNIVERSAL-JKFIT
  @DF-RHF Final Energy:  -304.22015193022781
    Total Energy =                       -304.2201519302278143
 Dipole X            :         -7.9080816            7.8619637           -0.0461180
 Dipole Y            :         -4.2658797            4.4741420            0.2082624
 Dipole Z            :          5.6716533           -5.9469095           -0.2752562
 Magnitude           :                                                    0.3482328
  Basis Set: (AUG-CC-PVTZ AUX)
    Blend: AUG-CC-PVTZ-RI + DEF2-QZVPP-RI
	 Reference Energy          =    -304.2201519302278143 [Eh]
	 Singles Energy            =      -0.0000000000000000 [Eh]
	 Same-Spin Energy          =      -0.2767815330943334 [Eh]
	 Opposite-Spin Energy      =      -0.8683381089279094 [Eh]
	 Correlation Energy        =      -1.1451196420222427 [Eh]
	 Total Energy              =    -305.3652715722500375 [Eh]
	 SCS Total Energy          =    -305.3544181719727248 [Eh]
                               Psi4 1.9 release
    Molecular point group: c1
  Multiplicity = 1
  Basis Set: AUG-CC-PVTZ
    Blend: AUG-CC-PVTZ
  Basis Set: (AUG-CC-PVTZ AUX)
    Blend: AUG-CC-PVTZ-JKFIT + DEF2-UNIVERSAL-JKFIT
  @DF-RHF Final Energy:    -7.23638486966981
    Total Energy =                         -7.2363848696698074
  Basis Set: (AUG-CC-PVTZ AUX)
	 Singles Energy            =      -0.0000000000000000 [Eh]
	 Same-Spin Energy          =       0.0000000000000000 [Eh]
	 Opposite-Spin Energy      =      -0.0167467271802105 [Eh]
	 Correlation Energy        =      -0.0167467271802105 [Eh]
	 Total Energy              =      -7.2531315968500181 [Eh]
	 SCS Total Energy          =      -7.2564809422860597 [Eh]
                               Psi4 1.9 release
    Molecular point group: c1

    Geometry (in Bohr), charge = 1, multiplicity = 1:

       Center              X                  Y                   Z               Mass
    ------------   -----------------  -----------------  -----------------  -----------------
         LI           0.000000000000     0.000000000000     0.000000000000     7.016003436600
         O            3.512876145302    -1.179143748859    -0.995471818095    15.994914619570
         H            3.492722216174    -2.908481259144    -1.600189847420     1.007825032230
         H            5.028298547912    -1.085029718632     0.079158737669     1.007825032230
         O           -0.142696999186     2.938558140157     2.105797410643    15.994914619570
         H           -0.265192826090     4.447258786939     1.138503298805     1.007825032230
         H            1.352958868152     3.316603520733     3.016008565409     1.007825032230
         O           -0.959160730594     1.146702820463    -3.720453111553    15.994914619570
         H           -1.144813094337    -0.405501211453    -4.769897397517     1.007825032230
         H           -1.831275006671     2.390652837068    -4.599022692074     1.007825032230
         O           -1.614179489926    -2.501936918870     2.085133255461    15.994914619570
         H           -3.179224210865    -3.124168929926     1.481309066593     1.007825032230
         H           -1.966222239016    -1.390634337915     3.507174841581     1.007825032230

  Charge       = 1
  Multiplicity = 1
  Basis Set: AUG-CC-PVTZ
    Blend: AUG-CC-PVTZ
  Basis Set: (AUG-CC-PVTZ AUX)
    Blend: AUG-CC-PVTZ-JKFIT + DEF2-UNIVERSAL-JKFIT

    Orbital Energies [Eh]
    ---------------------

    Doubly Occupied:

       1A    -20.759457     2A    -20.748213     3A    -20.744427
       4A    -20.742655     5A     -2.543329     6A     -1.560263
       7A     -1.539116     8A     -1.530028     9A     -1.522484
      10A     -0.910905    11A     -0.903890    12A     -0.894870
      13A     -0.882725    14A     -0.810645    15A     -0.785494
      16A     -0.776919    17A     -0.764605    18A     -0.717187
      19A     -0.705401    20A     -0.692045    21A     -0.687383

  @DF-RHF Final Energy:  -311.62265942178669

   => Energetics <=

    Nuclear Repulsion Energy =            160.9441649328967117
    One-Electron Energy =                -742.6895626173708251
    Two-Electron Energy =                 270.1227382626874487
    Total Energy =                       -311.6226594217866932
 Dipole X            :         -7.8392356            7.8619637            0.0227281
 Dipole Y            :         -4.2344661            4.4741420            0.2396759
 Dipole Z            :          5.6787832           -5.9469095           -0.2681263
 Magnitude           :                                                    0.3603510
  Basis Set: (AUG-CC-PVTZ AUX)
    Blend: AUG-CC-PVTZ-RI + DEF2-QZVPP-RI
	 Reference Energy          =    -311.6226594217866932 [Eh]
	 Singles Energy            =      -0.0000000000000000 [Eh]
	 Same-Spin Energy          =      -0.2753369191543503 [Eh]
	 Opposite-Spin Energy      =      -0.8782530476278012 [Eh]
	 Correlation Energy        =      -1.1535899667821514 [Eh]
	 Total Energy              =    -312.7762493885688286 [Eh]

	 ================> DF-SCS-MP2 Energies <==================
	-----------------------------------------------------------
	 SCS Same-Spin Scale       =       0.3333333333333333 [-]
	 SCS Opposite-Spin Scale   =       1.2000000000000000 [-]
	 SCS Same-Spin Energy      =      -0.0917789730514501 [Eh]
	 SCS Opposite-Spin Energy  =      -1.0539036571533613 [Eh]
	 SCS Correlation Energy    =      -1.1456826302048113 [Eh]
	 SCS Total Energy          =    -312.7683420519915103 [Eh]
	-----------------------------------------------------------

*** Psi4 exiting successfully. Buy a developer a beer!
