                               Psi4 1.8.2 release

  ==> Input File <==

--------------------------------------------------------------------------
MEMORY 60 GB

molecule dimer {
1 1
Li         0.000000     0.000000     0.000000
O         -1.054262     1.033472     1.093346
H         -1.730482     0.532374     1.562433
H         -1.571843     1.575637     0.505802
O         -0.744178    -1.532605    -0.783434
H         -0.277426    -1.988784    -1.466297
H         -1.469992    -1.214014    -1.334823
O          1.660220    -0.198584     0.829101
H          2.081802    -0.988587     0.338437
H          2.282426     0.471872     1.056824

units ang
no_reorient
no_com
symmetry c1
}

set {
basis        aug-cc-pVTZ
scf_type     df
}

energy("mp2")
--------------------------------------------------------------------------

    Molecular point group: c1

    Geometry (in Angstrom), charge = 1, multiplicity = 1:

       Center              X                  Y                   Z               Mass
    ------------   -----------------  -----------------  -----------------  -----------------
         LI           0.000000000000     0.000000000000     0.000000000000     7.016003436600
         O           -1.054262000000     1.033472000000     1.093346000000    15.994914619570
         H           -1.730482000000     0.532374000000     1.562433000000     1.007825032230
         H           -1.571843000000     1.575637000000     0.505802000000     1.007825032230
         O           -0.744178000000    -1.532605000000    -0.783434000000    15.994914619570
         H           -0.277426000000    -1.988784000000    -1.466297000000     1.007825032230
         H           -1.469992000000    -1.214014000000    -1.334823000000     1.007825032230
         O            1.660220000000    -0.198584000000     0.829101000000    15.994914619570
         H            2.081802000000    -0.988587000000     0.338437000000     1.007825032230
         H            2.282426000000     0.471872000000     1.056824000000     1.007825032230

  Charge       = 1
  Multiplicity = 1
  Basis Set: AUG-CC-PVTZ
    Blend: AUG-CC-PVTZ
  Basis Set: (AUG-CC-PVTZ AUX)
    Blend: AUG-CC-PVTZ-JKFIT + DEF2-UNIVERSAL-JKFIT

    Orbital Energies [Eh]
    ---------------------

    Doubly Occupied:

       1A    -20.785658     2A    -20.771200     3A    -20.763577
       4A     -2.571974     5A     -1.583221     6A     -1.566250
       7A     -1.540511     8A     -0.924857     9A     -0.920345
      10A     -0.918690    11A     -0.835104    12A     -0.815653
      13A     -0.778339    14A     -0.742990    15A     -0.729903
      16A     -0.712944

  @DF-RHF Final Energy:  -235.52989284684023

   => Energetics <=

    Nuclear Repulsion Energy =            100.2389433949789748
    One-Electron Energy =                -517.6152357935432065
    Two-Electron Energy =                 181.8463995517240335
    Total Energy =                       -235.5298928468402266
 Dipole X            :          3.0951492           -3.3850192           -0.2898700
 Dipole Y            :         13.3136014          -13.5932498           -0.2796483
 Dipole Z            :        -19.3503012           18.4710902           -0.8792110
 Magnitude           :                                                    0.9670780
  Basis Set: (AUG-CC-PVTZ AUX)
    Blend: AUG-CC-PVTZ-RI + DEF2-QZVPP-RI
	 Reference Energy          =    -235.5298928468402266 [Eh]
	 Singles Energy            =      -0.0000000000000000 [Eh]
	 Same-Spin Energy          =      -0.2062206412881847 [Eh]
	 Opposite-Spin Energy      =      -0.6618238494136264 [Eh]
	 Correlation Energy        =      -0.8680444907018110 [Eh]
	 Total Energy              =    -236.3979373375420323 [Eh]

	 ================> DF-SCS-MP2 Energies <==================
	-----------------------------------------------------------
	 SCS Same-Spin Scale       =       0.3333333333333333 [-]
	 SCS Opposite-Spin Scale   =       1.2000000000000000 [-]
	 SCS Same-Spin Energy      =      -0.0687402137627282 [Eh]
	 SCS Opposite-Spin Energy  =      -0.7941886192963516 [Eh]
	 SCS Correlation Energy    =      -0.8629288330590799 [Eh]
	 SCS Total Energy          =    -236.3928216798992992 [Eh]
	-----------------------------------------------------------

*** Psi4 exiting successfully. Buy a developer a beer!
