                               Psi4 1.8.2 release

  ==> Input File <==

--------------------------------------------------------------------------
MEMORY 60 GB

molecule dimer {
1 1
Li         0.000000     0.000000     0.000000
O         -1.162740     1.014321     1.159155
H         -0.442200     0.986359     1.801023
H         -1.860620     0.437939     1.470678
O          1.767946     0.216161     0.641309
H          2.204606    -0.360946     0.000281
H          2.328164     0.028607     1.374471
O         -0.688386    -1.786161     0.152623
H         -1.542320    -1.770103    -0.317065
H         -0.023824    -2.188879    -0.406850
O          0.091354     1.071377    -1.593210
H         -0.332237     0.917174    -2.464800
H          0.896186     1.508063    -1.838482

units ang
no_reorient
no_com
symmetry c1
}

set {
basis        aug-cc-pVTZ
scf_type     df
}

energy("mp2")
--------------------------------------------------------------------------

    Molecular point group: c1

    Geometry (in Angstrom), charge = 1, multiplicity = 1:

       Center              X                  Y                   Z               Mass
    ------------   -----------------  -----------------  -----------------  -----------------
         LI           0.000000000000     0.000000000000     0.000000000000     7.016003436600
         O           -1.162740000000     1.014321000000     1.159155000000    15.994914619570
         H           -0.442200000000     0.986359000000     1.801023000000     1.007825032230
         H           -1.860620000000     0.437939000000     1.470678000000     1.007825032230
         O            1.767946000000     0.216161000000     0.641309000000    15.994914619570
         H            2.204606000000    -0.360946000000     0.000281000000     1.007825032230
         H            2.328164000000     0.028607000000     1.374471000000     1.007825032230
         O           -0.688386000000    -1.786161000000     0.152623000000    15.994914619570
         H           -1.542320000000    -1.770103000000    -0.317065000000     1.007825032230
         H           -0.023824000000    -2.188879000000    -0.406850000000     1.007825032230
         O            0.091354000000     1.071377000000    -1.593210000000    15.994914619570
         H           -0.332237000000     0.917174000000    -2.464800000000     1.007825032230
         H            0.896186000000     1.508063000000    -1.838482000000     1.007825032230

  Charge       = 1
  Multiplicity = 1
  Basis Set: AUG-CC-PVTZ
    Blend: AUG-CC-PVTZ
  Basis Set: (AUG-CC-PVTZ AUX)
    Blend: AUG-CC-PVTZ-JKFIT + DEF2-UNIVERSAL-JKFIT

    Orbital Energies [Eh]
    ---------------------

    Doubly Occupied:

       1A    -20.771978     2A    -20.767223     3A    -20.755015
       4A    -20.736621     5A     -2.543990     6A     -1.570706
       7A     -1.554163     8A     -1.543280     9A     -1.527269
      10A     -0.927450    11A     -0.916251    12A     -0.899602
      13A     -0.895132    14A     -0.824082    15A     -0.801052
      16A     -0.787229    17A     -0.754122    18A     -0.730030
      19A     -0.721974    20A     -0.704127    21A     -0.691675

  @DF-RHF Final Energy:  -311.60854841698767

   => Energetics <=

    Nuclear Repulsion Energy =            166.6838756583456416
    One-Electron Energy =                -753.7389025208830162
    Two-Electron Energy =                 275.4464784455497011
    Total Energy =                       -311.6085484169876736
 Dipole X            :         -1.5924628            2.4436937            0.8512309
 Dipole Y            :         -7.8739151            6.9613693           -0.9125458
 Dipole Z            :         -5.4229433            4.7210499           -0.7018935
 Magnitude           :                                                    1.4317780
  Basis Set: (AUG-CC-PVTZ AUX)
    Blend: AUG-CC-PVTZ-RI + DEF2-QZVPP-RI
	 Reference Energy          =    -311.6085484169876736 [Eh]
	 Singles Energy            =      -0.0000000000000000 [Eh]
	 Same-Spin Energy          =      -0.2762889673268911 [Eh]
	 Opposite-Spin Energy      =      -0.8801499719426942 [Eh]
	 Correlation Energy        =      -1.1564389392695853 [Eh]
	 Total Energy              =    -312.7649873562572793 [Eh]

	 ================> DF-SCS-MP2 Energies <==================
	-----------------------------------------------------------
	 SCS Same-Spin Scale       =       0.3333333333333333 [-]
	 SCS Opposite-Spin Scale   =       1.2000000000000000 [-]
	 SCS Same-Spin Energy      =      -0.0920963224422970 [Eh]
	 SCS Opposite-Spin Energy  =      -1.0561799663312330 [Eh]
	 SCS Correlation Energy    =      -1.1482762887735301 [Eh]
	 SCS Total Energy          =    -312.7568247057611757 [Eh]
	-----------------------------------------------------------

*** Psi4 exiting successfully. Buy a developer a beer!
