                               Psi4 1.8.2 release

  ==> Input File <==

--------------------------------------------------------------------------
MEMORY 60 GB

molecule dimer {
1 1
Li         0.000000     0.000000     0.000000
O          1.639321    -0.729901    -0.741028
H          2.317640    -0.292230    -0.190534
H          1.830515    -0.437536    -1.637740
O         -1.213233    -0.784151    -1.126646
H         -2.144486    -0.625012    -0.756992
H         -1.331930    -0.459099    -2.088330
O          0.356812     1.866213     0.273167
H          0.727568     1.761017     1.166760
H         -0.181844     2.672161     0.214819
O         -0.385442    -0.624008     1.841742
H         -1.072760     0.019128     2.225122
H          0.268191    -0.695409     2.554002

units ang
no_reorient
no_com
symmetry c1
}

set {
basis        aug-cc-pVTZ
scf_type     df
}

energy("mp2")
--------------------------------------------------------------------------

    Molecular point group: c1

    Geometry (in Angstrom), charge = 1, multiplicity = 1:

       Center              X                  Y                   Z               Mass
    ------------   -----------------  -----------------  -----------------  -----------------
         LI           0.000000000000     0.000000000000     0.000000000000     7.016003436600
         O            1.639321000000    -0.729901000000    -0.741028000000    15.994914619570
         H            2.317640000000    -0.292230000000    -0.190534000000     1.007825032230
         H            1.830515000000    -0.437536000000    -1.637740000000     1.007825032230
         O           -1.213233000000    -0.784151000000    -1.126646000000    15.994914619570
         H           -2.144486000000    -0.625012000000    -0.756992000000     1.007825032230
         H           -1.331930000000    -0.459099000000    -2.088330000000     1.007825032230
         O            0.356812000000     1.866213000000     0.273167000000    15.994914619570
         H            0.727568000000     1.761017000000     1.166760000000     1.007825032230
         H           -0.181844000000     2.672161000000     0.214819000000     1.007825032230
         O           -0.385442000000    -0.624008000000     1.841742000000    15.994914619570
         H           -1.072760000000     0.019128000000     2.225122000000     1.007825032230
         H            0.268191000000    -0.695409000000     2.554002000000     1.007825032230

  Charge       = 1
  Multiplicity = 1
  Basis Set: AUG-CC-PVTZ
    Blend: AUG-CC-PVTZ
  Basis Set: (AUG-CC-PVTZ AUX)
    Blend: AUG-CC-PVTZ-JKFIT + DEF2-UNIVERSAL-JKFIT

    Orbital Energies [Eh]
    ---------------------

    Doubly Occupied:

       1A    -20.764607     2A    -20.764319     3A    -20.758523
       4A    -20.741471     5A     -2.529997     6A     -1.547431
       7A     -1.533915     8A     -1.526491     9A     -1.515895
      10A     -0.924974    11A     -0.891476    12A     -0.887335
      13A     -0.863833    14A     -0.796258    15A     -0.789314
      16A     -0.780176    17A     -0.760092    18A     -0.725697
      19A     -0.702351    20A     -0.700390    21A     -0.691304

  @DF-RHF Final Energy:  -311.60150373874575

   => Energetics <=

    Nuclear Repulsion Energy =            164.8484515054053929
    One-Electron Energy =                -750.5082074115301793
    Two-Electron Energy =                 274.0582521673790666
    Total Energy =                       -311.6015037387457483
 Dipole X            :         -7.0249467            6.7889507           -0.2359960
 Dipole Y            :          2.0528093           -0.4379554            1.6148540
 Dipole Z            :         -5.8702625            6.5478765            0.6776139
 Magnitude           :                                                    1.7670903
  Basis Set: (AUG-CC-PVTZ AUX)
    Blend: AUG-CC-PVTZ-RI + DEF2-QZVPP-RI
	 Reference Energy          =    -311.6015037387457483 [Eh]
	 Singles Energy            =      -0.0000000000000000 [Eh]
	 Same-Spin Energy          =      -0.2779763183529017 [Eh]
	 Opposite-Spin Energy      =      -0.8853725509033014 [Eh]
	 Correlation Energy        =      -1.1633488692562031 [Eh]
	 Total Energy              =    -312.7648526080019451 [Eh]

	 ================> DF-SCS-MP2 Energies <==================
	-----------------------------------------------------------
	 SCS Same-Spin Scale       =       0.3333333333333333 [-]
	 SCS Opposite-Spin Scale   =       1.2000000000000000 [-]
	 SCS Same-Spin Energy      =      -0.0926587727843006 [Eh]
	 SCS Opposite-Spin Energy  =      -1.0624470610839616 [Eh]
	 SCS Correlation Energy    =      -1.1551058338682623 [Eh]
	 SCS Total Energy          =    -312.7566095726140247 [Eh]
	-----------------------------------------------------------

*** Psi4 exiting successfully. Buy a developer a beer!
