                               Psi4 1.8.2 release

  ==> Input File <==

--------------------------------------------------------------------------
MEMORY 60 GB

molecule dimer {
0 1
Gh(Li)     0.000000     0.000000     0.000000
Gh(O)     -0.007634    -1.023123    -1.511591
Gh(H)      0.057973    -0.546603    -2.301212
Gh(H)     -0.749478    -1.673774    -1.686888
Gh(O)     -0.253781    -0.523552     1.861966
Gh(H)      0.377486    -1.069012     2.381988
Gh(H)     -0.297109     0.310860     2.309038
O         -0.726151     1.712601    -0.023638
H         -1.486107     2.345326    -0.255453
H          0.048758     2.312731    -0.026328
Gh(O)      1.873846     0.435239     0.205989
Gh(H)      2.286734    -0.048458    -0.478572
Gh(H)      2.531118     0.339515     0.930741

units ang
no_reorient
no_com
symmetry c1
}

set {
basis        aug-cc-pVTZ
scf_type     df
}

energy("mp2")
--------------------------------------------------------------------------

    Molecular point group: c1

    Geometry (in Angstrom), charge = 0, multiplicity = 1:

       Center              X                  Y                   Z               Mass
    ------------   -----------------  -----------------  -----------------  -----------------
      Gh(LI)          0.000000000000     0.000000000000     0.000000000000     7.016003436600
      Gh(O)          -0.007634000000    -1.023123000000    -1.511591000000    15.994914619570
      Gh(H)           0.057973000000    -0.546603000000    -2.301212000000     1.007825032230
      Gh(H)          -0.749478000000    -1.673774000000    -1.686888000000     1.007825032230
      Gh(O)          -0.253781000000    -0.523552000000     1.861966000000    15.994914619570
      Gh(H)           0.377486000000    -1.069012000000     2.381988000000     1.007825032230
      Gh(H)          -0.297109000000     0.310860000000     2.309038000000     1.007825032230
         O           -0.726151000000     1.712601000000    -0.023638000000    15.994914619570
         H           -1.486107000000     2.345326000000    -0.255453000000     1.007825032230
         H            0.048758000000     2.312731000000    -0.026328000000     1.007825032230
      Gh(O)           1.873846000000     0.435239000000     0.205989000000    15.994914619570
      Gh(H)           2.286734000000    -0.048458000000    -0.478572000000     1.007825032230
      Gh(H)           2.531118000000     0.339515000000     0.930741000000     1.007825032230

  Charge       = 0
  Multiplicity = 1
  Basis Set: AUG-CC-PVTZ
    Blend: AUG-CC-PVTZ
  Basis Set: (AUG-CC-PVTZ AUX)
    Blend: AUG-CC-PVTZ-JKFIT + DEF2-UNIVERSAL-JKFIT

    Orbital Energies [Eh]
    ---------------------

    Doubly Occupied:

       1A    -20.574977     2A     -1.335338     3A     -0.691736
       4A     -0.581519     5A     -0.507911

  @DF-RHF Final Energy:   -76.05451533491976

   => Energetics <=

    Nuclear Repulsion Energy =              8.8282251603940924
    One-Electron Energy =                -122.3825147844016499
    Two-Electron Energy =                  37.4997742890877817
    Total Energy =                        -76.0545153349197705
 Dipole X            :         13.7100428          -13.6940081            0.0160347
 Dipole Y            :        -33.8993829           34.6932268            0.7938439
 Dipole Z            :          0.7398719           -0.8898437           -0.1499717
 Magnitude           :                                                    0.8080451
  Basis Set: (AUG-CC-PVTZ AUX)
    Blend: AUG-CC-PVTZ-RI + DEF2-QZVPP-RI
	 Reference Energy          =     -76.0545153349197562 [Eh]
	 Singles Energy            =      -0.0000000000000000 [Eh]
	 Same-Spin Energy          =      -0.0692038689624926 [Eh]
	 Opposite-Spin Energy      =      -0.2185022964449544 [Eh]
	 Correlation Energy        =      -0.2877061654074471 [Eh]
	 Total Energy              =     -76.3422215003271987 [Eh]

	 ================> DF-SCS-MP2 Energies <==================
	-----------------------------------------------------------
	 SCS Same-Spin Scale       =       0.3333333333333333 [-]
	 SCS Opposite-Spin Scale   =       1.2000000000000000 [-]
	 SCS Same-Spin Energy      =      -0.0230679563208309 [Eh]
	 SCS Opposite-Spin Energy  =      -0.2622027557339453 [Eh]
	 SCS Correlation Energy    =      -0.2852707120547762 [Eh]
	 SCS Total Energy          =     -76.3397860469745382 [Eh]
	-----------------------------------------------------------

*** Psi4 exiting successfully. Buy a developer a beer!
