                               Psi4 1.9 release

  ==> Input File <==

--------------------------------------------------------------------------
MEMORY 60 GB

molecule dimer {
1 1
Li     0.000000     0.000000     0.000000
--
0 1
O      1.639321    -0.729901    -0.741028
H      2.317640    -0.292230    -0.190534
H      1.830515    -0.437536    -1.637740
O     -1.213233    -0.784151    -1.126646
H     -2.144486    -0.625012    -0.756992
H     -1.331930    -0.459099    -2.088330
O      0.356812     1.866213     0.273167
H      0.727568     1.761017     1.166760
H     -0.181844     2.672161     0.214819
O     -0.385442    -0.624008     1.841742
H     -1.072760     0.019128     2.225122
H      0.268191    -0.695409     2.554002

units ang
no_reorient
no_com
symmetry c1
}

set {
basis        aug-cc-pVTZ
scf_type     df
}

energy("mp2", bsse_type="cp")
--------------------------------------------------------------------------

                               Psi4 1.9 release
    Molecular point group: c1
  Charge       = 0
  Multiplicity = 1
  Basis Set: AUG-CC-PVTZ
    Blend: AUG-CC-PVTZ
  Basis Set: (AUG-CC-PVTZ AUX)
    Blend: AUG-CC-PVTZ-JKFIT + DEF2-UNIVERSAL-JKFIT
  @DF-RHF Final Energy:  -304.19882917622090
    Total Energy =                       -304.1988291762208974
 Dipole X            :         -7.0319737            6.7889507           -0.2430230
 Dipole Y            :          1.9618579           -0.4379554            1.5239025
 Dipole Z            :         -5.9034710            6.5478765            0.6444054
 Magnitude           :                                                    1.6723030
  Basis Set: (AUG-CC-PVTZ AUX)
    Blend: AUG-CC-PVTZ-RI + DEF2-QZVPP-RI
	 Reference Energy          =    -304.1988291762208974 [Eh]
	 Singles Energy            =      -0.0000000000000000 [Eh]
	 Same-Spin Energy          =      -0.2794590573592381 [Eh]
	 Opposite-Spin Energy      =      -0.8758264718582447 [Eh]
	 Correlation Energy        =      -1.1552855292174828 [Eh]
	 Total Energy              =    -305.3541147054384055 [Eh]
	 SCS Total Energy          =    -305.3429739615705216 [Eh]
                               Psi4 1.9 release
    Molecular point group: c1
  Multiplicity = 1
  Basis Set: AUG-CC-PVTZ
    Blend: AUG-CC-PVTZ
  Basis Set: (AUG-CC-PVTZ AUX)
    Blend: AUG-CC-PVTZ-JKFIT + DEF2-UNIVERSAL-JKFIT
  @DF-RHF Final Energy:    -7.23638495297062
    Total Energy =                         -7.2363849529706199
  Basis Set: (AUG-CC-PVTZ AUX)
	 Singles Energy            =      -0.0000000000000000 [Eh]
	 Same-Spin Energy          =      -0.0000000000000000 [Eh]
	 Opposite-Spin Energy      =      -0.0173789192873664 [Eh]
	 Correlation Energy        =      -0.0173789192873664 [Eh]
	 Total Energy              =      -7.2537638722579869 [Eh]
	 SCS Total Energy          =      -7.2572396561154608 [Eh]
                               Psi4 1.9 release
    Molecular point group: c1

    Geometry (in Bohr), charge = 1, multiplicity = 1:

       Center              X                  Y                   Z               Mass
    ------------   -----------------  -----------------  -----------------  -----------------
         LI           0.000000000000     0.000000000000     0.000000000000     7.016003436600
         O            3.097867721712    -1.379312988698    -1.400339971296    15.994914619570
         H            4.379704857406    -0.552234665643    -0.360057077588     1.007825032230
         H            3.459172018542    -0.826823210028    -3.094880064707     1.007825032230
         O           -2.292678096368    -1.481830631004    -2.129052380343    15.994914619570
         H           -4.052491219879    -1.181101505125    -1.430507559163     1.007825032230
         H           -2.516982918281    -0.867571374472    -3.946371759577     1.007825032230
         O            0.674276958277     3.526631461769     0.516210816513    15.994914619570
         H            1.374904257647     3.327839832275     2.204856854139     1.007825032230
         H           -0.343635357558     5.049652453130     0.405949076545     1.007825032230
         O           -0.728379817249    -1.179204220095     3.480387973753    15.994914619570
         H           -2.027222598346     0.036146681328     4.204871175731     1.007825032230
         H            0.506807539313    -1.314132555179     4.826364303872     1.007825032230

  Charge       = 1
  Multiplicity = 1
  Basis Set: AUG-CC-PVTZ
    Blend: AUG-CC-PVTZ
  Basis Set: (AUG-CC-PVTZ AUX)
    Blend: AUG-CC-PVTZ-JKFIT + DEF2-UNIVERSAL-JKFIT

    Orbital Energies [Eh]
    ---------------------

    Doubly Occupied:

       1A    -20.764607     2A    -20.764319     3A    -20.758523
       4A    -20.741471     5A     -2.529997     6A     -1.547431
       7A     -1.533915     8A     -1.526491     9A     -1.515895
      10A     -0.924974    11A     -0.891476    12A     -0.887335
      13A     -0.863833    14A     -0.796258    15A     -0.789314
      16A     -0.780176    17A     -0.760092    18A     -0.725697
      19A     -0.702351    20A     -0.700390    21A     -0.691304

  @DF-RHF Final Energy:  -311.60150373856516

   => Energetics <=

    Nuclear Repulsion Energy =            164.8484515054054214
    One-Electron Energy =                -750.5082074115225623
    Two-Electron Energy =                 274.0582521675520411
    Total Energy =                       -311.6015037385651567
 Dipole X            :         -7.0249467            6.7889507           -0.2359960
 Dipole Y            :          2.0528093           -0.4379554            1.6148540
 Dipole Z            :         -5.8702625            6.5478765            0.6776139
 Magnitude           :                                                    1.7670903
  Basis Set: (AUG-CC-PVTZ AUX)
    Blend: AUG-CC-PVTZ-RI + DEF2-QZVPP-RI
	 Reference Energy          =    -311.6015037385651567 [Eh]
	 Singles Energy            =      -0.0000000000000000 [Eh]
	 Same-Spin Energy          =      -0.2779763183539614 [Eh]
	 Opposite-Spin Energy      =      -0.8853725509073639 [Eh]
	 Correlation Energy        =      -1.1633488692613252 [Eh]
	 Total Energy              =    -312.7648526078264695 [Eh]

	 ================> DF-SCS-MP2 Energies <==================
	-----------------------------------------------------------
	 SCS Same-Spin Scale       =       0.3333333333333333 [-]
	 SCS Opposite-Spin Scale   =       1.2000000000000000 [-]
	 SCS Same-Spin Energy      =      -0.0926587727846538 [Eh]
	 SCS Opposite-Spin Energy  =      -1.0624470610888366 [Eh]
	 SCS Correlation Energy    =      -1.1551058338734903 [Eh]
	 SCS Total Energy          =    -312.7566095724386628 [Eh]
	-----------------------------------------------------------

*** Psi4 exiting successfully. Buy a developer a beer!
