                               Psi4 1.9 release

  ==> Input File <==

--------------------------------------------------------------------------
MEMORY 60 GB

molecule dimer {
1 1
Li     0.000000     0.000000     0.000000
--
0 1
O     -0.266443     1.938313    -0.248340
H     -0.088316     2.610611    -0.926278
H     -0.885622     2.402495     0.339436
O     -1.305581    -1.041945    -1.192735
H     -1.614892    -1.898100    -0.899961
H     -0.845776    -1.154356    -2.000716
O      2.066109    -0.498860    -0.290542
H      2.623530    -0.650184     0.499648
H      2.518418    -0.862145    -1.036711
O     -0.099893    -0.786188     1.651962
H      0.363831    -1.589227     1.918952
H     -1.018921    -0.908196     1.943922

units ang
no_reorient
no_com
symmetry c1
}

set {
basis        aug-cc-pVTZ
scf_type     df
}

energy("mp2", bsse_type="cp")
--------------------------------------------------------------------------

                               Psi4 1.9 release
    Molecular point group: c1
  Charge       = 0
  Multiplicity = 1
  Basis Set: AUG-CC-PVTZ
    Blend: AUG-CC-PVTZ
  Basis Set: (AUG-CC-PVTZ AUX)
    Blend: AUG-CC-PVTZ-JKFIT + DEF2-UNIVERSAL-JKFIT
  @DF-RHF Final Energy:  -304.21807296428386
    Total Energy =                       -304.2180729642838628
 Dipole X            :         -7.7476366            7.9477875            0.2001509
 Dipole Y            :          8.9493763           -9.7482316           -0.7988552
 Dipole Z            :          1.4783026           -1.5097929           -0.0314903
 Magnitude           :                                                    0.8241491
  Basis Set: (AUG-CC-PVTZ AUX)
    Blend: AUG-CC-PVTZ-RI + DEF2-QZVPP-RI
	 Reference Energy          =    -304.2180729642838628 [Eh]
	 Singles Energy            =      -0.0000000000000000 [Eh]
	 Same-Spin Energy          =      -0.2767268972550392 [Eh]
	 Opposite-Spin Energy      =      -0.8683128565356846 [Eh]
	 Correlation Energy        =      -1.1450397537907238 [Eh]
	 Total Energy              =    -305.3631127180746034 [Eh]
	 SCS Total Energy          =    -305.3522906912116923 [Eh]
                               Psi4 1.9 release
    Molecular point group: c1
  Multiplicity = 1
  Basis Set: AUG-CC-PVTZ
    Blend: AUG-CC-PVTZ
  Basis Set: (AUG-CC-PVTZ AUX)
    Blend: AUG-CC-PVTZ-JKFIT + DEF2-UNIVERSAL-JKFIT
  @DF-RHF Final Energy:    -7.23638478414104
    Total Energy =                         -7.2363847841410367
  Basis Set: (AUG-CC-PVTZ AUX)
	 Singles Energy            =      -0.0000000000000000 [Eh]
	 Same-Spin Energy          =       0.0000000000000000 [Eh]
	 Opposite-Spin Energy      =      -0.0166744292833120 [Eh]
	 Correlation Energy        =      -0.0166744292833120 [Eh]
	 Total Energy              =      -7.2530592134243497 [Eh]
	 SCS Total Energy          =      -7.2563940992810121 [Eh]
                               Psi4 1.9 release
    Molecular point group: c1

    Geometry (in Bohr), charge = 1, multiplicity = 1:

       Center              X                  Y                   Z               Mass
    ------------   -----------------  -----------------  -----------------  -----------------
         LI           0.000000000000     0.000000000000     0.000000000000     7.016003436600
         O           -0.503504298045     3.662880715415    -0.469294585996    15.994914619570
         H           -0.166893052496     4.933339810108    -1.750411736037     1.007825032230
         H           -1.673583030680     4.540057567782     0.641441077121     1.007825032230
         O           -2.467190524601    -1.968990687790    -2.253942490248    15.994914619570
         H           -3.051703602193    -3.586889158732    -1.700679813593     1.007825032230
         H           -1.598285003485    -2.181416691279    -3.780805294821     1.007825032230
         O            3.904380155344    -0.942708774946    -0.549044807943    15.994914619570
         H            4.957753181922    -1.228669691155     0.944197879133     1.007825032230
         H            4.759120289423    -1.629217930433    -1.959099861250     1.007825032230
         O           -0.188770411850    -1.485680003121     3.121755749664    15.994914619570
         H            0.687540945951    -3.003203781183     3.626293727900     1.007825032230
         H           -1.925481633478    -1.716241708236     3.673480189252     1.007825032230

  Charge       = 1
  Multiplicity = 1
  Basis Set: AUG-CC-PVTZ
    Blend: AUG-CC-PVTZ
  Basis Set: (AUG-CC-PVTZ AUX)
    Blend: AUG-CC-PVTZ-JKFIT + DEF2-UNIVERSAL-JKFIT

    Orbital Energies [Eh]
    ---------------------

    Doubly Occupied:

       1A    -20.757295     2A    -20.741041     3A    -20.740868
       4A    -20.737026     5A     -2.536130     6A     -1.545130
       7A     -1.537735     8A     -1.523560     9A     -1.522471
      10A     -0.911613    11A     -0.908364    12A     -0.892166
      13A     -0.878727    14A     -0.799818    15A     -0.785074
      16A     -0.770688    17A     -0.763717    18A     -0.715707
      19A     -0.691922    20A     -0.686967    21A     -0.682501

  @DF-RHF Final Energy:  -311.62837519332993

   => Energetics <=

    Nuclear Repulsion Energy =            160.0941061790170465
    One-Electron Energy =                -741.1879175345034128
    Two-Electron Energy =                 269.4654361621564931
    Total Energy =                       -311.6283751933299300
 Dipole X            :         -7.7190064            7.9477875            0.2287811
 Dipole Y            :          8.8336001           -9.7482316           -0.9146315
 Dipole Z            :          1.5242015           -1.5097929            0.0144086
 Magnitude           :                                                    0.9429206
  Basis Set: (AUG-CC-PVTZ AUX)
    Blend: AUG-CC-PVTZ-RI + DEF2-QZVPP-RI
	 Reference Energy          =    -311.6283751933299300 [Eh]
	 Singles Energy            =      -0.0000000000000000 [Eh]
	 Same-Spin Energy          =      -0.2749577600904694 [Eh]
	 Opposite-Spin Energy      =      -0.8773050321916833 [Eh]
	 Correlation Energy        =      -1.1522627922821527 [Eh]
	 Total Energy              =    -312.7806379856120884 [Eh]

	 ================> DF-SCS-MP2 Energies <==================
	-----------------------------------------------------------
	 SCS Same-Spin Scale       =       0.3333333333333333 [-]
	 SCS Opposite-Spin Scale   =       1.2000000000000000 [-]
	 SCS Same-Spin Energy      =      -0.0916525866968231 [Eh]
	 SCS Opposite-Spin Energy  =      -1.0527660386300199 [Eh]
	 SCS Correlation Energy    =      -1.1444186253268431 [Eh]
	 SCS Total Energy          =    -312.7727938186567940 [Eh]
	-----------------------------------------------------------

*** Psi4 exiting successfully. Buy a developer a beer!
