                               Psi4 1.8.2 release

  ==> Input File <==

--------------------------------------------------------------------------
MEMORY 60 GB

molecule dimer {
1 1
Li         0.000000     0.000000     0.000000
Gh(O)      1.362177     0.494903    -1.256822
Gh(H)      1.833323    -0.139138    -1.763691
Gh(H)      2.031082     1.092765    -0.979248
Gh(O)     -1.382938    -0.607154    -1.085086
Gh(H)     -1.865008     0.071796    -1.477591
Gh(H)     -1.178693    -1.330940    -1.688702
Gh(O)      0.262721    -1.170129     1.291731
Gh(H)      1.058433    -1.126622     1.806015
Gh(H)      0.186388    -2.100896     1.196103
Gh(O)     -0.396836     1.829554     0.256520
Gh(H)     -0.272323     2.420521     0.947354
Gh(H)     -0.490326     2.381443    -0.505406

units ang
no_reorient
no_com
symmetry c1
}

set {
basis        aug-cc-pVTZ
scf_type     df
}

energy("mp2")
--------------------------------------------------------------------------

    Molecular point group: c1

    Geometry (in Angstrom), charge = 1, multiplicity = 1:

       Center              X                  Y                   Z               Mass
    ------------   -----------------  -----------------  -----------------  -----------------
         LI           0.000000000000     0.000000000000     0.000000000000     7.016003436600
      Gh(O)           1.362177000000     0.494903000000    -1.256822000000    15.994914619570
      Gh(H)           1.833323000000    -0.139138000000    -1.763691000000     1.007825032230
      Gh(H)           2.031082000000     1.092765000000    -0.979248000000     1.007825032230
      Gh(O)          -1.382938000000    -0.607154000000    -1.085086000000    15.994914619570
      Gh(H)          -1.865008000000     0.071796000000    -1.477591000000     1.007825032230
      Gh(H)          -1.178693000000    -1.330940000000    -1.688702000000     1.007825032230
      Gh(O)           0.262721000000    -1.170129000000     1.291731000000    15.994914619570
      Gh(H)           1.058433000000    -1.126622000000     1.806015000000     1.007825032230
      Gh(H)           0.186388000000    -2.100896000000     1.196103000000     1.007825032230
      Gh(O)          -0.396836000000     1.829554000000     0.256520000000    15.994914619570
      Gh(H)          -0.272323000000     2.420521000000     0.947354000000     1.007825032230
      Gh(H)          -0.490326000000     2.381443000000    -0.505406000000     1.007825032230

  Charge       = 1
  Multiplicity = 1
  Basis Set: AUG-CC-PVTZ
    Blend: AUG-CC-PVTZ
  Basis Set: (AUG-CC-PVTZ AUX)
    Blend: AUG-CC-PVTZ-JKFIT + DEF2-UNIVERSAL-JKFIT

    Orbital Energies [Eh]
    ---------------------

    Doubly Occupied:

       1A     -2.792351

  @DF-RHF Final Energy:    -7.23638496582840

   => Energetics <=

    Nuclear Repulsion Energy =              0.0000000000000000
    One-Electron Energy =                  -8.8880673035955606
    Two-Electron Energy =                   1.6516823377671557
    Total Energy =                         -7.2363849658284050
 Dipole X            :          0.0000019            0.0000000            0.0000019
 Dipole Y            :          0.0000040            0.0000000            0.0000040
 Dipole Z            :          0.0000031            0.0000000            0.0000031
 Magnitude           :                                                    0.0000055
  Basis Set: (AUG-CC-PVTZ AUX)
    Blend: AUG-CC-PVTZ-RI + DEF2-QZVPP-RI
	 Reference Energy          =      -7.2363849658284050 [Eh]
	 Singles Energy            =      -0.0000000000000000 [Eh]
	 Same-Spin Energy          =       0.0000000000000000 [Eh]
	 Opposite-Spin Energy      =      -0.0180296878192434 [Eh]
	 Correlation Energy        =      -0.0180296878192434 [Eh]
	 Total Energy              =      -7.2544146536476486 [Eh]

	 ================> DF-SCS-MP2 Energies <==================
	-----------------------------------------------------------
	 SCS Same-Spin Scale       =       0.3333333333333333 [-]
	 SCS Opposite-Spin Scale   =       1.2000000000000000 [-]
	 SCS Same-Spin Energy      =       0.0000000000000000 [Eh]
	 SCS Opposite-Spin Energy  =      -0.0216356253830921 [Eh]
	 SCS Correlation Energy    =      -0.0216356253830921 [Eh]
	 SCS Total Energy          =      -7.2580205912114968 [Eh]
	-----------------------------------------------------------

*** Psi4 exiting successfully. Buy a developer a beer!
