                               Psi4 1.8.2 release

  ==> Input File <==

--------------------------------------------------------------------------
MEMORY 60 GB

molecule dimer {
1 1
Li         0.000000     0.000000     0.000000
Gh(O)      1.865459    -0.354169     0.201545
Gh(H)      2.093877    -0.548368     1.130116
Gh(H)      2.178545    -1.139580    -0.260272
Gh(O)      0.175866     1.813815     0.284345
Gh(H)     -0.515507     2.243153     0.826268
Gh(H)      0.889311     1.834078     0.952204
Gh(O)     -0.923465    -0.274645    -1.649009
Gh(H)     -0.830755     0.486977    -2.218102
Gh(H)     -1.826401    -0.476768    -1.767965
Gh(O)     -1.217772    -1.202794     1.092934
Gh(H)     -1.879809    -1.607959     0.562364
Gh(H)     -1.655044    -0.939992     1.956239

units ang
no_reorient
no_com
symmetry c1
}

set {
basis        aug-cc-pVTZ
scf_type     df
}

energy("mp2")
--------------------------------------------------------------------------

    Molecular point group: c1

    Geometry (in Angstrom), charge = 1, multiplicity = 1:

       Center              X                  Y                   Z               Mass
    ------------   -----------------  -----------------  -----------------  -----------------
         LI           0.000000000000     0.000000000000     0.000000000000     7.016003436600
      Gh(O)           1.865459000000    -0.354169000000     0.201545000000    15.994914619570
      Gh(H)           2.093877000000    -0.548368000000     1.130116000000     1.007825032230
      Gh(H)           2.178545000000    -1.139580000000    -0.260272000000     1.007825032230
      Gh(O)           0.175866000000     1.813815000000     0.284345000000    15.994914619570
      Gh(H)          -0.515507000000     2.243153000000     0.826268000000     1.007825032230
      Gh(H)           0.889311000000     1.834078000000     0.952204000000     1.007825032230
      Gh(O)          -0.923465000000    -0.274645000000    -1.649009000000    15.994914619570
      Gh(H)          -0.830755000000     0.486977000000    -2.218102000000     1.007825032230
      Gh(H)          -1.826401000000    -0.476768000000    -1.767965000000     1.007825032230
      Gh(O)          -1.217772000000    -1.202794000000     1.092934000000    15.994914619570
      Gh(H)          -1.879809000000    -1.607959000000     0.562364000000     1.007825032230
      Gh(H)          -1.655044000000    -0.939992000000     1.956239000000     1.007825032230

  Charge       = 1
  Multiplicity = 1
  Basis Set: AUG-CC-PVTZ
    Blend: AUG-CC-PVTZ
  Basis Set: (AUG-CC-PVTZ AUX)
    Blend: AUG-CC-PVTZ-JKFIT + DEF2-UNIVERSAL-JKFIT

    Orbital Energies [Eh]
    ---------------------

    Doubly Occupied:

       1A     -2.792352

  @DF-RHF Final Energy:    -7.23638492991790

   => Energetics <=

    Nuclear Repulsion Energy =              0.0000000000000000
    One-Electron Energy =                  -8.8880654639943426
    Two-Electron Energy =                   1.6516805340764449
    Total Energy =                         -7.2363849299178975
 Dipole X            :         -0.0000055            0.0000000           -0.0000055
 Dipole Y            :         -0.0000038            0.0000000           -0.0000038
 Dipole Z            :          0.0000012            0.0000000            0.0000012
 Magnitude           :                                                    0.0000067
  Basis Set: (AUG-CC-PVTZ AUX)
    Blend: AUG-CC-PVTZ-RI + DEF2-QZVPP-RI
	 Reference Energy          =      -7.2363849299178975 [Eh]
	 Singles Energy            =      -0.0000000000000000 [Eh]
	 Same-Spin Energy          =       0.0000000000000000 [Eh]
	 Opposite-Spin Energy      =      -0.0173385271674391 [Eh]
	 Correlation Energy        =      -0.0173385271674391 [Eh]
	 Total Energy              =      -7.2537234570853366 [Eh]

	 ================> DF-SCS-MP2 Energies <==================
	-----------------------------------------------------------
	 SCS Same-Spin Scale       =       0.3333333333333333 [-]
	 SCS Opposite-Spin Scale   =       1.2000000000000000 [-]
	 SCS Same-Spin Energy      =       0.0000000000000000 [Eh]
	 SCS Opposite-Spin Energy  =      -0.0208062326009270 [Eh]
	 SCS Correlation Energy    =      -0.0208062326009270 [Eh]
	 SCS Total Energy          =      -7.2571911625188248 [Eh]
	-----------------------------------------------------------

*** Psi4 exiting successfully. Buy a developer a beer!
