                               Psi4 1.8.2 release

  ==> Input File <==

--------------------------------------------------------------------------
MEMORY 60 GB

molecule dimer {
1 1
Li         0.000000     0.000000     0.000000
O          1.133636     1.160128     1.243272
H          1.434853     0.831187     2.107622
H          1.945824     1.527758     0.841027
O         -0.306541     1.258901    -1.187418
H          0.454497     1.234098    -1.696850
H         -0.979760     1.240604    -1.874525
O          1.574698    -0.881807    -0.658457
H          1.954431    -1.193772    -1.507817
H          2.305375    -0.692560    -0.134613
O         -1.760856    -0.323595     1.014546
H         -1.586028    -0.713078     1.866818
H         -2.486655    -0.870309     0.629301

units ang
no_reorient
no_com
symmetry c1
}

set {
basis        aug-cc-pVTZ
scf_type     df
}

energy("mp2")
--------------------------------------------------------------------------

    Molecular point group: c1

    Geometry (in Angstrom), charge = 1, multiplicity = 1:

       Center              X                  Y                   Z               Mass
    ------------   -----------------  -----------------  -----------------  -----------------
         LI           0.000000000000     0.000000000000     0.000000000000     7.016003436600
         O            1.133636000000     1.160128000000     1.243272000000    15.994914619570
         H            1.434853000000     0.831187000000     2.107622000000     1.007825032230
         H            1.945824000000     1.527758000000     0.841027000000     1.007825032230
         O           -0.306541000000     1.258901000000    -1.187418000000    15.994914619570
         H            0.454497000000     1.234098000000    -1.696850000000     1.007825032230
         H           -0.979760000000     1.240604000000    -1.874525000000     1.007825032230
         O            1.574698000000    -0.881807000000    -0.658457000000    15.994914619570
         H            1.954431000000    -1.193772000000    -1.507817000000     1.007825032230
         H            2.305375000000    -0.692560000000    -0.134613000000     1.007825032230
         O           -1.760856000000    -0.323595000000     1.014546000000    15.994914619570
         H           -1.586028000000    -0.713078000000     1.866818000000     1.007825032230
         H           -2.486655000000    -0.870309000000     0.629301000000     1.007825032230

  Charge       = 1
  Multiplicity = 1
  Basis Set: AUG-CC-PVTZ
    Blend: AUG-CC-PVTZ
  Basis Set: (AUG-CC-PVTZ AUX)
    Blend: AUG-CC-PVTZ-JKFIT + DEF2-UNIVERSAL-JKFIT

    Orbital Energies [Eh]
    ---------------------

    Doubly Occupied:

       1A    -20.761016     2A    -20.748363     3A    -20.745297
       4A    -20.741097     5A     -2.533383     6A     -1.562314
       7A     -1.556751     8A     -1.528257     9A     -1.522652
      10A     -0.922906    11A     -0.909723    12A     -0.887762
      13A     -0.883023    14A     -0.811973    15A     -0.807028
      16A     -0.771067    17A     -0.765202    18A     -0.723791
      19A     -0.704362    20A     -0.692639    21A     -0.688105

  @DF-RHF Final Energy:  -311.61258538277849

   => Energetics <=

    Nuclear Repulsion Energy =            166.3550299829138055
    One-Electron Energy =                -753.4018029806378536
    Two-Electron Energy =                 275.4341876149455288
    Total Energy =                       -311.6125853827784908
 Dipole X            :        -14.1923175           15.4391248            1.2468073
 Dipole Y            :        -21.4569604           20.9248316           -0.5321288
 Dipole Z            :         -7.0400536            6.6641324           -0.3759212
 Magnitude           :                                                    1.4067716
  Basis Set: (AUG-CC-PVTZ AUX)
    Blend: AUG-CC-PVTZ-RI + DEF2-QZVPP-RI
	 Reference Energy          =    -311.6125853827784908 [Eh]
	 Singles Energy            =      -0.0000000000000000 [Eh]
	 Same-Spin Energy          =      -0.2761826370698178 [Eh]
	 Opposite-Spin Energy      =      -0.8795944666713265 [Eh]
	 Correlation Energy        =      -1.1557771037411442 [Eh]
	 Total Energy              =    -312.7683624865196634 [Eh]

	 ================> DF-SCS-MP2 Energies <==================
	-----------------------------------------------------------
	 SCS Same-Spin Scale       =       0.3333333333333333 [-]
	 SCS Opposite-Spin Scale   =       1.2000000000000000 [-]
	 SCS Same-Spin Energy      =      -0.0920608790232726 [Eh]
	 SCS Opposite-Spin Energy  =      -1.0555133600055917 [Eh]
	 SCS Correlation Energy    =      -1.1475742390288644 [Eh]
	 SCS Total Energy          =    -312.7601596218073610 [Eh]
	-----------------------------------------------------------

*** Psi4 exiting successfully. Buy a developer a beer!
