                               Psi4 1.9 release

  ==> Input File <==

--------------------------------------------------------------------------
MEMORY 60 GB

molecule dimer {
1 1
Li     0.000000     0.000000     0.000000
--
0 1
O     -1.032842     0.396425    -1.658178
H     -1.279584     0.014094    -2.509117
H     -1.562276     1.236030    -1.642107
O     -0.418356     0.747917     1.594078
H      0.358018     0.959903     2.183691
H     -0.999293     1.461192     1.564220
O      1.442274     1.084928    -0.518287
H      1.966751     1.852884    -0.286094
H      1.473632     0.916597    -1.471009
O      0.031737    -1.911179     0.426641
H      0.902421    -2.258501     0.761336
H     -0.721623    -2.124603     0.942511

units ang
no_reorient
no_com
symmetry c1
}

set {
basis        aug-cc-pVTZ
scf_type     df
}

energy("mp2", bsse_type="cp")
--------------------------------------------------------------------------

                               Psi4 1.9 release
    Molecular point group: c1
  Charge       = 0
  Multiplicity = 1
  Basis Set: AUG-CC-PVTZ
    Blend: AUG-CC-PVTZ
  Basis Set: (AUG-CC-PVTZ AUX)
    Blend: AUG-CC-PVTZ-JKFIT + DEF2-UNIVERSAL-JKFIT
  @DF-RHF Final Energy:  -304.20644897397051
    Total Energy =                       -304.2064489739705095
 Dipole X            :         -0.5900875            0.6057517            0.0156642
 Dipole Y            :         -7.7970983            8.6971319            0.9000336
 Dipole Z            :          3.1033580           -3.2173286           -0.1139707
 Magnitude           :                                                    0.9073562
  Basis Set: (AUG-CC-PVTZ AUX)
    Blend: AUG-CC-PVTZ-RI + DEF2-QZVPP-RI
	 Reference Energy          =    -304.2064489739705095 [Eh]
	 Singles Energy            =      -0.0000000000000000 [Eh]
	 Same-Spin Energy          =      -0.2778891861504256 [Eh]
	 Opposite-Spin Energy      =      -0.8700249310108181 [Eh]
	 Correlation Energy        =      -1.1479141171612437 [Eh]
	 Total Energy              =    -305.3543630911317450 [Eh]
	 SCS Total Energy          =    -305.3431086199003062 [Eh]
                               Psi4 1.9 release
    Molecular point group: c1
  Multiplicity = 1
  Basis Set: AUG-CC-PVTZ
    Blend: AUG-CC-PVTZ
  Basis Set: (AUG-CC-PVTZ AUX)
    Blend: AUG-CC-PVTZ-JKFIT + DEF2-UNIVERSAL-JKFIT
  @DF-RHF Final Energy:    -7.23638493042906
    Total Energy =                         -7.2363849304290593
  Basis Set: (AUG-CC-PVTZ AUX)
	 Singles Energy            =      -0.0000000000000000 [Eh]
	 Same-Spin Energy          =       0.0000000000000000 [Eh]
	 Opposite-Spin Energy      =      -0.0175040065347395 [Eh]
	 Correlation Energy        =      -0.0175040065347395 [Eh]
	 Total Energy              =      -7.2538889369637989 [Eh]
	 SCS Total Energy          =      -7.2573897382707466 [Eh]
                               Psi4 1.9 release
    Molecular point group: c1

    Geometry (in Bohr), charge = 1, multiplicity = 1:

       Center              X                  Y                   Z               Mass
    ------------   -----------------  -----------------  -----------------  -----------------
         LI           0.000000000000     0.000000000000     0.000000000000     7.016003436600
         O           -1.951788510870     0.749134679285    -3.133502287259    15.994914619570
         H           -2.418063314518     0.026633800012    -4.741543946730     1.007825032230
         H           -2.952273772376     2.335758182850    -3.103132498697     1.007825032230
         O           -0.790578262942     1.413358294574     3.012370842618    15.994914619570
         H            0.676555967984     1.813953777005     4.126577932627     1.007825032230
         H           -1.888390089087     2.761252696710     2.955947399964     1.007825032230
         O            2.725502857869     2.050216785841    -0.979420484385    15.994914619570
         H            3.716620746970     3.501443302243    -0.540639306137     1.007825032230
         H            2.784760889711     1.732117297416    -2.779804138084     1.007825032230
         O            0.059974238044    -3.611604886726     0.806234643891    15.994914619570
         H            1.705328539862    -4.267948344073     1.438716529452     1.007825032230
         H           -1.363669835831    -4.014917795326     1.781087660231     1.007825032230

  Charge       = 1
  Multiplicity = 1
  Basis Set: AUG-CC-PVTZ
    Blend: AUG-CC-PVTZ
  Basis Set: (AUG-CC-PVTZ AUX)
    Blend: AUG-CC-PVTZ-JKFIT + DEF2-UNIVERSAL-JKFIT

    Orbital Energies [Eh]
    ---------------------

    Doubly Occupied:

       1A    -20.752051     2A    -20.748490     3A    -20.742942
       4A    -20.732390     5A     -2.522684     6A     -1.544729
       7A     -1.534164     8A     -1.528353     9A     -1.517106
      10A     -0.919126    11A     -0.911928    12A     -0.904702
      13A     -0.886409    14A     -0.794593    15A     -0.787283
      16A     -0.776752    17A     -0.749338    18A     -0.709884
      19A     -0.701377    20A     -0.684671    21A     -0.682915

  @DF-RHF Final Energy:  -311.61742593148062

   => Energetics <=

    Nuclear Repulsion Energy =            166.0048813663134695
    One-Electron Energy =                -752.9808381517699445
    Two-Electron Energy =                 275.3585308539758216
    Total Energy =                       -311.6174259314806250
 Dipole X            :         -0.5375312            0.6057517            0.0682205
 Dipole Y            :         -7.6440935            8.6971319            1.0530384
 Dipole Z            :          3.1196474           -3.2173286           -0.0976812
 Magnitude           :                                                    1.0597573
  Basis Set: (AUG-CC-PVTZ AUX)
    Blend: AUG-CC-PVTZ-RI + DEF2-QZVPP-RI
	 Reference Energy          =    -311.6174259314806250 [Eh]
	 Singles Energy            =      -0.0000000000000000 [Eh]
	 Same-Spin Energy          =      -0.2759766126947164 [Eh]
	 Opposite-Spin Energy      =      -0.8789398610096936 [Eh]
	 Correlation Energy        =      -1.1549164737044100 [Eh]
	 Total Energy              =    -312.7723424051850429 [Eh]

	 ================> DF-SCS-MP2 Energies <==================
	-----------------------------------------------------------
	 SCS Same-Spin Scale       =       0.3333333333333333 [-]
	 SCS Opposite-Spin Scale   =       1.2000000000000000 [-]
	 SCS Same-Spin Energy      =      -0.0919922042315721 [Eh]
	 SCS Opposite-Spin Energy  =      -1.0547278332116323 [Eh]
	 SCS Correlation Energy    =      -1.1467200374432045 [Eh]
	 SCS Total Energy          =    -312.7641459689238559 [Eh]
	-----------------------------------------------------------

*** Psi4 exiting successfully. Buy a developer a beer!
