                               Psi4 1.8.2 release

  ==> Input File <==

--------------------------------------------------------------------------
MEMORY 60 GB

molecule dimer {
1 1
Li         0.000000     0.000000     0.000000
O          1.466760     0.450408    -1.235185
H          2.148328     1.001972    -0.849832
H          1.104955     0.850723    -2.035762
O         -0.000372    -1.923700     0.069063
H         -0.093103    -2.125757    -0.874898
H         -0.820918    -2.233311     0.458196
O         -2.075430     0.042768    -0.218320
H         -2.709974    -0.583971    -0.554856
H         -2.436149     0.294869     0.600464
O          0.553120     0.728764     1.842899
H          1.471289     1.060141     1.753587
H          0.252809     1.353718     2.508178

units ang
no_reorient
no_com
symmetry c1
}

set {
basis        aug-cc-pVTZ
scf_type     df
}

energy("mp2")
--------------------------------------------------------------------------

    Molecular point group: c1

    Geometry (in Angstrom), charge = 1, multiplicity = 1:

       Center              X                  Y                   Z               Mass
    ------------   -----------------  -----------------  -----------------  -----------------
         LI           0.000000000000     0.000000000000     0.000000000000     7.016003436600
         O            1.466760000000     0.450408000000    -1.235185000000    15.994914619570
         H            2.148328000000     1.001972000000    -0.849832000000     1.007825032230
         H            1.104955000000     0.850723000000    -2.035762000000     1.007825032230
         O           -0.000372000000    -1.923700000000     0.069063000000    15.994914619570
         H           -0.093103000000    -2.125757000000    -0.874898000000     1.007825032230
         H           -0.820918000000    -2.233311000000     0.458196000000     1.007825032230
         O           -2.075430000000     0.042768000000    -0.218320000000    15.994914619570
         H           -2.709974000000    -0.583971000000    -0.554856000000     1.007825032230
         H           -2.436149000000     0.294869000000     0.600464000000     1.007825032230
         O            0.553120000000     0.728764000000     1.842899000000    15.994914619570
         H            1.471289000000     1.060141000000     1.753587000000     1.007825032230
         H            0.252809000000     1.353718000000     2.508178000000     1.007825032230

  Charge       = 1
  Multiplicity = 1
  Basis Set: AUG-CC-PVTZ
    Blend: AUG-CC-PVTZ
  Basis Set: (AUG-CC-PVTZ AUX)
    Blend: AUG-CC-PVTZ-JKFIT + DEF2-UNIVERSAL-JKFIT

    Orbital Energies [Eh]
    ---------------------

    Doubly Occupied:

       1A    -20.756137     2A    -20.755289     3A    -20.751052
       4A    -20.740639     5A     -2.549366     6A     -1.554067
       7A     -1.543667     8A     -1.538516     9A     -1.529584
      10A     -0.921610    11A     -0.913321    12A     -0.889717
      13A     -0.883219    14A     -0.800285    15A     -0.794864
      16A     -0.781951    17A     -0.765580    18A     -0.720763
      19A     -0.712326    20A     -0.698427    21A     -0.682219

  @DF-RHF Final Energy:  -311.61686684480856

   => Energetics <=

    Nuclear Repulsion Energy =            161.1811515248175226
    One-Electron Energy =                -743.0308368245883912
    Two-Electron Energy =                 270.2328184549622847
    Total Energy =                       -311.6168668448085555
 Dipole X            :          2.2463097           -2.8915436           -0.6452339
 Dipole Y            :         11.9592480          -11.3302234            0.6290246
 Dipole Z            :         -8.7088198            8.8301856            0.1213658
 Magnitude           :                                                    0.9092461
  Basis Set: (AUG-CC-PVTZ AUX)
    Blend: AUG-CC-PVTZ-RI + DEF2-QZVPP-RI
	 Reference Energy          =    -311.6168668448085555 [Eh]
	 Singles Energy            =      -0.0000000000000000 [Eh]
	 Same-Spin Energy          =      -0.2754166138481475 [Eh]
	 Opposite-Spin Energy      =      -0.8782315111533385 [Eh]
	 Correlation Energy        =      -1.1536481250014861 [Eh]
	 Total Energy              =    -312.7705149698100513 [Eh]

	 ================> DF-SCS-MP2 Energies <==================
	-----------------------------------------------------------
	 SCS Same-Spin Scale       =       0.3333333333333333 [-]
	 SCS Opposite-Spin Scale   =       1.2000000000000000 [-]
	 SCS Same-Spin Energy      =      -0.0918055379493825 [Eh]
	 SCS Opposite-Spin Energy  =      -1.0538778133840061 [Eh]
	 SCS Correlation Energy    =      -1.1456833513333886 [Eh]
	 SCS Total Energy          =    -312.7625501961419445 [Eh]
	-----------------------------------------------------------

*** Psi4 exiting successfully. Buy a developer a beer!
