                               Psi4 1.8.2 release

  ==> Input File <==

--------------------------------------------------------------------------
MEMORY 60 GB

molecule dimer {
0 1
Gh(Li)     0.000000     0.000000     0.000000
Gh(O)      1.891419    -0.158379     0.528671
Gh(H)      2.349768    -0.987879     0.327543
Gh(H)      1.829373    -0.013513     1.475622
O         -0.554841     1.482555     1.052622
H         -0.087815     1.879686     1.842708
H         -0.786767     2.214477     0.472406
Gh(O)     -0.527123    -0.402664    -1.792316
Gh(H)     -0.769570     0.305457    -2.402126
Gh(H)     -0.735432    -1.286504    -2.275183

units ang
no_reorient
no_com
symmetry c1
}

set {
basis        aug-cc-pVTZ
scf_type     df
}

energy("mp2")
--------------------------------------------------------------------------

    Molecular point group: c1

    Geometry (in Angstrom), charge = 0, multiplicity = 1:

       Center              X                  Y                   Z               Mass
    ------------   -----------------  -----------------  -----------------  -----------------
      Gh(LI)          0.000000000000     0.000000000000     0.000000000000     7.016003436600
      Gh(O)           1.891419000000    -0.158379000000     0.528671000000    15.994914619570
      Gh(H)           2.349768000000    -0.987879000000     0.327543000000     1.007825032230
      Gh(H)           1.829373000000    -0.013513000000     1.475622000000     1.007825032230
         O           -0.554841000000     1.482555000000     1.052622000000    15.994914619570
         H           -0.087815000000     1.879686000000     1.842708000000     1.007825032230
         H           -0.786767000000     2.214477000000     0.472406000000     1.007825032230
      Gh(O)          -0.527123000000    -0.402664000000    -1.792316000000    15.994914619570
      Gh(H)          -0.769570000000     0.305457000000    -2.402126000000     1.007825032230
      Gh(H)          -0.735432000000    -1.286504000000    -2.275183000000     1.007825032230

  Charge       = 0
  Multiplicity = 1
  Basis Set: AUG-CC-PVTZ
    Blend: AUG-CC-PVTZ
  Basis Set: (AUG-CC-PVTZ AUX)
    Blend: AUG-CC-PVTZ-JKFIT + DEF2-UNIVERSAL-JKFIT

    Orbital Energies [Eh]
    ---------------------

    Doubly Occupied:

       1A    -20.570083     2A     -1.340303     3A     -0.708838
       4A     -0.575976     5A     -0.507757

  @DF-RHF Final Energy:   -76.05740576268407

   => Energetics <=

    Nuclear Repulsion Energy =              8.9683902236084769
    One-Electron Energy =                -122.6456760153674850
    Two-Electron Energy =                  37.6198800290749347
    Total Energy =                        -76.0574057626840698
 Dipole X            :         10.1928137          -10.0407007            0.1521129
 Dipole Y            :        -29.4039378           30.1498301            0.7458923
 Dipole Z            :        -20.1549676           20.2882698            0.1333021
 Magnitude           :                                                    0.7728281
  Basis Set: (AUG-CC-PVTZ AUX)
    Blend: AUG-CC-PVTZ-RI + DEF2-QZVPP-RI
	 Reference Energy          =     -76.0574057626840698 [Eh]
	 Singles Energy            =      -0.0000000000000000 [Eh]
	 Same-Spin Energy          =      -0.0687888798681826 [Eh]
	 Opposite-Spin Energy      =      -0.2170163366166204 [Eh]
	 Correlation Energy        =      -0.2858052164848030 [Eh]
	 Total Energy              =     -76.3432109791688731 [Eh]

	 ================> DF-SCS-MP2 Energies <==================
	-----------------------------------------------------------
	 SCS Same-Spin Scale       =       0.3333333333333333 [-]
	 SCS Opposite-Spin Scale   =       1.2000000000000000 [-]
	 SCS Same-Spin Energy      =      -0.0229296266227275 [Eh]
	 SCS Opposite-Spin Energy  =      -0.2604196039399445 [Eh]
	 SCS Correlation Energy    =      -0.2833492305626720 [Eh]
	 SCS Total Energy          =     -76.3407549932467475 [Eh]
	-----------------------------------------------------------

*** Psi4 exiting successfully. Buy a developer a beer!
