                               Psi4 1.9 release

  ==> Input File <==

--------------------------------------------------------------------------
MEMORY 60 GB

molecule dimer {
1 1
Li     0.000000     0.000000     0.000000
--
0 1
O     -0.213290    -1.230877    -1.435922
H      0.319614    -1.433868    -2.244771
H     -1.116811    -1.240557    -1.761755
O      1.078055    -0.691540     1.605291
H      1.583124    -1.467147     1.345496
H      0.428738    -1.104788     2.246733
O      1.200353     1.386398    -0.738119
H      0.867414     1.714195    -1.599060
H      2.118436     1.242699    -0.916516
O     -1.635855     0.447985     0.979762
H     -1.749951     0.565313     1.919399
H     -2.276601     0.947984     0.463108

units ang
no_reorient
no_com
symmetry c1
}

set {
basis        aug-cc-pVTZ
scf_type     df
}

energy("mp2", bsse_type="cp")
--------------------------------------------------------------------------

                               Psi4 1.9 release
    Molecular point group: c1
  Charge       = 0
  Multiplicity = 1
  Basis Set: AUG-CC-PVTZ
    Blend: AUG-CC-PVTZ
  Basis Set: (AUG-CC-PVTZ AUX)
    Blend: AUG-CC-PVTZ-JKFIT + DEF2-UNIVERSAL-JKFIT
  @DF-RHF Final Energy:  -304.21269512962380
    Total Energy =                       -304.2126951296237394
 Dipole X            :         -7.2814085            6.8182585           -0.4631501
 Dipole Y            :          2.4525687           -2.7976280           -0.3450594
 Dipole Z            :         -6.0375099            5.1792291           -0.8582808
 Magnitude           :                                                    1.0345143
  Basis Set: (AUG-CC-PVTZ AUX)
    Blend: AUG-CC-PVTZ-RI + DEF2-QZVPP-RI
	 Reference Energy          =    -304.2126951296237962 [Eh]
	 Singles Energy            =      -0.0000000000000000 [Eh]
	 Same-Spin Energy          =      -0.2775142739490165 [Eh]
	 Opposite-Spin Energy      =      -0.8705022946513667 [Eh]
	 Correlation Energy        =      -1.1480165686003831 [Eh]
	 Total Energy              =    -305.3607116982241791 [Eh]
	 SCS Total Energy          =    -305.3498026411884325 [Eh]
                               Psi4 1.9 release
    Molecular point group: c1
  Multiplicity = 1
  Basis Set: AUG-CC-PVTZ
    Blend: AUG-CC-PVTZ
  Basis Set: (AUG-CC-PVTZ AUX)
    Blend: AUG-CC-PVTZ-JKFIT + DEF2-UNIVERSAL-JKFIT
  @DF-RHF Final Energy:    -7.23638487056487
    Total Energy =                         -7.2363848705648719
  Basis Set: (AUG-CC-PVTZ AUX)
	 Singles Energy            =      -0.0000000000000000 [Eh]
	 Same-Spin Energy          =      -0.0000000000000000 [Eh]
	 Opposite-Spin Energy      =      -0.0168764512438850 [Eh]
	 Correlation Energy        =      -0.0168764512438850 [Eh]
	 Total Energy              =      -7.2532613218087576 [Eh]
	 SCS Total Energy          =      -7.2566366120575347 [Eh]
                               Psi4 1.9 release
    Molecular point group: c1

    Geometry (in Bohr), charge = 1, multiplicity = 1:

       Center              X                  Y                   Z               Mass
    ------------   -----------------  -----------------  -----------------  -----------------
         LI           0.000000000000     0.000000000000     0.000000000000     7.016003436600
         O           -0.403059685299    -2.326020424125    -2.713499317520    15.994914619570
         H            0.603982925862    -2.709617820058    -4.242002404370     1.007825032230
         H           -2.110466923899    -2.344312973020    -3.329234450156     1.007825032230
         O            2.037228698180    -1.306821204799     3.033560341662    15.994914619570
         H            2.991670782639    -2.772506015787     2.542618942899     1.007825032230
         H            0.810197399577    -2.087746746692     4.245710047028     1.007825032230
         O            2.268338423872     2.619912520882    -1.394842757997    15.994914619570
         H            1.639174897388     3.239359075629    -3.021785458175     1.007825032230
         H            4.003263854310     2.348360766380    -1.731964229600     1.007825032230
         O           -3.091317930961     0.846568958313     1.851481848131    15.994914619570
         H           -3.306928122971     1.068286745161     3.627138435478     1.007825032230
         H           -4.302152386943     1.791430131316     0.875147286509     1.007825032230

  Charge       = 1
  Multiplicity = 1
  Basis Set: AUG-CC-PVTZ
    Blend: AUG-CC-PVTZ
  Basis Set: (AUG-CC-PVTZ AUX)
    Blend: AUG-CC-PVTZ-JKFIT + DEF2-UNIVERSAL-JKFIT

    Orbital Energies [Eh]
    ---------------------

    Doubly Occupied:

       1A    -20.761173     2A    -20.749809     3A    -20.743364
       4A    -20.740894     5A     -2.533799     6A     -1.543382
       7A     -1.538855     8A     -1.532104     9A     -1.517194
      10A     -0.921961    11A     -0.900086    12A     -0.888310
      13A     -0.867296    14A     -0.801817    15A     -0.786454
      16A     -0.778636    17A     -0.762203    18A     -0.716229
      19A     -0.700965    20A     -0.690476    21A     -0.685394

  @DF-RHF Final Energy:  -311.62272157828886

   => Energetics <=

    Nuclear Repulsion Energy =            161.6365023748956844
    One-Electron Energy =                -744.1976444226722833
    Two-Electron Energy =                 270.9384204694877099
    Total Energy =                       -311.6227215782888607
 Dipole X            :         -7.2510175            6.8182585           -0.4327590
 Dipole Y            :          2.4000369           -2.7976280           -0.3975911
 Dipole Z            :         -6.0702378            5.1792291           -0.8910087
 Magnitude           :                                                    1.0673591
  Basis Set: (AUG-CC-PVTZ AUX)
    Blend: AUG-CC-PVTZ-RI + DEF2-QZVPP-RI
	 Reference Energy          =    -311.6227215782888607 [Eh]
	 Singles Energy            =      -0.0000000000000000 [Eh]
	 Same-Spin Energy          =      -0.2758934513480389 [Eh]
	 Opposite-Spin Energy      =      -0.8799019050942061 [Eh]
	 Correlation Energy        =      -1.1557953564422450 [Eh]
	 Total Energy              =    -312.7785169347311012 [Eh]

	 ================> DF-SCS-MP2 Energies <==================
	-----------------------------------------------------------
	 SCS Same-Spin Scale       =       0.3333333333333333 [-]
	 SCS Opposite-Spin Scale   =       1.2000000000000000 [-]
	 SCS Same-Spin Energy      =      -0.0919644837826796 [Eh]
	 SCS Opposite-Spin Energy  =      -1.0558822861130472 [Eh]
	 SCS Correlation Energy    =      -1.1478467698957269 [Eh]
	 SCS Total Energy          =    -312.7705683481846108 [Eh]
	-----------------------------------------------------------

*** Psi4 exiting successfully. Buy a developer a beer!
