                               Psi4 1.9 release

  ==> Input File <==

--------------------------------------------------------------------------
MEMORY 60 GB

molecule dimer {
1 1
Li     0.000000     0.000000     0.000000
--
0 1
O      0.308611     1.799941     0.055027
H      1.189178     2.084602    -0.029819
H     -0.214343     2.315908    -0.579745
O     -1.239702    -0.176525     1.570107
H     -1.160882    -1.124504     1.682038
H     -1.287511     0.291488     2.423735
O     -1.080482    -0.705916    -1.358061
H     -1.739894    -0.042264    -1.524104
H     -1.505441    -1.545786    -1.482370
O      1.386436    -1.321672    -0.001936
H      1.809813    -1.499437     0.850115
H      2.170025    -1.008615    -0.549659

units ang
no_reorient
no_com
symmetry c1
}

set {
basis        aug-cc-pVTZ
scf_type     df
}

energy("mp2", bsse_type="cp")
--------------------------------------------------------------------------

                               Psi4 1.9 release
    Molecular point group: c1
  Charge       = 0
  Multiplicity = 1
  Basis Set: AUG-CC-PVTZ
    Blend: AUG-CC-PVTZ
  Basis Set: (AUG-CC-PVTZ AUX)
    Blend: AUG-CC-PVTZ-JKFIT + DEF2-UNIVERSAL-JKFIT
  @DF-RHF Final Energy:  -304.21357255512322
    Total Energy =                       -304.2135725551232213
 Dipole X            :         11.1800725          -10.8473133            0.3327592
 Dipole Y            :          7.2947039           -7.1091194            0.1855844
 Dipole Z            :         -5.3341743            5.5015351            0.1673608
 Magnitude           :                                                    0.4161489
  Basis Set: (AUG-CC-PVTZ AUX)
    Blend: AUG-CC-PVTZ-RI + DEF2-QZVPP-RI
	 Reference Energy          =    -304.2135725551232213 [Eh]
	 Singles Energy            =      -0.0000000000000000 [Eh]
	 Same-Spin Energy          =      -0.2775380549572357 [Eh]
	 Opposite-Spin Energy      =      -0.8696330756542707 [Eh]
	 Correlation Energy        =      -1.1471711306115064 [Eh]
	 Total Energy              =    -305.3607436857347466 [Eh]
	 SCS Total Energy          =    -305.3496449308941010 [Eh]
                               Psi4 1.9 release
    Molecular point group: c1
  Multiplicity = 1
  Basis Set: AUG-CC-PVTZ
    Blend: AUG-CC-PVTZ
  Basis Set: (AUG-CC-PVTZ AUX)
    Blend: AUG-CC-PVTZ-JKFIT + DEF2-UNIVERSAL-JKFIT
  @DF-RHF Final Energy:    -7.23638493866705
    Total Energy =                         -7.2363849386670456
  Basis Set: (AUG-CC-PVTZ AUX)
	 Singles Energy            =      -0.0000000000000000 [Eh]
	 Same-Spin Energy          =       0.0000000000000000 [Eh]
	 Opposite-Spin Energy      =      -0.0174773124524771 [Eh]
	 Correlation Energy        =      -0.0174773124524771 [Eh]
	 Total Energy              =      -7.2538622511195223 [Eh]
	 SCS Total Energy          =      -7.2573577136100180 [Eh]
                               Psi4 1.9 release
    Molecular point group: c1

    Geometry (in Bohr), charge = 1, multiplicity = 1:

       Center              X                  Y                   Z               Mass
    ------------   -----------------  -----------------  -----------------  -----------------
         LI           0.000000000000     0.000000000000     0.000000000000     7.016003436600
         O            0.583190269304     3.401395531983     0.103985959506    15.994914619570
         H            2.247220734420     3.939326860582    -0.056349743335     1.007825032230
         H           -0.405049566909     4.376431851757    -1.095559272604     1.007825032230
         O           -2.342697257182    -0.333583904296     2.967072217664    15.994914619570
         H           -2.193749043974    -2.125004586982     3.178591152613     1.007825032230
         H           -2.433043173514     0.550832488857     4.580195350687     1.007825032230
         O           -2.041815063487    -1.333987907579    -2.566363351665    15.994914619570
         H           -3.287923147327    -0.079867384966    -2.880139146715     1.007825032230
         H           -2.844871188035    -2.921112188567    -2.801273316595     1.007825032230
         O            2.619984330475    -2.497598107686    -0.003658509779    15.994914619570
         H            3.420050908293    -2.833525272378     1.606484525144     1.007825032230
         H            4.100752935397    -1.906006116029    -1.038704972393     1.007825032230

  Charge       = 1
  Multiplicity = 1
  Basis Set: AUG-CC-PVTZ
    Blend: AUG-CC-PVTZ
  Basis Set: (AUG-CC-PVTZ AUX)
    Blend: AUG-CC-PVTZ-JKFIT + DEF2-UNIVERSAL-JKFIT

    Orbital Energies [Eh]
    ---------------------

    Doubly Occupied:

       1A    -20.759004     2A    -20.757089     3A    -20.742721
       4A    -20.736399     5A     -2.524809     6A     -1.556740
       7A     -1.541735     8A     -1.533810     9A     -1.520454
      10A     -0.924095    11A     -0.908343    12A     -0.901501
      13A     -0.885102    14A     -0.802480    15A     -0.801857
      16A     -0.772372    17A     -0.755945    18A     -0.717535
      19A     -0.707236    20A     -0.697303    21A     -0.685276

  @DF-RHF Final Energy:  -311.62006212340623

   => Energetics <=

    Nuclear Repulsion Energy =            166.4649127039221810
    One-Electron Energy =                -753.7063339941597633
    Two-Electron Energy =                 275.6213591668313256
    Total Energy =                       -311.6200621234062282
 Dipole X            :         11.1126744          -10.8473133            0.2653611
 Dipole Y            :          7.2635256           -7.1091194            0.1544061
 Dipole Z            :         -5.2982941            5.5015351            0.2032410
 Magnitude           :                                                    0.3681911
  Basis Set: (AUG-CC-PVTZ AUX)
    Blend: AUG-CC-PVTZ-RI + DEF2-QZVPP-RI
	 Reference Energy          =    -311.6200621234062282 [Eh]
	 Singles Energy            =      -0.0000000000000000 [Eh]
	 Same-Spin Energy          =      -0.2758822817414217 [Eh]
	 Opposite-Spin Energy      =      -0.8791655056068006 [Eh]
	 Correlation Energy        =      -1.1550477873482223 [Eh]
	 Total Energy              =    -312.7751099107544519 [Eh]

	 ================> DF-SCS-MP2 Energies <==================
	-----------------------------------------------------------
	 SCS Same-Spin Scale       =       0.3333333333333333 [-]
	 SCS Opposite-Spin Scale   =       1.2000000000000000 [-]
	 SCS Same-Spin Energy      =      -0.0919607605804739 [Eh]
	 SCS Opposite-Spin Energy  =      -1.0549986067281607 [Eh]
	 SCS Correlation Energy    =      -1.1469593673086347 [Eh]
	 SCS Total Energy          =    -312.7670214907148534 [Eh]
	-----------------------------------------------------------

*** Psi4 exiting successfully. Buy a developer a beer!
