                               Psi4 1.8.2 release

  ==> Input File <==

--------------------------------------------------------------------------
MEMORY 60 GB

molecule dimer {
1 1
Li         0.000000     0.000000     0.000000
O          0.699917    -1.605590    -0.538374
H          0.331929    -2.479437    -0.070724
H          1.595037    -1.827290    -0.867616
O         -0.415776     0.409880     1.974965
H         -0.632469    -0.216349     2.683802
H         -1.094302     1.112373     2.095595
O          1.114874     1.438486    -0.655299
H          2.041900     1.265101    -0.736658
H          0.981857     2.289101    -0.189952
O         -1.728885     0.283644    -1.130470
H         -1.722627    -0.186960    -2.021005
H         -2.497560    -0.024047    -0.644402

units ang
no_reorient
no_com
symmetry c1
}

set {
basis        aug-cc-pVTZ
scf_type     df
}

energy("mp2")
--------------------------------------------------------------------------

    Molecular point group: c1

    Geometry (in Angstrom), charge = 1, multiplicity = 1:

       Center              X                  Y                   Z               Mass
    ------------   -----------------  -----------------  -----------------  -----------------
         LI           0.000000000000     0.000000000000     0.000000000000     7.016003436600
         O            0.699917000000    -1.605590000000    -0.538374000000    15.994914619570
         H            0.331929000000    -2.479437000000    -0.070724000000     1.007825032230
         H            1.595037000000    -1.827290000000    -0.867616000000     1.007825032230
         O           -0.415776000000     0.409880000000     1.974965000000    15.994914619570
         H           -0.632469000000    -0.216349000000     2.683802000000     1.007825032230
         H           -1.094302000000     1.112373000000     2.095595000000     1.007825032230
         O            1.114874000000     1.438486000000    -0.655299000000    15.994914619570
         H            2.041900000000     1.265101000000    -0.736658000000     1.007825032230
         H            0.981857000000     2.289101000000    -0.189952000000     1.007825032230
         O           -1.728885000000     0.283644000000    -1.130470000000    15.994914619570
         H           -1.722627000000    -0.186960000000    -2.021005000000     1.007825032230
         H           -2.497560000000    -0.024047000000    -0.644402000000     1.007825032230

  Charge       = 1
  Multiplicity = 1
  Basis Set: AUG-CC-PVTZ
    Blend: AUG-CC-PVTZ
  Basis Set: (AUG-CC-PVTZ AUX)
    Blend: AUG-CC-PVTZ-JKFIT + DEF2-UNIVERSAL-JKFIT

    Orbital Energies [Eh]
    ---------------------

    Doubly Occupied:

       1A    -20.763890     2A    -20.752438     3A    -20.737202
       4A    -20.735634     5A     -2.528794     6A     -1.530087
       7A     -1.525279     8A     -1.521613     9A     -1.508562
      10A     -0.899400    11A     -0.886726    12A     -0.883074
      13A     -0.876217    14A     -0.790676    15A     -0.784216
      16A     -0.768752    17A     -0.747713    18A     -0.706113
      19A     -0.698899    20A     -0.688707    21A     -0.678995

  @DF-RHF Final Energy:  -311.61451153186385

   => Energetics <=

    Nuclear Repulsion Energy =            160.4080964862068015
    One-Electron Energy =                -742.0192389423272061
    Two-Electron Energy =                 269.9966309242565785
    Total Energy =                       -311.6145115318638545
 Dipole X            :          6.6789385           -6.8695230           -0.1905845
 Dipole Y            :         -8.5619215            7.8307454           -0.7311761
 Dipole Z            :          5.3873270           -4.8081889            0.5791381
 Magnitude           :                                                    0.9520199
  Basis Set: (AUG-CC-PVTZ AUX)
    Blend: AUG-CC-PVTZ-RI + DEF2-QZVPP-RI
	 Reference Energy          =    -311.6145115318638545 [Eh]
	 Singles Energy            =      -0.0000000000000000 [Eh]
	 Same-Spin Energy          =      -0.2767150914895726 [Eh]
	 Opposite-Spin Energy      =      -0.8825276966490254 [Eh]
	 Correlation Energy        =      -1.1592427881385980 [Eh]
	 Total Energy              =    -312.7737543200024675 [Eh]

	 ================> DF-SCS-MP2 Energies <==================
	-----------------------------------------------------------
	 SCS Same-Spin Scale       =       0.3333333333333333 [-]
	 SCS Opposite-Spin Scale   =       1.2000000000000000 [-]
	 SCS Same-Spin Energy      =      -0.0922383638298575 [Eh]
	 SCS Opposite-Spin Energy  =      -1.0590332359788304 [Eh]
	 SCS Correlation Energy    =      -1.1512715998086880 [Eh]
	 SCS Total Energy          =    -312.7657831316725492 [Eh]
	-----------------------------------------------------------

*** Psi4 exiting successfully. Buy a developer a beer!
