                               Psi4 1.9 release

  ==> Input File <==

--------------------------------------------------------------------------
MEMORY 60 GB

molecule dimer {
1 1
Li     0.000000     0.000000     0.000000
--
0 1
O     -0.984691    -0.969052     1.267687
H     -1.298677    -0.512598     2.085258
H     -1.774992    -1.550102     1.066930
O      0.635689     1.405102     0.678468
H      1.386421     1.451552     1.210237
H     -0.135008     1.841375     1.074997
O      1.465994    -1.501291    -0.557694
H      1.460995    -2.365831    -0.942800
H      1.959287    -0.902242    -1.128803
O     -0.443803     0.020399    -1.936730
H     -0.816450    -0.798888    -2.251870
H     -1.133766     0.682308    -2.119070

units ang
no_reorient
no_com
symmetry c1
}

set {
basis        aug-cc-pVTZ
scf_type     df
}

energy("mp2", bsse_type="cp")
--------------------------------------------------------------------------

                               Psi4 1.9 release
    Molecular point group: c1
  Charge       = 0
  Multiplicity = 1
  Basis Set: AUG-CC-PVTZ
    Blend: AUG-CC-PVTZ
  Basis Set: (AUG-CC-PVTZ AUX)
    Blend: AUG-CC-PVTZ-JKFIT + DEF2-UNIVERSAL-JKFIT
  @DF-RHF Final Energy:  -304.21135859348550
    Total Energy =                       -304.2113585934854996
 Dipole X            :        -10.5480801            9.5116001           -1.0364800
 Dipole Y            :         19.8403707          -19.8669969           -0.0266262
 Dipole Z            :         10.2633930          -10.1880294            0.0753636
 Magnitude           :                                                    1.0395573
  Basis Set: (AUG-CC-PVTZ AUX)
    Blend: AUG-CC-PVTZ-RI + DEF2-QZVPP-RI
	 Reference Energy          =    -304.2113585934854996 [Eh]
	 Singles Energy            =      -0.0000000000000000 [Eh]
	 Same-Spin Energy          =      -0.2777350799445418 [Eh]
	 Opposite-Spin Energy      =      -0.8701077493878195 [Eh]
	 Correlation Energy        =      -1.1478428293323613 [Eh]
	 Total Energy              =    -305.3592014228178755 [Eh]
	 SCS Total Energy          =    -305.3480662527323943 [Eh]
                               Psi4 1.9 release
    Molecular point group: c1
  Multiplicity = 1
  Basis Set: AUG-CC-PVTZ
    Blend: AUG-CC-PVTZ
  Basis Set: (AUG-CC-PVTZ AUX)
    Blend: AUG-CC-PVTZ-JKFIT + DEF2-UNIVERSAL-JKFIT
  @DF-RHF Final Energy:    -7.23638489356717
    Total Energy =                         -7.2363848935671680
  Basis Set: (AUG-CC-PVTZ AUX)
	 Singles Energy            =      -0.0000000000000000 [Eh]
	 Same-Spin Energy          =      -0.0000000000000000 [Eh]
	 Opposite-Spin Energy      =      -0.0174632327886398 [Eh]
	 Correlation Energy        =      -0.0174632327886398 [Eh]
	 Total Energy              =      -7.2538481263558081 [Eh]
	 SCS Total Energy          =      -7.2573407729135360 [Eh]
                               Psi4 1.9 release
    Molecular point group: c1

    Geometry (in Bohr), charge = 1, multiplicity = 1:

       Center              X                  Y                   Z               Mass
    ------------   -----------------  -----------------  -----------------  -----------------
         LI           0.000000000000     0.000000000000     0.000000000000     7.016003436600
         O           -1.860796308203    -1.831242881327     2.395581242803    15.994914619570
         H           -2.454143855431    -0.968669832457     3.940566520920     1.007825032230
         H           -3.354248754879    -2.929268246524     2.016205495035     1.007825032230
         O            1.201278110966     2.655257958333     1.282118704887    15.994914619570
         H            2.619955984583     2.743035736861     2.287016476896     1.007825032230
         H           -0.255128144746     3.479694444265     2.031449915689     1.007825032230
         O            2.770327161564    -2.837028824615    -1.053888921811    15.994914619570
         H            2.760880420663    -4.470772649118    -1.781633791082     1.007825032230
         H            3.702515831170    -1.704990278885    -2.133128519595     1.007825032230
         O           -0.838666123657     0.038548523233    -3.659889278958    15.994914619570
         H           -1.542866895130    -1.509679524915    -4.255417570135     1.007825032230
         H           -2.142507230356     1.289375253209    -4.004461940674     1.007825032230

  Charge       = 1
  Multiplicity = 1
  Basis Set: AUG-CC-PVTZ
    Blend: AUG-CC-PVTZ
  Basis Set: (AUG-CC-PVTZ AUX)
    Blend: AUG-CC-PVTZ-JKFIT + DEF2-UNIVERSAL-JKFIT

    Orbital Energies [Eh]
    ---------------------

    Doubly Occupied:

       1A    -20.763466     2A    -20.760700     3A    -20.750152
       4A    -20.719452     5A     -2.529810     6A     -1.566641
       7A     -1.538447     8A     -1.534012     9A     -1.510340
      10A     -0.949042    11A     -0.898228    12A     -0.887235
      13A     -0.883624    14A     -0.804445    15A     -0.801349
      16A     -0.782852    17A     -0.742526    18A     -0.725709
      19A     -0.710636    20A     -0.699074    21A     -0.668334

  @DF-RHF Final Energy:  -311.60875566140714

   => Energetics <=

    Nuclear Repulsion Energy =            165.9586490485254444
    One-Electron Energy =                -752.6826628388606650
    Two-Electron Energy =                 275.1152581289280761
    Total Energy =                       -311.6087556614071445
 Dipole X            :        -10.5762328            9.5116001           -1.0646327
 Dipole Y            :         19.7341903          -19.8669969           -0.1328066
 Dipole Z            :         10.2665406          -10.1880294            0.0785112
 Magnitude           :                                                    1.0757530
  Basis Set: (AUG-CC-PVTZ AUX)
    Blend: AUG-CC-PVTZ-RI + DEF2-QZVPP-RI
	 Reference Energy          =    -311.6087556614071445 [Eh]
	 Singles Energy            =      -0.0000000000000000 [Eh]
	 Same-Spin Energy          =      -0.2760685066656864 [Eh]
	 Opposite-Spin Energy      =      -0.8795054547782025 [Eh]
	 Correlation Energy        =      -1.1555739614438889 [Eh]
	 Total Energy              =    -312.7643296228510508 [Eh]

	 ================> DF-SCS-MP2 Energies <==================
	-----------------------------------------------------------
	 SCS Same-Spin Scale       =       0.3333333333333333 [-]
	 SCS Opposite-Spin Scale   =       1.2000000000000000 [-]
	 SCS Same-Spin Energy      =      -0.0920228355552288 [Eh]
	 SCS Opposite-Spin Energy  =      -1.0554065457338431 [Eh]
	 SCS Correlation Energy    =      -1.1474293812890719 [Eh]
	 SCS Total Energy          =    -312.7561850426961882 [Eh]
	-----------------------------------------------------------

*** Psi4 exiting successfully. Buy a developer a beer!
