                               Psi4 1.8.2 release

  ==> Input File <==

--------------------------------------------------------------------------
MEMORY 60 GB

molecule dimer {
1 1
Li         0.000000     0.000000     0.000000
O          1.248744    -1.546356    -0.063915
H          1.572886    -2.181593    -0.699843
H          1.029516    -2.049213     0.724090
O          0.765829     1.000564     1.387872
H          0.151349     0.926457     2.100303
H          1.657507     0.667016     1.546448
O         -1.671574    -0.529749     0.598972
H         -1.713174    -1.282973     1.185456
H         -2.204628    -0.664548    -0.213532
O         -0.147700     1.539800    -1.361374
H          0.650302     2.003122    -1.769900
H         -0.810619     1.511850    -2.060867

units ang
no_reorient
no_com
symmetry c1
}

set {
basis        aug-cc-pVTZ
scf_type     df
}

energy("mp2")
--------------------------------------------------------------------------

    Molecular point group: c1

    Geometry (in Angstrom), charge = 1, multiplicity = 1:

       Center              X                  Y                   Z               Mass
    ------------   -----------------  -----------------  -----------------  -----------------
         LI           0.000000000000     0.000000000000     0.000000000000     7.016003436600
         O            1.248744000000    -1.546356000000    -0.063915000000    15.994914619570
         H            1.572886000000    -2.181593000000    -0.699843000000     1.007825032230
         H            1.029516000000    -2.049213000000     0.724090000000     1.007825032230
         O            0.765829000000     1.000564000000     1.387872000000    15.994914619570
         H            0.151349000000     0.926457000000     2.100303000000     1.007825032230
         H            1.657507000000     0.667016000000     1.546448000000     1.007825032230
         O           -1.671574000000    -0.529749000000     0.598972000000    15.994914619570
         H           -1.713174000000    -1.282973000000     1.185456000000     1.007825032230
         H           -2.204628000000    -0.664548000000    -0.213532000000     1.007825032230
         O           -0.147700000000     1.539800000000    -1.361374000000    15.994914619570
         H            0.650302000000     2.003122000000    -1.769900000000     1.007825032230
         H           -0.810619000000     1.511850000000    -2.060867000000     1.007825032230

  Charge       = 1
  Multiplicity = 1
  Basis Set: AUG-CC-PVTZ
    Blend: AUG-CC-PVTZ
  Basis Set: (AUG-CC-PVTZ AUX)
    Blend: AUG-CC-PVTZ-JKFIT + DEF2-UNIVERSAL-JKFIT

    Orbital Energies [Eh]
    ---------------------

    Doubly Occupied:

       1A    -20.762858     2A    -20.758083     3A    -20.739071
       4A    -20.733623     5A     -2.531194     6A     -1.550144
       7A     -1.547899     8A     -1.528030     9A     -1.510418
      10A     -0.928629    11A     -0.919911    12A     -0.913268
      13A     -0.872828    14A     -0.795777    15A     -0.788977
      16A     -0.770984    17A     -0.742491    18A     -0.724800
      19A     -0.704775    20A     -0.691772    21A     -0.681645

  @DF-RHF Final Energy:  -311.61618628679901

   => Energetics <=

    Nuclear Repulsion Energy =            164.3256223358322075
    One-Electron Energy =                -749.4892645272433356
    Two-Electron Energy =                 273.5474559046120930
    Total Energy =                       -311.6161862867990067
 Dipole X            :         -3.6129364            3.5820345           -0.0309019
 Dipole Y            :         -6.3275905            4.9967949           -1.3307956
 Dipole Z            :        -10.1516373           10.0242318           -0.1274055
 Magnitude           :                                                    1.3372374
  Basis Set: (AUG-CC-PVTZ AUX)
    Blend: AUG-CC-PVTZ-RI + DEF2-QZVPP-RI
	 Reference Energy          =    -311.6161862867990067 [Eh]
	 Singles Energy            =      -0.0000000000000000 [Eh]
	 Same-Spin Energy          =      -0.2759614190542153 [Eh]
	 Opposite-Spin Energy      =      -0.8792650771105315 [Eh]
	 Correlation Energy        =      -1.1552264961647469 [Eh]
	 Total Energy              =    -312.7714127829637505 [Eh]

	 ================> DF-SCS-MP2 Energies <==================
	-----------------------------------------------------------
	 SCS Same-Spin Scale       =       0.3333333333333333 [-]
	 SCS Opposite-Spin Scale   =       1.2000000000000000 [-]
	 SCS Same-Spin Energy      =      -0.0919871396847384 [Eh]
	 SCS Opposite-Spin Energy  =      -1.0551180925326378 [Eh]
	 SCS Correlation Energy    =      -1.1471052322173763 [Eh]
	 SCS Total Energy          =    -312.7632915190163772 [Eh]
	-----------------------------------------------------------

*** Psi4 exiting successfully. Buy a developer a beer!
