                               Psi4 1.8.2 release

  ==> Input File <==

--------------------------------------------------------------------------
MEMORY 60 GB

molecule dimer {
0 1
Gh(Li)     0.000000     0.000000     0.000000
O          1.858934    -0.623976    -0.526781
H          1.848269    -1.539102    -0.846784
H          2.660861    -0.574173     0.041889
Gh(O)     -0.075512     1.555018     1.114340
Gh(H)     -0.140334     2.353388     0.602470
Gh(H)      0.715955     1.755071     1.596003
Gh(O)     -0.507566     0.606809    -1.968779
Gh(H)     -0.605809    -0.214582    -2.524121
Gh(H)     -0.969069     1.265079    -2.433698
Gh(O)     -0.854187    -1.323968     1.103405
Gh(H)     -1.682373    -1.653239     0.783875
Gh(H)     -1.040480    -0.735892     1.855917

units ang
no_reorient
no_com
symmetry c1
}

set {
basis        aug-cc-pVTZ
scf_type     df
}

energy("mp2")
--------------------------------------------------------------------------

    Molecular point group: c1

    Geometry (in Angstrom), charge = 0, multiplicity = 1:

       Center              X                  Y                   Z               Mass
    ------------   -----------------  -----------------  -----------------  -----------------
      Gh(LI)          0.000000000000     0.000000000000     0.000000000000     7.016003436600
         O            1.858934000000    -0.623976000000    -0.526781000000    15.994914619570
         H            1.848269000000    -1.539102000000    -0.846784000000     1.007825032230
         H            2.660861000000    -0.574173000000     0.041889000000     1.007825032230
      Gh(O)          -0.075512000000     1.555018000000     1.114340000000    15.994914619570
      Gh(H)          -0.140334000000     2.353388000000     0.602470000000     1.007825032230
      Gh(H)           0.715955000000     1.755071000000     1.596003000000     1.007825032230
      Gh(O)          -0.507566000000     0.606809000000    -1.968779000000    15.994914619570
      Gh(H)          -0.605809000000    -0.214582000000    -2.524121000000     1.007825032230
      Gh(H)          -0.969069000000     1.265079000000    -2.433698000000     1.007825032230
      Gh(O)          -0.854187000000    -1.323968000000     1.103405000000    15.994914619570
      Gh(H)          -1.682373000000    -1.653239000000     0.783875000000     1.007825032230
      Gh(H)          -1.040480000000    -0.735892000000     1.855917000000     1.007825032230

  Charge       = 0
  Multiplicity = 1
  Basis Set: AUG-CC-PVTZ
    Blend: AUG-CC-PVTZ
  Basis Set: (AUG-CC-PVTZ AUX)
    Blend: AUG-CC-PVTZ-JKFIT + DEF2-UNIVERSAL-JKFIT

    Orbital Energies [Eh]
    ---------------------

    Doubly Occupied:

       1A    -20.570473     2A     -1.343691     3A     -0.706701
       4A     -0.581403     5A     -0.508785

  @DF-RHF Final Energy:   -76.05862766614760

   => Energetics <=

    Nuclear Repulsion Energy =              9.0101431789692228
    One-Electron Energy =                -122.7154348197462213
    Two-Electron Energy =                  37.6466639746294049
    Total Energy =                        -76.0586276661476006
 Dipole X            :        -36.1058168           36.6240299            0.5182131
 Dipole Y            :         12.8570895          -13.4266610           -0.5695715
 Dipole Z            :          9.6464513           -9.4848057            0.1616456
 Magnitude           :                                                    0.7868201
  Basis Set: (AUG-CC-PVTZ AUX)
    Blend: AUG-CC-PVTZ-RI + DEF2-QZVPP-RI
	 Reference Energy          =     -76.0586276661476006 [Eh]
	 Singles Energy            =      -0.0000000000000000 [Eh]
	 Same-Spin Energy          =      -0.0687699588832069 [Eh]
	 Opposite-Spin Energy      =      -0.2170099116006246 [Eh]
	 Correlation Energy        =      -0.2857798704838316 [Eh]
	 Total Energy              =     -76.3444075366314365 [Eh]

	 ================> DF-SCS-MP2 Energies <==================
	-----------------------------------------------------------
	 SCS Same-Spin Scale       =       0.3333333333333333 [-]
	 SCS Opposite-Spin Scale   =       1.2000000000000000 [-]
	 SCS Same-Spin Energy      =      -0.0229233196277356 [Eh]
	 SCS Opposite-Spin Energy  =      -0.2604118939207495 [Eh]
	 SCS Correlation Energy    =      -0.2833352135484852 [Eh]
	 SCS Total Energy          =     -76.3419628796960836 [Eh]
	-----------------------------------------------------------

*** Psi4 exiting successfully. Buy a developer a beer!
