                               Psi4 1.8.2 release

  ==> Input File <==

--------------------------------------------------------------------------
MEMORY 60 GB

molecule dimer {
1 1
Li         0.000000     0.000000     0.000000
Gh(O)      0.834436    -0.241329    -1.578276
Gh(H)      1.191917    -1.111872    -1.723723
Gh(H)      1.469698     0.437227    -1.857302
Gh(O)     -1.157150    -1.678256     0.354050
Gh(H)     -2.090219    -1.865260     0.521759
Gh(H)     -0.712408    -2.505514     0.115149
Gh(O)     -1.517712     1.412924    -0.255778
Gh(H)     -1.084382     2.261262    -0.283873
Gh(H)     -1.989995     1.420311     0.576573
Gh(O)      0.904310     1.187102     1.315687
Gh(H)      1.168203     0.886967     2.209891
Gh(H)      0.442074     1.996661     1.434603

units ang
no_reorient
no_com
symmetry c1
}

set {
basis        aug-cc-pVTZ
scf_type     df
}

energy("mp2")
--------------------------------------------------------------------------

    Molecular point group: c1

    Geometry (in Angstrom), charge = 1, multiplicity = 1:

       Center              X                  Y                   Z               Mass
    ------------   -----------------  -----------------  -----------------  -----------------
         LI           0.000000000000     0.000000000000     0.000000000000     7.016003436600
      Gh(O)           0.834436000000    -0.241329000000    -1.578276000000    15.994914619570
      Gh(H)           1.191917000000    -1.111872000000    -1.723723000000     1.007825032230
      Gh(H)           1.469698000000     0.437227000000    -1.857302000000     1.007825032230
      Gh(O)          -1.157150000000    -1.678256000000     0.354050000000    15.994914619570
      Gh(H)          -2.090219000000    -1.865260000000     0.521759000000     1.007825032230
      Gh(H)          -0.712408000000    -2.505514000000     0.115149000000     1.007825032230
      Gh(O)          -1.517712000000     1.412924000000    -0.255778000000    15.994914619570
      Gh(H)          -1.084382000000     2.261262000000    -0.283873000000     1.007825032230
      Gh(H)          -1.989995000000     1.420311000000     0.576573000000     1.007825032230
      Gh(O)           0.904310000000     1.187102000000     1.315687000000    15.994914619570
      Gh(H)           1.168203000000     0.886967000000     2.209891000000     1.007825032230
      Gh(H)           0.442074000000     1.996661000000     1.434603000000     1.007825032230

  Charge       = 1
  Multiplicity = 1
  Basis Set: AUG-CC-PVTZ
    Blend: AUG-CC-PVTZ
  Basis Set: (AUG-CC-PVTZ AUX)
    Blend: AUG-CC-PVTZ-JKFIT + DEF2-UNIVERSAL-JKFIT

    Orbital Energies [Eh]
    ---------------------

    Doubly Occupied:

       1A     -2.792354

  @DF-RHF Final Energy:    -7.23638479994715

   => Energetics <=

    Nuclear Repulsion Energy =              0.0000000000000000
    One-Electron Energy =                  -8.8880621457537892
    Two-Electron Energy =                   1.6516773458066372
    Total Energy =                         -7.2363847999471522
 Dipole X            :         -0.0000086            0.0000000           -0.0000086
 Dipole Y            :          0.0000075            0.0000000            0.0000075
 Dipole Z            :          0.0000110            0.0000000            0.0000110
 Magnitude           :                                                    0.0000159
  Basis Set: (AUG-CC-PVTZ AUX)
    Blend: AUG-CC-PVTZ-RI + DEF2-QZVPP-RI
	 Reference Energy          =      -7.2363847999471522 [Eh]
	 Singles Energy            =      -0.0000000000000000 [Eh]
	 Same-Spin Energy          =       0.0000000000000000 [Eh]
	 Opposite-Spin Energy      =      -0.0167976092417516 [Eh]
	 Correlation Energy        =      -0.0167976092417516 [Eh]
	 Total Energy              =      -7.2531824091889039 [Eh]

	 ================> DF-SCS-MP2 Energies <==================
	-----------------------------------------------------------
	 SCS Same-Spin Scale       =       0.3333333333333333 [-]
	 SCS Opposite-Spin Scale   =       1.2000000000000000 [-]
	 SCS Same-Spin Energy      =       0.0000000000000000 [Eh]
	 SCS Opposite-Spin Energy  =      -0.0201571310901019 [Eh]
	 SCS Correlation Energy    =      -0.0201571310901019 [Eh]
	 SCS Total Energy          =      -7.2565419310372539 [Eh]
	-----------------------------------------------------------

*** Psi4 exiting successfully. Buy a developer a beer!
