                               Psi4 1.8.2 release

  ==> Input File <==

--------------------------------------------------------------------------
MEMORY 60 GB

molecule dimer {
0 1
Gh(Li)     0.000000     0.000000     0.000000
O         -0.101817    -1.813061    -0.036423
H         -0.471130    -2.250333    -0.763005
H          0.017925    -2.436449     0.694730
Gh(O)     -1.581748     0.573901     1.043698
Gh(H)     -1.213933     0.624233     1.880971
Gh(H)     -1.854365     1.500408     0.850485
Gh(O)      0.827787     0.387737    -1.742301
Gh(H)      1.255888    -0.363424    -2.191003
Gh(H)      1.514001     1.055898    -1.641117

units ang
no_reorient
no_com
symmetry c1
}

set {
basis        aug-cc-pVTZ
scf_type     df
}

energy("mp2")
--------------------------------------------------------------------------

    Molecular point group: c1

    Geometry (in Angstrom), charge = 0, multiplicity = 1:

       Center              X                  Y                   Z               Mass
    ------------   -----------------  -----------------  -----------------  -----------------
      Gh(LI)          0.000000000000     0.000000000000     0.000000000000     7.016003436600
         O           -0.101817000000    -1.813061000000    -0.036423000000    15.994914619570
         H           -0.471130000000    -2.250333000000    -0.763005000000     1.007825032230
         H            0.017925000000    -2.436449000000     0.694730000000     1.007825032230
      Gh(O)          -1.581748000000     0.573901000000     1.043698000000    15.994914619570
      Gh(H)          -1.213933000000     0.624233000000     1.880971000000     1.007825032230
      Gh(H)          -1.854365000000     1.500408000000     0.850485000000     1.007825032230
      Gh(O)           0.827787000000     0.387737000000    -1.742301000000    15.994914619570
      Gh(H)           1.255888000000    -0.363424000000    -2.191003000000     1.007825032230
      Gh(H)           1.514001000000     1.055898000000    -1.641117000000     1.007825032230

  Charge       = 0
  Multiplicity = 1
  Basis Set: AUG-CC-PVTZ
    Blend: AUG-CC-PVTZ
  Basis Set: (AUG-CC-PVTZ AUX)
    Blend: AUG-CC-PVTZ-JKFIT + DEF2-UNIVERSAL-JKFIT

    Orbital Energies [Eh]
    ---------------------

    Doubly Occupied:

       1A    -20.562650     2A     -1.355757     3A     -0.733796
       4A     -0.576500     5A     -0.509712

  @DF-RHF Final Energy:   -76.05988793039947

   => Energetics <=

    Nuclear Repulsion Energy =              9.2907876019061479
    One-Electron Energy =                -123.2245170460717674
    Two-Electron Energy =                  37.8738415137661519
    Total Energy =                        -76.0598879303994693
 Dipole X            :          2.2238573           -2.3956833           -0.1718260
 Dipole Y            :         35.5449887          -36.2662443           -0.7212556
 Dipole Z            :          0.6767356           -0.6796570           -0.0029214
 Magnitude           :                                                    0.7414461
  Basis Set: (AUG-CC-PVTZ AUX)
    Blend: AUG-CC-PVTZ-RI + DEF2-QZVPP-RI
	 Reference Energy          =     -76.0598879303994693 [Eh]
	 Singles Energy            =      -0.0000000000000000 [Eh]
	 Same-Spin Energy          =      -0.0681604406618764 [Eh]
	 Opposite-Spin Energy      =      -0.2150714859073934 [Eh]
	 Correlation Energy        =      -0.2832319265692698 [Eh]
	 Total Energy              =     -76.3431198569687410 [Eh]

	 ================> DF-SCS-MP2 Energies <==================
	-----------------------------------------------------------
	 SCS Same-Spin Scale       =       0.3333333333333333 [-]
	 SCS Opposite-Spin Scale   =       1.2000000000000000 [-]
	 SCS Same-Spin Energy      =      -0.0227201468872921 [Eh]
	 SCS Opposite-Spin Energy  =      -0.2580857830888720 [Eh]
	 SCS Correlation Energy    =      -0.2808059299761642 [Eh]
	 SCS Total Energy          =     -76.3406938603756373 [Eh]
	-----------------------------------------------------------

*** Psi4 exiting successfully. Buy a developer a beer!
