                               Psi4 1.8.2 release

  ==> Input File <==

--------------------------------------------------------------------------
MEMORY 60 GB

molecule dimer {
1 1
Li         0.000000     0.000000     0.000000
Gh(O)      0.893831    -0.282893     1.641377
Gh(H)      0.718451     0.374103     2.337286
Gh(H)      1.825254    -0.373815     1.492424
Gh(O)      1.120839     1.073113    -0.996718
Gh(H)      1.303960     0.761379    -1.868653
Gh(H)      0.652772     1.948855    -1.098737
Gh(O)     -1.672896     0.785810     0.484622
Gh(H)     -2.287744     0.750544    -0.303037
Gh(H)     -1.709276     1.657872     0.942048

units ang
no_reorient
no_com
symmetry c1
}

set {
basis        aug-cc-pVTZ
scf_type     df
}

energy("mp2")
--------------------------------------------------------------------------

    Molecular point group: c1

    Geometry (in Angstrom), charge = 1, multiplicity = 1:

       Center              X                  Y                   Z               Mass
    ------------   -----------------  -----------------  -----------------  -----------------
         LI           0.000000000000     0.000000000000     0.000000000000     7.016003436600
      Gh(O)           0.893831000000    -0.282893000000     1.641377000000    15.994914619570
      Gh(H)           0.718451000000     0.374103000000     2.337286000000     1.007825032230
      Gh(H)           1.825254000000    -0.373815000000     1.492424000000     1.007825032230
      Gh(O)           1.120839000000     1.073113000000    -0.996718000000    15.994914619570
      Gh(H)           1.303960000000     0.761379000000    -1.868653000000     1.007825032230
      Gh(H)           0.652772000000     1.948855000000    -1.098737000000     1.007825032230
      Gh(O)          -1.672896000000     0.785810000000     0.484622000000    15.994914619570
      Gh(H)          -2.287744000000     0.750544000000    -0.303037000000     1.007825032230
      Gh(H)          -1.709276000000     1.657872000000     0.942048000000     1.007825032230

  Charge       = 1
  Multiplicity = 1
  Basis Set: AUG-CC-PVTZ
    Blend: AUG-CC-PVTZ
  Basis Set: (AUG-CC-PVTZ AUX)
    Blend: AUG-CC-PVTZ-JKFIT + DEF2-UNIVERSAL-JKFIT

    Orbital Energies [Eh]
    ---------------------

    Doubly Occupied:

       1A     -2.792358

  @DF-RHF Final Energy:    -7.23638448437954

   => Energetics <=

    Nuclear Repulsion Energy =              0.0000000000000000
    One-Electron Energy =                  -8.8880521994975652
    Two-Electron Energy =                   1.6516677151180275
    Total Energy =                         -7.2363844843795375
 Dipole X            :          0.0000001            0.0000000            0.0000001
 Dipole Y            :          0.0000214            0.0000000            0.0000214
 Dipole Z            :          0.0000095            0.0000000            0.0000095
 Magnitude           :                                                    0.0000234
  Basis Set: (AUG-CC-PVTZ AUX)
    Blend: AUG-CC-PVTZ-RI + DEF2-QZVPP-RI
	 Reference Energy          =      -7.2363844843795384 [Eh]
	 Singles Energy            =      -0.0000000000000000 [Eh]
	 Same-Spin Energy          =       0.0000000000000000 [Eh]
	 Opposite-Spin Energy      =      -0.0162663337252474 [Eh]
	 Correlation Energy        =      -0.0162663337252474 [Eh]
	 Total Energy              =      -7.2526508181047857 [Eh]

	 ================> DF-SCS-MP2 Energies <==================
	-----------------------------------------------------------
	 SCS Same-Spin Scale       =       0.3333333333333333 [-]
	 SCS Opposite-Spin Scale   =       1.2000000000000000 [-]
	 SCS Same-Spin Energy      =       0.0000000000000000 [Eh]
	 SCS Opposite-Spin Energy  =      -0.0195196004702969 [Eh]
	 SCS Correlation Energy    =      -0.0195196004702969 [Eh]
	 SCS Total Energy          =      -7.2559040848498357 [Eh]
	-----------------------------------------------------------

*** Psi4 exiting successfully. Buy a developer a beer!
