                               Psi4 1.8.2 release

  ==> Input File <==

--------------------------------------------------------------------------
MEMORY 60 GB

molecule dimer {
1 1
Li         0.000000     0.000000     0.000000
O          0.219560    -0.265810     2.012776
H          0.521880    -0.931016     2.699863
H         -0.159480     0.513072     2.429735
O          1.524244     0.531832    -0.864764
H          2.438492     0.209908    -0.974378
H          1.411270     1.193130    -1.596493
O         -0.434713    -1.802003    -0.583452
H         -1.078675    -2.086057     0.124510
H          0.349421    -2.345056    -0.533103
O         -1.896730     0.843373    -0.137028
H         -2.188506     0.658287    -0.989367
H         -2.580292     0.611598     0.561824

units ang
no_reorient
no_com
symmetry c1
}

set {
basis        aug-cc-pVTZ
scf_type     df
}

energy("mp2")
--------------------------------------------------------------------------

    Molecular point group: c1

    Geometry (in Angstrom), charge = 1, multiplicity = 1:

       Center              X                  Y                   Z               Mass
    ------------   -----------------  -----------------  -----------------  -----------------
         LI           0.000000000000     0.000000000000     0.000000000000     7.016003436600
         O            0.219560000000    -0.265810000000     2.012776000000    15.994914619570
         H            0.521880000000    -0.931016000000     2.699863000000     1.007825032230
         H           -0.159480000000     0.513072000000     2.429735000000     1.007825032230
         O            1.524244000000     0.531832000000    -0.864764000000    15.994914619570
         H            2.438492000000     0.209908000000    -0.974378000000     1.007825032230
         H            1.411270000000     1.193130000000    -1.596493000000     1.007825032230
         O           -0.434713000000    -1.802003000000    -0.583452000000    15.994914619570
         H           -1.078675000000    -2.086057000000     0.124510000000     1.007825032230
         H            0.349421000000    -2.345056000000    -0.533103000000     1.007825032230
         O           -1.896730000000     0.843373000000    -0.137028000000    15.994914619570
         H           -2.188506000000     0.658287000000    -0.989367000000     1.007825032230
         H           -2.580292000000     0.611598000000     0.561824000000     1.007825032230

  Charge       = 1
  Multiplicity = 1
  Basis Set: AUG-CC-PVTZ
    Blend: AUG-CC-PVTZ
  Basis Set: (AUG-CC-PVTZ AUX)
    Blend: AUG-CC-PVTZ-JKFIT + DEF2-UNIVERSAL-JKFIT

    Orbital Energies [Eh]
    ---------------------

    Doubly Occupied:

       1A    -20.755891     2A    -20.748288     3A    -20.744648
       4A    -20.742784     5A     -2.535876     6A     -1.533208
       7A     -1.530798     8A     -1.524664     9A     -1.521728
      10A     -0.911107    11A     -0.898527    12A     -0.896866
      13A     -0.892275    14A     -0.798903    15A     -0.772409
      16A     -0.765826    17A     -0.759637    18A     -0.707785
      19A     -0.698359    20A     -0.689872    21A     -0.687842

  @DF-RHF Final Energy:  -311.61437351251834

   => Energetics <=

    Nuclear Repulsion Energy =            162.0475030610167266
    One-Electron Energy =                -745.0891565723799204
    Two-Electron Energy =                 271.4272799988448241
    Total Energy =                       -311.6143735125183412
 Dipole X            :         11.2378054          -11.3137941           -0.0759887
 Dipole Y            :         13.9535194          -14.5830127           -0.6294933
 Dipole Z            :         -9.0819861            9.7185723            0.6365862
 Magnitude           :                                                    0.8984866
  Basis Set: (AUG-CC-PVTZ AUX)
    Blend: AUG-CC-PVTZ-RI + DEF2-QZVPP-RI
	 Reference Energy          =    -311.6143735125183412 [Eh]
	 Singles Energy            =      -0.0000000000000000 [Eh]
	 Same-Spin Energy          =      -0.2761520401259931 [Eh]
	 Opposite-Spin Energy      =      -0.8803753183780296 [Eh]
	 Correlation Energy        =      -1.1565273585040228 [Eh]
	 Total Energy              =    -312.7709008710223770 [Eh]

	 ================> DF-SCS-MP2 Energies <==================
	-----------------------------------------------------------
	 SCS Same-Spin Scale       =       0.3333333333333333 [-]
	 SCS Opposite-Spin Scale   =       1.2000000000000000 [-]
	 SCS Same-Spin Energy      =      -0.0920506800419977 [Eh]
	 SCS Opposite-Spin Energy  =      -1.0564503820536355 [Eh]
	 SCS Correlation Energy    =      -1.1485010620956333 [Eh]
	 SCS Total Energy          =    -312.7628745746139884 [Eh]
	-----------------------------------------------------------

*** Psi4 exiting successfully. Buy a developer a beer!
