                               Psi4 1.8.2 release

  ==> Input File <==

--------------------------------------------------------------------------
MEMORY 60 GB

molecule dimer {
1 1
Li         0.000000     0.000000     0.000000
O         -0.027221    -1.892341     0.156225
H         -0.536148    -2.498417    -0.392860
H          0.243138    -2.471152     0.849494
O          1.738236     0.664366    -0.057323
H          2.287094     0.955382     0.777655
H          2.400736     0.107677    -0.493532
O         -1.127047     0.764844     1.621688
H         -0.642547     0.688602     2.513507
H         -1.362795     1.713494     1.543215
O         -0.863269     0.264781    -1.728839
H         -0.881962     1.221250    -1.792891
H         -1.763154    -0.020104    -1.961724

units ang
no_reorient
no_com
symmetry c1
}

set {
basis        aug-cc-pVTZ
scf_type     df
}

energy("mp2")
--------------------------------------------------------------------------

    Molecular point group: c1

    Geometry (in Angstrom), charge = 1, multiplicity = 1:

       Center              X                  Y                   Z               Mass
    ------------   -----------------  -----------------  -----------------  -----------------
         LI           0.000000000000     0.000000000000     0.000000000000     7.016003436600
         O           -0.027221000000    -1.892341000000     0.156225000000    15.994914619570
         H           -0.536148000000    -2.498417000000    -0.392860000000     1.007825032230
         H            0.243138000000    -2.471152000000     0.849494000000     1.007825032230
         O            1.738236000000     0.664366000000    -0.057323000000    15.994914619570
         H            2.287094000000     0.955382000000     0.777655000000     1.007825032230
         H            2.400736000000     0.107677000000    -0.493532000000     1.007825032230
         O           -1.127047000000     0.764844000000     1.621688000000    15.994914619570
         H           -0.642547000000     0.688602000000     2.513507000000     1.007825032230
         H           -1.362795000000     1.713494000000     1.543215000000     1.007825032230
         O           -0.863269000000     0.264781000000    -1.728839000000    15.994914619570
         H           -0.881962000000     1.221250000000    -1.792891000000     1.007825032230
         H           -1.763154000000    -0.020104000000    -1.961724000000     1.007825032230

  Charge       = 1
  Multiplicity = 1
  Basis Set: AUG-CC-PVTZ
    Blend: AUG-CC-PVTZ
  Basis Set: (AUG-CC-PVTZ AUX)
    Blend: AUG-CC-PVTZ-JKFIT + DEF2-UNIVERSAL-JKFIT

    Orbital Energies [Eh]
    ---------------------

    Doubly Occupied:

       1A    -20.759491     2A    -20.747826     3A    -20.744751
       4A    -20.744526     5A     -2.527719     6A     -1.541569
       7A     -1.531426     8A     -1.525666     9A     -1.510639
      10A     -0.896784    11A     -0.890556    12A     -0.871947
      13A     -0.870617    14A     -0.804598    15A     -0.793150
      16A     -0.772348    17A     -0.762958    18A     -0.706131
      19A     -0.697592    20A     -0.693136    21A     -0.687146

  @DF-RHF Final Energy:  -311.61700156169280

   => Energetics <=

    Nuclear Repulsion Energy =            161.5677849071729497
    One-Electron Energy =                -744.2084107459647839
    Two-Electron Energy =                 271.0236242770990316
    Total Energy =                       -311.6170015616928026
 Dipole X            :          4.8878950           -4.7055050            0.1823900
 Dipole Y            :          3.5587251           -3.5717109           -0.0129857
 Dipole Z            :         -1.1710916            1.8460205            0.6749289
 Magnitude           :                                                    0.6992595
  Basis Set: (AUG-CC-PVTZ AUX)
    Blend: AUG-CC-PVTZ-RI + DEF2-QZVPP-RI
	 Reference Energy          =    -311.6170015616928026 [Eh]
	 Singles Energy            =      -0.0000000000000000 [Eh]
	 Same-Spin Energy          =      -0.2767434267309129 [Eh]
	 Opposite-Spin Energy      =      -0.8824926489533862 [Eh]
	 Correlation Energy        =      -1.1592360756842992 [Eh]
	 Total Energy              =    -312.7762376373771076 [Eh]

	 ================> DF-SCS-MP2 Energies <==================
	-----------------------------------------------------------
	 SCS Same-Spin Scale       =       0.3333333333333333 [-]
	 SCS Opposite-Spin Scale   =       1.2000000000000000 [-]
	 SCS Same-Spin Energy      =      -0.0922478089103043 [Eh]
	 SCS Opposite-Spin Energy  =      -1.0589911787440633 [Eh]
	 SCS Correlation Energy    =      -1.1512389876543676 [Eh]
	 SCS Total Energy          =    -312.7682405493471833 [Eh]
	-----------------------------------------------------------

*** Psi4 exiting successfully. Buy a developer a beer!
