                               Psi4 1.8.2 release

  ==> Input File <==

--------------------------------------------------------------------------
MEMORY 60 GB

molecule dimer {
1 1
Li         0.000000     0.000000     0.000000
O         -0.726839    -0.118102     1.911175
H         -0.115967    -0.212325     2.688357
H         -1.622471    -0.399297     2.175709
O          0.992835     1.593091     0.218464
H          0.702150     2.401769     0.685617
H          1.134015     1.873018    -0.713415
O          0.978893    -1.627265    -0.419354
H          0.322428    -2.297315    -0.615808
H          1.423814    -1.960308     0.436537
O         -1.645151    -0.250685    -1.119639
H         -1.834142     0.556153    -1.664355
H         -2.442203    -0.433569    -0.617930

units ang
no_reorient
no_com
symmetry c1
}

set {
basis        aug-cc-pVTZ
scf_type     df
}

energy("mp2")
--------------------------------------------------------------------------

    Molecular point group: c1

    Geometry (in Angstrom), charge = 1, multiplicity = 1:

       Center              X                  Y                   Z               Mass
    ------------   -----------------  -----------------  -----------------  -----------------
         LI           0.000000000000     0.000000000000     0.000000000000     7.016003436600
         O           -0.726839000000    -0.118102000000     1.911175000000    15.994914619570
         H           -0.115967000000    -0.212325000000     2.688357000000     1.007825032230
         H           -1.622471000000    -0.399297000000     2.175709000000     1.007825032230
         O            0.992835000000     1.593091000000     0.218464000000    15.994914619570
         H            0.702150000000     2.401769000000     0.685617000000     1.007825032230
         H            1.134015000000     1.873018000000    -0.713415000000     1.007825032230
         O            0.978893000000    -1.627265000000    -0.419354000000    15.994914619570
         H            0.322428000000    -2.297315000000    -0.615808000000     1.007825032230
         H            1.423814000000    -1.960308000000     0.436537000000     1.007825032230
         O           -1.645151000000    -0.250685000000    -1.119639000000    15.994914619570
         H           -1.834142000000     0.556153000000    -1.664355000000     1.007825032230
         H           -2.442203000000    -0.433569000000    -0.617930000000     1.007825032230

  Charge       = 1
  Multiplicity = 1
  Basis Set: AUG-CC-PVTZ
    Blend: AUG-CC-PVTZ
  Basis Set: (AUG-CC-PVTZ AUX)
    Blend: AUG-CC-PVTZ-JKFIT + DEF2-UNIVERSAL-JKFIT

    Orbital Energies [Eh]
    ---------------------

    Doubly Occupied:

       1A    -20.756848     2A    -20.754797     3A    -20.752332
       4A    -20.744885     5A     -2.535051     6A     -1.536299
       7A     -1.533069     8A     -1.524602     9A     -1.517549
      10A     -0.903164    11A     -0.897415    12A     -0.892601
      13A     -0.875312    14A     -0.791727    15A     -0.783746
      16A     -0.771351    17A     -0.761986    18A     -0.710428
      19A     -0.704592    20A     -0.698311    21A     -0.686230

  @DF-RHF Final Energy:  -311.61608926745095

   => Energetics <=

    Nuclear Repulsion Energy =            161.8284872282908111
    One-Electron Energy =                -744.6245524957924999
    Two-Electron Energy =                 271.1799760000507717
    Total Energy =                       -311.6160892674509455
 Dipole X            :          9.4738722          -10.6476089           -1.1737367
 Dipole Y            :          7.2046974           -6.9836001            0.2210974
 Dipole Z            :        -12.5075948           13.4168287            0.9092339
 Magnitude           :                                                    1.5010824
  Basis Set: (AUG-CC-PVTZ AUX)
    Blend: AUG-CC-PVTZ-RI + DEF2-QZVPP-RI
	 Reference Energy          =    -311.6160892674509455 [Eh]
	 Singles Energy            =      -0.0000000000000000 [Eh]
	 Same-Spin Energy          =      -0.2768191686393697 [Eh]
	 Opposite-Spin Energy      =      -0.8825572111022327 [Eh]
	 Correlation Energy        =      -1.1593763797416023 [Eh]
	 Total Energy              =    -312.7754656471925614 [Eh]

	 ================> DF-SCS-MP2 Energies <==================
	-----------------------------------------------------------
	 SCS Same-Spin Scale       =       0.3333333333333333 [-]
	 SCS Opposite-Spin Scale   =       1.2000000000000000 [-]
	 SCS Same-Spin Energy      =      -0.0922730562131232 [Eh]
	 SCS Opposite-Spin Energy  =      -1.0590686533226792 [Eh]
	 SCS Correlation Energy    =      -1.1513417095358025 [Eh]
	 SCS Total Energy          =    -312.7674309769867591 [Eh]
	-----------------------------------------------------------

*** Psi4 exiting successfully. Buy a developer a beer!
