                               Psi4 1.8.2 release

  ==> Input File <==

--------------------------------------------------------------------------
MEMORY 60 GB

molecule dimer {
0 1
Gh(Li)     0.000000     0.000000     0.000000
Gh(O)     -1.054262     1.033472     1.093346
Gh(H)     -1.730482     0.532374     1.562433
Gh(H)     -1.571843     1.575637     0.505802
O         -0.744178    -1.532605    -0.783434
H         -0.277426    -1.988784    -1.466297
H         -1.469992    -1.214014    -1.334823
Gh(O)      1.660220    -0.198584     0.829101
Gh(H)      2.081802    -0.988587     0.338437
Gh(H)      2.282426     0.471872     1.056824

units ang
no_reorient
no_com
symmetry c1
}

set {
basis        aug-cc-pVTZ
scf_type     df
}

energy("mp2")
--------------------------------------------------------------------------

    Molecular point group: c1

    Geometry (in Angstrom), charge = 0, multiplicity = 1:

       Center              X                  Y                   Z               Mass
    ------------   -----------------  -----------------  -----------------  -----------------
      Gh(LI)          0.000000000000     0.000000000000     0.000000000000     7.016003436600
      Gh(O)          -1.054262000000     1.033472000000     1.093346000000    15.994914619570
      Gh(H)          -1.730482000000     0.532374000000     1.562433000000     1.007825032230
      Gh(H)          -1.571843000000     1.575637000000     0.505802000000     1.007825032230
         O           -0.744178000000    -1.532605000000    -0.783434000000    15.994914619570
         H           -0.277426000000    -1.988784000000    -1.466297000000     1.007825032230
         H           -1.469992000000    -1.214014000000    -1.334823000000     1.007825032230
      Gh(O)           1.660220000000    -0.198584000000     0.829101000000    15.994914619570
      Gh(H)           2.081802000000    -0.988587000000     0.338437000000     1.007825032230
      Gh(H)           2.282426000000     0.471872000000     1.056824000000     1.007825032230

  Charge       = 0
  Multiplicity = 1
  Basis Set: AUG-CC-PVTZ
    Blend: AUG-CC-PVTZ
  Basis Set: (AUG-CC-PVTZ AUX)
    Blend: AUG-CC-PVTZ-JKFIT + DEF2-UNIVERSAL-JKFIT

    Orbital Energies [Eh]
    ---------------------

    Doubly Occupied:

       1A    -20.569756     2A     -1.360588     3A     -0.703058
       4A     -0.600567     5A     -0.512709

  @DF-RHF Final Energy:   -76.05843398827504

   => Energetics <=

    Nuclear Repulsion Energy =              9.2365965985702339
    One-Electron Energy =                -123.0967031836878363
    Two-Electron Energy =                  37.8016725968425646
    Total Energy =                        -76.0584339882750413
 Dipole X            :         14.3871263          -14.5524823           -0.1653560
 Dipole Y            :         29.1296907          -29.2220407           -0.0923500
 Dipole Z            :         16.3322266          -17.1371552           -0.8049286
 Magnitude           :                                                    0.8269106
  Basis Set: (AUG-CC-PVTZ AUX)
    Blend: AUG-CC-PVTZ-RI + DEF2-QZVPP-RI
	 Reference Energy          =     -76.0584339882750413 [Eh]
	 Singles Energy            =      -0.0000000000000000 [Eh]
	 Same-Spin Energy          =      -0.0685951395076931 [Eh]
	 Opposite-Spin Energy      =      -0.2162853027631060 [Eh]
	 Correlation Energy        =      -0.2848804422707991 [Eh]
	 Total Energy              =     -76.3433144305458455 [Eh]

	 ================> DF-SCS-MP2 Energies <==================
	-----------------------------------------------------------
	 SCS Same-Spin Scale       =       0.3333333333333333 [-]
	 SCS Opposite-Spin Scale   =       1.2000000000000000 [-]
	 SCS Same-Spin Energy      =      -0.0228650465025644 [Eh]
	 SCS Opposite-Spin Energy  =      -0.2595423633157272 [Eh]
	 SCS Correlation Energy    =      -0.2824074098182916 [Eh]
	 SCS Total Energy          =     -76.3408413980933318 [Eh]
	-----------------------------------------------------------

*** Psi4 exiting successfully. Buy a developer a beer!
