                               Psi4 1.8.2 release

  ==> Input File <==

--------------------------------------------------------------------------
MEMORY 60 GB

molecule dimer {
1 1
Li         0.000000     0.000000     0.000000
O         -1.238463    -0.786538     1.271879
H         -2.189206    -1.079607     1.210652
H         -1.227083    -0.332340     2.141372
O          1.842945    -0.344527    -0.143005
H          2.300244     0.408784    -0.637790
H          1.937252    -1.198420    -0.570477
O         -0.517595    -0.483751    -1.762158
H         -0.134699    -1.226200    -2.237230
H         -1.418849    -0.662634    -1.774291

units ang
no_reorient
no_com
symmetry c1
}

set {
basis        aug-cc-pVTZ
scf_type     df
}

energy("mp2")
--------------------------------------------------------------------------

    Molecular point group: c1

    Geometry (in Angstrom), charge = 1, multiplicity = 1:

       Center              X                  Y                   Z               Mass
    ------------   -----------------  -----------------  -----------------  -----------------
         LI           0.000000000000     0.000000000000     0.000000000000     7.016003436600
         O           -1.238463000000    -0.786538000000     1.271879000000    15.994914619570
         H           -2.189206000000    -1.079607000000     1.210652000000     1.007825032230
         H           -1.227083000000    -0.332340000000     2.141372000000     1.007825032230
         O            1.842945000000    -0.344527000000    -0.143005000000    15.994914619570
         H            2.300244000000     0.408784000000    -0.637790000000     1.007825032230
         H            1.937252000000    -1.198420000000    -0.570477000000     1.007825032230
         O           -0.517595000000    -0.483751000000    -1.762158000000    15.994914619570
         H           -0.134699000000    -1.226200000000    -2.237230000000     1.007825032230
         H           -1.418849000000    -0.662634000000    -1.774291000000     1.007825032230

  Charge       = 1
  Multiplicity = 1
  Basis Set: AUG-CC-PVTZ
    Blend: AUG-CC-PVTZ
  Basis Set: (AUG-CC-PVTZ AUX)
    Blend: AUG-CC-PVTZ-JKFIT + DEF2-UNIVERSAL-JKFIT

    Orbital Energies [Eh]
    ---------------------

    Doubly Occupied:

       1A    -20.775643     2A    -20.768986     3A    -20.765562
       4A     -2.577932     5A     -1.575394     6A     -1.547757
       7A     -1.541002     8A     -0.935061     9A     -0.920116
      10A     -0.900564    11A     -0.820525    12A     -0.811568
      13A     -0.780974    14A     -0.731659    15A     -0.720413
      16A     -0.711813

  @DF-RHF Final Energy:  -235.53109459754268

   => Energetics <=

    Nuclear Repulsion Energy =             99.6673263742786730
    One-Electron Energy =                -516.6269040221709474
    Two-Electron Energy =                 181.4284830503495982
    Total Energy =                       -235.5310945975426762
 Dipole X            :         -0.5446595           -0.0703828           -0.6150423
 Dipole Y            :         31.2753740          -32.1422477           -0.8668738
 Dipole Z            :         12.5832646          -13.1034290           -0.5201644
 Magnitude           :                                                    1.1833504
  Basis Set: (AUG-CC-PVTZ AUX)
    Blend: AUG-CC-PVTZ-RI + DEF2-QZVPP-RI
	 Reference Energy          =    -235.5310945975426762 [Eh]
	 Singles Energy            =      -0.0000000000000000 [Eh]
	 Same-Spin Energy          =      -0.2062889720174821 [Eh]
	 Opposite-Spin Energy      =      -0.6617411041124577 [Eh]
	 Correlation Energy        =      -0.8680300761299398 [Eh]
	 Total Energy              =    -236.3991246736726168 [Eh]

	 ================> DF-SCS-MP2 Energies <==================
	-----------------------------------------------------------
	 SCS Same-Spin Scale       =       0.3333333333333333 [-]
	 SCS Opposite-Spin Scale   =       1.2000000000000000 [-]
	 SCS Same-Spin Energy      =      -0.0687629906724940 [Eh]
	 SCS Opposite-Spin Energy  =      -0.7940893249349492 [Eh]
	 SCS Correlation Energy    =      -0.8628523156074432 [Eh]
	 SCS Total Energy          =    -236.3939469131501312 [Eh]
	-----------------------------------------------------------

*** Psi4 exiting successfully. Buy a developer a beer!
