                               Psi4 1.8.2 release

  ==> Input File <==

--------------------------------------------------------------------------
MEMORY 60 GB

molecule dimer {
0 1
Gh(Li)     0.000000     0.000000     0.000000
Gh(O)      1.625213     0.972567    -0.130984
Gh(H)      2.385363     0.442167     0.052306
Gh(H)      1.744821     1.783338     0.393105
O         -0.494873    -0.049516    -1.857659
H         -1.472930    -0.211893    -1.914216
H         -0.138603    -0.782973    -2.357050
Gh(O)     -0.071954    -1.647819     0.654952
Gh(H)      0.228828    -1.705075     1.564639
Gh(H)     -0.688509    -2.401562     0.512174
Gh(O)     -1.490186     0.845902     1.174509
Gh(H)     -1.068979     0.975324     2.036246
Gh(H)     -2.159523     0.106016     1.305168

units ang
no_reorient
no_com
symmetry c1
}

set {
basis        aug-cc-pVTZ
scf_type     df
}

energy("mp2")
--------------------------------------------------------------------------

    Molecular point group: c1

    Geometry (in Angstrom), charge = 0, multiplicity = 1:

       Center              X                  Y                   Z               Mass
    ------------   -----------------  -----------------  -----------------  -----------------
      Gh(LI)          0.000000000000     0.000000000000     0.000000000000     7.016003436600
      Gh(O)           1.625213000000     0.972567000000    -0.130984000000    15.994914619570
      Gh(H)           2.385363000000     0.442167000000     0.052306000000     1.007825032230
      Gh(H)           1.744821000000     1.783338000000     0.393105000000     1.007825032230
         O           -0.494873000000    -0.049516000000    -1.857659000000    15.994914619570
         H           -1.472930000000    -0.211893000000    -1.914216000000     1.007825032230
         H           -0.138603000000    -0.782973000000    -2.357050000000     1.007825032230
      Gh(O)          -0.071954000000    -1.647819000000     0.654952000000    15.994914619570
      Gh(H)           0.228828000000    -1.705075000000     1.564639000000     1.007825032230
      Gh(H)          -0.688509000000    -2.401562000000     0.512174000000     1.007825032230
      Gh(O)          -1.490186000000     0.845902000000     1.174509000000    15.994914619570
      Gh(H)          -1.068979000000     0.975324000000     2.036246000000     1.007825032230
      Gh(H)          -2.159523000000     0.106016000000     1.305168000000     1.007825032230

  Charge       = 0
  Multiplicity = 1
  Basis Set: AUG-CC-PVTZ
    Blend: AUG-CC-PVTZ
  Basis Set: (AUG-CC-PVTZ AUX)
    Blend: AUG-CC-PVTZ-JKFIT + DEF2-UNIVERSAL-JKFIT

    Orbital Energies [Eh]
    ---------------------

    Doubly Occupied:

       1A    -20.570931     2A     -1.346573     3A     -0.704053
       4A     -0.585806     5A     -0.509629

  @DF-RHF Final Energy:   -76.05823149725965

   => Energetics <=

    Nuclear Repulsion Energy =              9.0391776399050840
    One-Electron Energy =                -122.7608312746558852
    Two-Electron Energy =                  37.6634221374911320
    Total Energy =                        -76.0582314972596691
 Dipole X            :         10.1263295          -10.5267515           -0.4004220
 Dipole Y            :          2.0406673           -2.6285977           -0.5879304
 Dipole Z            :         35.7896896          -36.1552569           -0.3655674
 Magnitude           :                                                    0.7997746
  Basis Set: (AUG-CC-PVTZ AUX)
    Blend: AUG-CC-PVTZ-RI + DEF2-QZVPP-RI
	 Reference Energy          =     -76.0582314972596549 [Eh]
	 Singles Energy            =      -0.0000000000000000 [Eh]
	 Same-Spin Energy          =      -0.0687864955948677 [Eh]
	 Opposite-Spin Energy      =      -0.2171249451104796 [Eh]
	 Correlation Energy        =      -0.2859114407053472 [Eh]
	 Total Energy              =     -76.3441429379650032 [Eh]

	 ================> DF-SCS-MP2 Energies <==================
	-----------------------------------------------------------
	 SCS Same-Spin Scale       =       0.3333333333333333 [-]
	 SCS Opposite-Spin Scale   =       1.2000000000000000 [-]
	 SCS Same-Spin Energy      =      -0.0229288318649559 [Eh]
	 SCS Opposite-Spin Energy  =      -0.2605499341325754 [Eh]
	 SCS Correlation Energy    =      -0.2834787659975313 [Eh]
	 SCS Total Energy          =     -76.3417102632571840 [Eh]
	-----------------------------------------------------------

*** Psi4 exiting successfully. Buy a developer a beer!
