                               Psi4 1.9 release

  ==> Input File <==

--------------------------------------------------------------------------
MEMORY 60 GB

molecule dimer {
1 1
Li     0.000000     0.000000     0.000000
--
0 1
O      1.019083     0.534807    -1.726191
H      0.625080     0.290251    -2.608177
H      0.830858     1.498588    -1.618666
O      0.965199     1.220004     1.116919
H      0.489944     1.995527     1.292918
H      1.415083     0.944086     1.921579
O     -1.437462     1.300273    -0.217367
H     -1.717662     1.772714     0.555732
H     -1.328741     1.931896    -0.948455
O     -0.568332    -1.731301    -0.760465
H     -0.202881    -1.985016    -1.680965
H     -0.497598    -2.566820    -0.278428

units ang
no_reorient
no_com
symmetry c1
}

set {
basis        aug-cc-pVTZ
scf_type     df
}

energy("mp2", bsse_type="cp")
--------------------------------------------------------------------------

                               Psi4 1.9 release
    Molecular point group: c1
  Charge       = 0
  Multiplicity = 1
  Basis Set: AUG-CC-PVTZ
    Blend: AUG-CC-PVTZ
  Basis Set: (AUG-CC-PVTZ AUX)
    Blend: AUG-CC-PVTZ-JKFIT + DEF2-UNIVERSAL-JKFIT
  @DF-RHF Final Energy:  -304.20085598704497
    Total Energy =                       -304.2008559870449744
 Dipole X            :          0.8311922           -1.0544917           -0.2232996
 Dipole Y            :        -26.6291739           27.3471527            0.7179788
 Dipole Z            :         30.3801529          -30.3514469            0.0287060
 Magnitude           :                                                    0.7524496
  Basis Set: (AUG-CC-PVTZ AUX)
    Blend: AUG-CC-PVTZ-RI + DEF2-QZVPP-RI
	 Reference Energy          =    -304.2008559870449744 [Eh]
	 Singles Energy            =      -0.0000000000000000 [Eh]
	 Same-Spin Energy          =      -0.2788382525680444 [Eh]
	 Opposite-Spin Energy      =      -0.8727198220762771 [Eh]
	 Correlation Energy        =      -1.1515580746443215 [Eh]
	 Total Energy              =    -305.3524140616892737 [Eh]
	 SCS Total Energy          =    -305.3410658577258801 [Eh]
                               Psi4 1.9 release
    Molecular point group: c1
  Multiplicity = 1
  Basis Set: AUG-CC-PVTZ
    Blend: AUG-CC-PVTZ
  Basis Set: (AUG-CC-PVTZ AUX)
    Blend: AUG-CC-PVTZ-JKFIT + DEF2-UNIVERSAL-JKFIT
  @DF-RHF Final Energy:    -7.23638488117713
    Total Energy =                         -7.2363848811771350
  Basis Set: (AUG-CC-PVTZ AUX)
	 Singles Energy            =      -0.0000000000000000 [Eh]
	 Same-Spin Energy          =       0.0000000000000000 [Eh]
	 Opposite-Spin Energy      =      -0.0167973149012790 [Eh]
	 Correlation Energy        =      -0.0167973149012790 [Eh]
	 Total Energy              =      -7.2531821960784137 [Eh]
	 SCS Total Energy          =      -7.2565416590586693 [Eh]
                               Psi4 1.9 release
    Molecular point group: c1

    Geometry (in Bohr), charge = 1, multiplicity = 1:

       Center              X                  Y                   Z               Mass
    ------------   -----------------  -----------------  -----------------  -----------------
         LI           0.000000000000     0.000000000000     0.000000000000     7.016003436600
         O            1.925787769110     1.010638759978    -3.262028230230    15.994914619570
         H            1.181230006501     0.548494897640    -4.928740216718     1.007825032230
         H            1.570094069146     2.831920894898    -3.058835428590     1.007825032230
         O            1.823961766566     2.305473431963     2.110671014320    15.994914619570
         H            0.925859976811     3.770999505956     2.443260922675     1.007825032230
         H            2.674119314791     1.784063978879     3.631258038431     1.007825032230
         O           -2.716409495753     2.457159858327    -0.410764098712    15.994914619570
         H           -3.245910756106     3.349943958765     1.050181279153     1.007825032230
         H           -2.510956581667     3.650754342867    -1.792320192321     1.007825032230
         O           -1.073991828334    -3.271684730731    -1.437070577996    15.994914619570
         H           -0.383389526059    -3.751136594652    -3.176563476480     1.007825032230
         H           -0.940323940576    -4.850586813348    -0.526152665659     1.007825032230

  Charge       = 1
  Multiplicity = 1
  Basis Set: AUG-CC-PVTZ
    Blend: AUG-CC-PVTZ
  Basis Set: (AUG-CC-PVTZ AUX)
    Blend: AUG-CC-PVTZ-JKFIT + DEF2-UNIVERSAL-JKFIT

    Orbital Energies [Eh]
    ---------------------

    Doubly Occupied:

       1A    -20.758741     2A    -20.755243     3A    -20.750371
       4A    -20.747592     5A     -2.542615     6A     -1.559245
       7A     -1.548036     8A     -1.520642     9A     -1.515228
      10A     -0.932256    11A     -0.921584    12A     -0.883600
      13A     -0.869367    14A     -0.801362    15A     -0.791845
      16A     -0.775881    17A     -0.759599    18A     -0.723286
      19A     -0.704567    20A     -0.695353    21A     -0.684621

  @DF-RHF Final Energy:  -311.60402965322663

   => Energetics <=

    Nuclear Repulsion Energy =            166.3239144383499308
    One-Electron Energy =                -753.3738168142720042
    Two-Electron Energy =                 275.4458727226954693
    Total Energy =                       -311.6040296532266325
 Dipole X            :          0.8160936           -1.0544917           -0.2383981
 Dipole Y            :        -26.3725115           27.3471527            0.9746413
 Dipole Z            :         30.1071779          -30.3514469           -0.2442690
 Magnitude           :                                                    1.0326793
  Basis Set: (AUG-CC-PVTZ AUX)
    Blend: AUG-CC-PVTZ-RI + DEF2-QZVPP-RI
	 Reference Energy          =    -311.6040296532266325 [Eh]
	 Singles Energy            =      -0.0000000000000000 [Eh]
	 Same-Spin Energy          =      -0.2772701491445012 [Eh]
	 Opposite-Spin Energy      =      -0.8822578177902062 [Eh]
	 Correlation Energy        =      -1.1595279669347074 [Eh]
	 Total Energy              =    -312.7635576201613503 [Eh]

	 ================> DF-SCS-MP2 Energies <==================
	-----------------------------------------------------------
	 SCS Same-Spin Scale       =       0.3333333333333333 [-]
	 SCS Opposite-Spin Scale   =       1.2000000000000000 [-]
	 SCS Same-Spin Energy      =      -0.0924233830481671 [Eh]
	 SCS Opposite-Spin Energy  =      -1.0587093813482473 [Eh]
	 SCS Correlation Energy    =      -1.1511327643964144 [Eh]
	 SCS Total Energy          =    -312.7551624176230689 [Eh]
	-----------------------------------------------------------

*** Psi4 exiting successfully. Buy a developer a beer!
