                               Psi4 1.8.2 release

  ==> Input File <==

--------------------------------------------------------------------------
MEMORY 60 GB

molecule dimer {
1 1
Li         0.000000     0.000000     0.000000
Gh(O)      1.276765     0.545153     1.397121
Gh(H)      1.439625    -0.293000     1.863141
Gh(H)      1.756552     1.287598     1.849105
Gh(O)      0.409922     1.229791    -1.545668
Gh(H)      1.146667     1.129525    -2.203588
Gh(H)     -0.234316     1.541034    -2.202116
Gh(O)     -1.716144     0.282187     0.825118
Gh(H)     -2.643062     0.455413     0.501701
Gh(H)     -1.848891    -0.348811     1.525324
Gh(O)      0.520377    -1.745389    -0.656277
Gh(H)     -0.250082    -2.060907    -1.141392
Gh(H)      0.808173    -2.502960    -0.080864

units ang
no_reorient
no_com
symmetry c1
}

set {
basis        aug-cc-pVTZ
scf_type     df
}

energy("mp2")
--------------------------------------------------------------------------

    Molecular point group: c1

    Geometry (in Angstrom), charge = 1, multiplicity = 1:

       Center              X                  Y                   Z               Mass
    ------------   -----------------  -----------------  -----------------  -----------------
         LI           0.000000000000     0.000000000000     0.000000000000     7.016003436600
      Gh(O)           1.276765000000     0.545153000000     1.397121000000    15.994914619570
      Gh(H)           1.439625000000    -0.293000000000     1.863141000000     1.007825032230
      Gh(H)           1.756552000000     1.287598000000     1.849105000000     1.007825032230
      Gh(O)           0.409922000000     1.229791000000    -1.545668000000    15.994914619570
      Gh(H)           1.146667000000     1.129525000000    -2.203588000000     1.007825032230
      Gh(H)          -0.234316000000     1.541034000000    -2.202116000000     1.007825032230
      Gh(O)          -1.716144000000     0.282187000000     0.825118000000    15.994914619570
      Gh(H)          -2.643062000000     0.455413000000     0.501701000000     1.007825032230
      Gh(H)          -1.848891000000    -0.348811000000     1.525324000000     1.007825032230
      Gh(O)           0.520377000000    -1.745389000000    -0.656277000000    15.994914619570
      Gh(H)          -0.250082000000    -2.060907000000    -1.141392000000     1.007825032230
      Gh(H)           0.808173000000    -2.502960000000    -0.080864000000     1.007825032230

  Charge       = 1
  Multiplicity = 1
  Basis Set: AUG-CC-PVTZ
    Blend: AUG-CC-PVTZ
  Basis Set: (AUG-CC-PVTZ AUX)
    Blend: AUG-CC-PVTZ-JKFIT + DEF2-UNIVERSAL-JKFIT

    Orbital Energies [Eh]
    ---------------------

    Doubly Occupied:

       1A     -2.792353

  @DF-RHF Final Energy:    -7.23638490801117

   => Energetics <=

    Nuclear Repulsion Energy =              0.0000000000000000
    One-Electron Energy =                  -8.8880639740026677
    Two-Electron Energy =                   1.6516790659915013
    Total Energy =                         -7.2363849080111660
 Dipole X            :          0.0000005            0.0000000            0.0000005
 Dipole Y            :          0.0000075            0.0000000            0.0000075
 Dipole Z            :         -0.0000067            0.0000000           -0.0000067
 Magnitude           :                                                    0.0000101
  Basis Set: (AUG-CC-PVTZ AUX)
    Blend: AUG-CC-PVTZ-RI + DEF2-QZVPP-RI
	 Reference Energy          =      -7.2363849080111660 [Eh]
	 Singles Energy            =      -0.0000000000000000 [Eh]
	 Same-Spin Energy          =       0.0000000000000000 [Eh]
	 Opposite-Spin Energy      =      -0.0169724921242241 [Eh]
	 Correlation Energy        =      -0.0169724921242241 [Eh]
	 Total Energy              =      -7.2533574001353900 [Eh]

	 ================> DF-SCS-MP2 Energies <==================
	-----------------------------------------------------------
	 SCS Same-Spin Scale       =       0.3333333333333333 [-]
	 SCS Opposite-Spin Scale   =       1.2000000000000000 [-]
	 SCS Same-Spin Energy      =       0.0000000000000000 [Eh]
	 SCS Opposite-Spin Energy  =      -0.0203669905490689 [Eh]
	 SCS Correlation Energy    =      -0.0203669905490689 [Eh]
	 SCS Total Energy          =      -7.2567518985602346 [Eh]
	-----------------------------------------------------------

*** Psi4 exiting successfully. Buy a developer a beer!
