                               Psi4 1.8.2 release

  ==> Input File <==

--------------------------------------------------------------------------
MEMORY 60 GB

molecule dimer {
0 1
Gh(Li)     0.000000     0.000000     0.000000
O         -1.493181     0.812463    -0.760642
H         -2.274485     0.118561    -0.860742
H         -1.946136     1.446441    -0.200871
Gh(O)     -0.238550    -1.490324     0.929417
Gh(H)     -0.382439    -2.409755     0.616696
Gh(H)     -0.583433    -1.630923     1.807732
Gh(O)      0.483877     1.296141     1.431392
Gh(H)      0.764361     0.733210     2.208636
Gh(H)     -0.078353     2.024658     1.715524
Gh(O)      1.736640    -0.390823    -1.112667
Gh(H)      1.820394    -1.119034    -1.789990
Gh(H)      2.001306     0.393263    -1.580594

units ang
no_reorient
no_com
symmetry c1
}

set {
basis        aug-cc-pVTZ
scf_type     df
}

energy("mp2")
--------------------------------------------------------------------------

    Molecular point group: c1

    Geometry (in Angstrom), charge = 0, multiplicity = 1:

       Center              X                  Y                   Z               Mass
    ------------   -----------------  -----------------  -----------------  -----------------
      Gh(LI)          0.000000000000     0.000000000000     0.000000000000     7.016003436600
         O           -1.493181000000     0.812463000000    -0.760642000000    15.994914619570
         H           -2.274485000000     0.118561000000    -0.860742000000     1.007825032230
         H           -1.946136000000     1.446441000000    -0.200871000000     1.007825032230
      Gh(O)          -0.238550000000    -1.490324000000     0.929417000000    15.994914619570
      Gh(H)          -0.382439000000    -2.409755000000     0.616696000000     1.007825032230
      Gh(H)          -0.583433000000    -1.630923000000     1.807732000000     1.007825032230
      Gh(O)           0.483877000000     1.296141000000     1.431392000000    15.994914619570
      Gh(H)           0.764361000000     0.733210000000     2.208636000000     1.007825032230
      Gh(H)          -0.078353000000     2.024658000000     1.715524000000     1.007825032230
      Gh(O)           1.736640000000    -0.390823000000    -1.112667000000    15.994914619570
      Gh(H)           1.820394000000    -1.119034000000    -1.789990000000     1.007825032230
      Gh(H)           2.001306000000     0.393263000000    -1.580594000000     1.007825032230

  Charge       = 0
  Multiplicity = 1
  Basis Set: AUG-CC-PVTZ
    Blend: AUG-CC-PVTZ
  Basis Set: (AUG-CC-PVTZ AUX)
    Blend: AUG-CC-PVTZ-JKFIT + DEF2-UNIVERSAL-JKFIT

    Orbital Energies [Eh]
    ---------------------

    Doubly Occupied:

       1A    -20.577528     2A     -1.336442     3A     -0.681986
       4A     -0.586949     5A     -0.508840

  @DF-RHF Final Energy:   -76.04976010959290

   => Energetics <=

    Nuclear Repulsion Energy =              8.7938462519492706
    One-Electron Energy =                -122.3037186489967922
    Two-Electron Energy =                  37.4601122874546206
    Total Energy =                        -76.0497601095928957
 Dipole X            :         29.7692773          -30.5494429           -0.7801657
 Dipole Y            :        -15.2617723           15.2400856           -0.0216867
 Dipole Z            :         13.8052052          -13.5053983            0.2998069
 Magnitude           :                                                    0.8360700
  Basis Set: (AUG-CC-PVTZ AUX)
    Blend: AUG-CC-PVTZ-RI + DEF2-QZVPP-RI
	 Reference Energy          =     -76.0497601095928957 [Eh]
	 Singles Energy            =      -0.0000000000000000 [Eh]
	 Same-Spin Energy          =      -0.0694153211742474 [Eh]
	 Opposite-Spin Energy      =      -0.2191780985990840 [Eh]
	 Correlation Energy        =      -0.2885934197733314 [Eh]
	 Total Energy              =     -76.3383535293662305 [Eh]

	 ================> DF-SCS-MP2 Energies <==================
	-----------------------------------------------------------
	 SCS Same-Spin Scale       =       0.3333333333333333 [-]
	 SCS Opposite-Spin Scale   =       1.2000000000000000 [-]
	 SCS Same-Spin Energy      =      -0.0231384403914158 [Eh]
	 SCS Opposite-Spin Energy  =      -0.2630137183189008 [Eh]
	 SCS Correlation Energy    =      -0.2861521587103166 [Eh]
	 SCS Total Energy          =     -76.3359122683032183 [Eh]
	-----------------------------------------------------------

*** Psi4 exiting successfully. Buy a developer a beer!
