                               Psi4 1.8.2 release

  ==> Input File <==

--------------------------------------------------------------------------
MEMORY 60 GB

molecule dimer {
0 1
Gh(Li)     0.000000     0.000000     0.000000
Gh(O)      1.263765    -0.267496     1.619238
Gh(H)      2.159690     0.080433     1.842446
Gh(H)      0.723105    -0.277224     2.376080
Gh(O)     -1.351525    -1.332306     0.260912
Gh(H)     -2.108274    -1.702532    -0.181780
Gh(H)     -1.298557    -1.835541     1.074812
O          1.333124     0.996804    -0.988147
H          2.221731     0.663227    -1.128336
H          1.028669     1.301661    -1.813392
Gh(O)     -1.085799     1.589562     0.765920
Gh(H)     -1.584621     2.287494     0.264073
Gh(H)     -1.694977     1.307918     1.432451

units ang
no_reorient
no_com
symmetry c1
}

set {
basis        aug-cc-pVTZ
scf_type     df
}

energy("mp2")
--------------------------------------------------------------------------

    Molecular point group: c1

    Geometry (in Angstrom), charge = 0, multiplicity = 1:

       Center              X                  Y                   Z               Mass
    ------------   -----------------  -----------------  -----------------  -----------------
      Gh(LI)          0.000000000000     0.000000000000     0.000000000000     7.016003436600
      Gh(O)           1.263765000000    -0.267496000000     1.619238000000    15.994914619570
      Gh(H)           2.159690000000     0.080433000000     1.842446000000     1.007825032230
      Gh(H)           0.723105000000    -0.277224000000     2.376080000000     1.007825032230
      Gh(O)          -1.351525000000    -1.332306000000     0.260912000000    15.994914619570
      Gh(H)          -2.108274000000    -1.702532000000    -0.181780000000     1.007825032230
      Gh(H)          -1.298557000000    -1.835541000000     1.074812000000     1.007825032230
         O            1.333124000000     0.996804000000    -0.988147000000    15.994914619570
         H            2.221731000000     0.663227000000    -1.128336000000     1.007825032230
         H            1.028669000000     1.301661000000    -1.813392000000     1.007825032230
      Gh(O)          -1.085799000000     1.589562000000     0.765920000000    15.994914619570
      Gh(H)          -1.584621000000     2.287494000000     0.264073000000     1.007825032230
      Gh(H)          -1.694977000000     1.307918000000     1.432451000000     1.007825032230

  Charge       = 0
  Multiplicity = 1
  Basis Set: AUG-CC-PVTZ
    Blend: AUG-CC-PVTZ
  Basis Set: (AUG-CC-PVTZ AUX)
    Blend: AUG-CC-PVTZ-JKFIT + DEF2-UNIVERSAL-JKFIT

    Orbital Energies [Eh]
    ---------------------

    Doubly Occupied:

       1A    -20.563803     2A     -1.358402     3A     -0.728723
       4A     -0.582795     5A     -0.510722

  @DF-RHF Final Energy:   -76.06085373327527

   => Energetics <=

    Nuclear Repulsion Energy =              9.3086711100234840
    One-Electron Energy =                -123.2501575395045421
    Two-Electron Energy =                  37.8806326962058080
    Total Energy =                        -76.0608537332752519
 Dipole X            :        -25.9058577           26.2962798            0.3904221
 Dipole Y            :        -18.7998197           18.7825927           -0.0172270
 Dipole Z            :         19.8444416          -20.4976779           -0.6532363
 Magnitude           :                                                    0.7612121
  Basis Set: (AUG-CC-PVTZ AUX)
    Blend: AUG-CC-PVTZ-RI + DEF2-QZVPP-RI
	 Reference Energy          =     -76.0608537332752661 [Eh]
	 Singles Energy            =      -0.0000000000000000 [Eh]
	 Same-Spin Energy          =      -0.0681825094258933 [Eh]
	 Opposite-Spin Energy      =      -0.2152419475533842 [Eh]
	 Correlation Energy        =      -0.2834244569792775 [Eh]
	 Total Energy              =     -76.3442781902545420 [Eh]

	 ================> DF-SCS-MP2 Energies <==================
	-----------------------------------------------------------
	 SCS Same-Spin Scale       =       0.3333333333333333 [-]
	 SCS Opposite-Spin Scale   =       1.2000000000000000 [-]
	 SCS Same-Spin Energy      =      -0.0227275031419644 [Eh]
	 SCS Opposite-Spin Energy  =      -0.2582903370640611 [Eh]
	 SCS Correlation Energy    =      -0.2810178402060255 [Eh]
	 SCS Total Energy          =     -76.3418715734812849 [Eh]
	-----------------------------------------------------------

*** Psi4 exiting successfully. Buy a developer a beer!
