                               Psi4 1.8.2 release

  ==> Input File <==

--------------------------------------------------------------------------
MEMORY 60 GB

molecule dimer {
0 1
Gh(Li)     0.000000     0.000000     0.000000
O         -0.213290    -1.230877    -1.435922
H          0.319614    -1.433868    -2.244771
H         -1.116811    -1.240557    -1.761755
Gh(O)      1.078055    -0.691540     1.605291
Gh(H)      1.583124    -1.467147     1.345496
Gh(H)      0.428738    -1.104788     2.246733
Gh(O)      1.200353     1.386398    -0.738119
Gh(H)      0.867414     1.714195    -1.599060
Gh(H)      2.118436     1.242699    -0.916516
Gh(O)     -1.635855     0.447985     0.979762
Gh(H)     -1.749951     0.565313     1.919399
Gh(H)     -2.276601     0.947984     0.463108

units ang
no_reorient
no_com
symmetry c1
}

set {
basis        aug-cc-pVTZ
scf_type     df
}

energy("mp2")
--------------------------------------------------------------------------

    Molecular point group: c1

    Geometry (in Angstrom), charge = 0, multiplicity = 1:

       Center              X                  Y                   Z               Mass
    ------------   -----------------  -----------------  -----------------  -----------------
      Gh(LI)          0.000000000000     0.000000000000     0.000000000000     7.016003436600
         O           -0.213290000000    -1.230877000000    -1.435922000000    15.994914619570
         H            0.319614000000    -1.433868000000    -2.244771000000     1.007825032230
         H           -1.116811000000    -1.240557000000    -1.761755000000     1.007825032230
      Gh(O)           1.078055000000    -0.691540000000     1.605291000000    15.994914619570
      Gh(H)           1.583124000000    -1.467147000000     1.345496000000     1.007825032230
      Gh(H)           0.428738000000    -1.104788000000     2.246733000000     1.007825032230
      Gh(O)           1.200353000000     1.386398000000    -0.738119000000    15.994914619570
      Gh(H)           0.867414000000     1.714195000000    -1.599060000000     1.007825032230
      Gh(H)           2.118436000000     1.242699000000    -0.916516000000     1.007825032230
      Gh(O)          -1.635855000000     0.447985000000     0.979762000000    15.994914619570
      Gh(H)          -1.749951000000     0.565313000000     1.919399000000     1.007825032230
      Gh(H)          -2.276601000000     0.947984000000     0.463108000000     1.007825032230

  Charge       = 0
  Multiplicity = 1
  Basis Set: AUG-CC-PVTZ
    Blend: AUG-CC-PVTZ
  Basis Set: (AUG-CC-PVTZ AUX)
    Blend: AUG-CC-PVTZ-JKFIT + DEF2-UNIVERSAL-JKFIT

    Orbital Energies [Eh]
    ---------------------

    Doubly Occupied:

       1A    -20.570642     2A     -1.345577     3A     -0.705488
       4A     -0.584011     5A     -0.509301

  @DF-RHF Final Energy:   -76.05851546383632

   => Energetics <=

    Nuclear Repulsion Energy =              9.0314168408864095
    One-Electron Energy =                -122.7498235349381019
    Two-Electron Energy =                  37.6598912302153721
    Total Energy =                        -76.0585154638363292
 Dipole X            :          4.4833258           -4.7309615           -0.2476357
 Dipole Y            :         23.5232583          -23.6620942           -0.1388359
 Dipole Z            :         28.5376532          -29.2792314           -0.7415782
 Magnitude           :                                                    0.7940636
  Basis Set: (AUG-CC-PVTZ AUX)
    Blend: AUG-CC-PVTZ-RI + DEF2-QZVPP-RI
	 Reference Energy          =     -76.0585154638363150 [Eh]
	 Singles Energy            =      -0.0000000000000000 [Eh]
	 Same-Spin Energy          =      -0.0687671243082850 [Eh]
	 Opposite-Spin Energy      =      -0.2169996534550308 [Eh]
	 Correlation Energy        =      -0.2857667777633159 [Eh]
	 Total Energy              =     -76.3442822415996289 [Eh]

	 ================> DF-SCS-MP2 Energies <==================
	-----------------------------------------------------------
	 SCS Same-Spin Scale       =       0.3333333333333333 [-]
	 SCS Opposite-Spin Scale   =       1.2000000000000000 [-]
	 SCS Same-Spin Energy      =      -0.0229223747694283 [Eh]
	 SCS Opposite-Spin Energy  =      -0.2603995841460370 [Eh]
	 SCS Correlation Energy    =      -0.2833219589154653 [Eh]
	 SCS Total Energy          =     -76.3418374227517802 [Eh]
	-----------------------------------------------------------

*** Psi4 exiting successfully. Buy a developer a beer!
