                               Psi4 1.8.2 release

  ==> Input File <==

--------------------------------------------------------------------------
MEMORY 60 GB

molecule dimer {
1 1
Li         0.000000     0.000000     0.000000
O          1.263765    -0.267496     1.619238
H          2.159690     0.080433     1.842446
H          0.723105    -0.277224     2.376080
O         -1.351525    -1.332306     0.260912
H         -2.108274    -1.702532    -0.181780
H         -1.298557    -1.835541     1.074812
O          1.333124     0.996804    -0.988147
H          2.221731     0.663227    -1.128336
H          1.028669     1.301661    -1.813392
O         -1.085799     1.589562     0.765920
H         -1.584621     2.287494     0.264073
H         -1.694977     1.307918     1.432451

units ang
no_reorient
no_com
symmetry c1
}

set {
basis        aug-cc-pVTZ
scf_type     df
}

energy("mp2")
--------------------------------------------------------------------------

    Molecular point group: c1

    Geometry (in Angstrom), charge = 1, multiplicity = 1:

       Center              X                  Y                   Z               Mass
    ------------   -----------------  -----------------  -----------------  -----------------
         LI           0.000000000000     0.000000000000     0.000000000000     7.016003436600
         O            1.263765000000    -0.267496000000     1.619238000000    15.994914619570
         H            2.159690000000     0.080433000000     1.842446000000     1.007825032230
         H            0.723105000000    -0.277224000000     2.376080000000     1.007825032230
         O           -1.351525000000    -1.332306000000     0.260912000000    15.994914619570
         H           -2.108274000000    -1.702532000000    -0.181780000000     1.007825032230
         H           -1.298557000000    -1.835541000000     1.074812000000     1.007825032230
         O            1.333124000000     0.996804000000    -0.988147000000    15.994914619570
         H            2.221731000000     0.663227000000    -1.128336000000     1.007825032230
         H            1.028669000000     1.301661000000    -1.813392000000     1.007825032230
         O           -1.085799000000     1.589562000000     0.765920000000    15.994914619570
         H           -1.584621000000     2.287494000000     0.264073000000     1.007825032230
         H           -1.694977000000     1.307918000000     1.432451000000     1.007825032230

  Charge       = 1
  Multiplicity = 1
  Basis Set: AUG-CC-PVTZ
    Blend: AUG-CC-PVTZ
  Basis Set: (AUG-CC-PVTZ AUX)
    Blend: AUG-CC-PVTZ-JKFIT + DEF2-UNIVERSAL-JKFIT

    Orbital Energies [Eh]
    ---------------------

    Doubly Occupied:

       1A    -20.755642     2A    -20.740878     3A    -20.734903
       4A    -20.733412     5A     -2.539257     6A     -1.550174
       7A     -1.541237     8A     -1.523426     9A     -1.518199
      10A     -0.912313    11A     -0.909547    12A     -0.897752
      13A     -0.878510    14A     -0.806275    15A     -0.791366
      16A     -0.761560    17A     -0.755847    18A     -0.710870
      19A     -0.697684    20A     -0.683916    21A     -0.677077

  @DF-RHF Final Energy:  -311.62383149688083

   => Energetics <=

    Nuclear Repulsion Energy =            163.4236461781327421
    One-Electron Energy =                -747.8552636333081409
    Two-Electron Energy =                 272.8077859582946303
    Total Energy =                       -311.6238314968808254
 Dipole X            :         -1.9233920            1.3668125           -0.5565795
 Dipole Y            :        -18.3290211           18.3642602            0.0352392
 Dipole Z            :        -31.8199236           32.3705134            0.5505898
 Magnitude           :                                                    0.7836911
  Basis Set: (AUG-CC-PVTZ AUX)
    Blend: AUG-CC-PVTZ-RI + DEF2-QZVPP-RI
	 Reference Energy          =    -311.6238314968808254 [Eh]
	 Singles Energy            =      -0.0000000000000000 [Eh]
	 Same-Spin Energy          =      -0.2751435564770832 [Eh]
	 Opposite-Spin Energy      =      -0.8770523225183920 [Eh]
	 Correlation Energy        =      -1.1521958789954752 [Eh]
	 Total Energy              =    -312.7760273758763105 [Eh]

	 ================> DF-SCS-MP2 Energies <==================
	-----------------------------------------------------------
	 SCS Same-Spin Scale       =       0.3333333333333333 [-]
	 SCS Opposite-Spin Scale   =       1.2000000000000000 [-]
	 SCS Same-Spin Energy      =      -0.0917145188256944 [Eh]
	 SCS Opposite-Spin Energy  =      -1.0524627870220704 [Eh]
	 SCS Correlation Energy    =      -1.1441773058477649 [Eh]
	 SCS Total Energy          =    -312.7680088027286160 [Eh]
	-----------------------------------------------------------

*** Psi4 exiting successfully. Buy a developer a beer!
