                               Psi4 1.9 release

  ==> Input File <==

--------------------------------------------------------------------------
MEMORY 60 GB

molecule dimer {
1 1
Li     0.000000     0.000000     0.000000
--
0 1
O     -1.720601    -0.454939     0.668843
H     -2.367035    -0.441477     1.379955
H     -2.112942    -1.235939     0.197061
O      0.258055     1.761577     0.977628
H     -0.298766     2.544675     1.027660
H      0.877315     1.972477     1.753294
O      0.341148     0.486488    -2.065997
H      1.299138     0.518447    -2.285794
H      0.121500     1.408985    -2.167791
O      1.225061    -1.617859     0.341381
H      0.889538    -2.345444     0.815641
H      1.490168    -2.059704    -0.492452

units ang
no_reorient
no_com
symmetry c1
}

set {
basis        aug-cc-pVTZ
scf_type     df
}

energy("mp2", bsse_type="cp")
--------------------------------------------------------------------------

                               Psi4 1.9 release
    Molecular point group: c1
  Charge       = 0
  Multiplicity = 1
  Basis Set: AUG-CC-PVTZ
    Blend: AUG-CC-PVTZ
  Basis Set: (AUG-CC-PVTZ AUX)
    Blend: AUG-CC-PVTZ-JKFIT + DEF2-UNIVERSAL-JKFIT
  @DF-RHF Final Energy:  -304.21103214039715
    Total Energy =                       -304.2110321403971511
 Dipole X            :         -1.5856877            1.3761364           -0.2095513
 Dipole Y            :         -3.3057029            3.3337717            0.0280688
 Dipole Z            :          1.0235848           -0.7513287            0.2722561
 Magnitude           :                                                    0.3447071
  Basis Set: (AUG-CC-PVTZ AUX)
    Blend: AUG-CC-PVTZ-RI + DEF2-QZVPP-RI
	 Reference Energy          =    -304.2110321403971511 [Eh]
	 Singles Energy            =      -0.0000000000000000 [Eh]
	 Same-Spin Energy          =      -0.2778938668778263 [Eh]
	 Opposite-Spin Energy      =      -0.8719846429304190 [Eh]
	 Correlation Energy        =      -1.1498785098082454 [Eh]
	 Total Energy              =    -305.3609106502053692 [Eh]
	 SCS Total Energy          =    -305.3500450008729104 [Eh]
                               Psi4 1.9 release
    Molecular point group: c1
  Multiplicity = 1
  Basis Set: AUG-CC-PVTZ
    Blend: AUG-CC-PVTZ
  Basis Set: (AUG-CC-PVTZ AUX)
    Blend: AUG-CC-PVTZ-JKFIT + DEF2-UNIVERSAL-JKFIT
  @DF-RHF Final Energy:    -7.23638478803837
    Total Energy =                         -7.2363847880383672
  Basis Set: (AUG-CC-PVTZ AUX)
	 Singles Energy            =      -0.0000000000000000 [Eh]
	 Same-Spin Energy          =       0.0000000000000000 [Eh]
	 Opposite-Spin Energy      =      -0.0163973646376139 [Eh]
	 Correlation Energy        =      -0.0163973646376139 [Eh]
	 Total Energy              =      -7.2527821526759819 [Eh]
	 SCS Total Energy          =      -7.2560616256035049 [Eh]
                               Psi4 1.9 release
    Molecular point group: c1

    Geometry (in Bohr), charge = 1, multiplicity = 1:

       Center              X                  Y                   Z               Mass
    ------------   -----------------  -----------------  -----------------  -----------------
         LI           0.000000000000     0.000000000000     0.000000000000     7.016003436600
         O           -3.251464661189    -0.859710113790     1.263930090930    15.994914619570
         H           -4.473047879373    -0.834270620689     2.607737015456     1.007825032230
         H           -3.992881698977    -2.335586217772     0.372391320009     1.007825032230
         O            0.487653275305     3.328898078906     1.847449172579    15.994914619570
         H           -0.564585915599     4.808738828299     1.941995950088     1.007825032230
         H            1.657885075756     3.727441318765     3.313245477408     1.007825032230
         O            0.644676288248     0.919329083322    -3.904168506017    15.994914619570
         H            2.455015019175     0.979722840565    -4.319524639215     1.007825032230
         H            0.229601724243     2.662595764878    -4.096531287232     1.007825032230
         O            2.315029776979    -3.057310419607     0.645116594435    15.994914619570
         H            1.680983198188    -4.432246802598     1.541338106695     1.007825032230
         H            2.816009400921    -3.892276459510    -0.930599409934     1.007825032230

  Charge       = 1
  Multiplicity = 1
  Basis Set: AUG-CC-PVTZ
    Blend: AUG-CC-PVTZ
  Basis Set: (AUG-CC-PVTZ AUX)
    Blend: AUG-CC-PVTZ-JKFIT + DEF2-UNIVERSAL-JKFIT

    Orbital Energies [Eh]
    ---------------------

    Doubly Occupied:

       1A    -20.755142     2A    -20.747154     3A    -20.745671
       4A    -20.742232     5A     -2.546516     6A     -1.539483
       7A     -1.537509     8A     -1.525732     9A     -1.520111
      10A     -0.889767    11A     -0.876969    12A     -0.874005
      13A     -0.864914    14A     -0.811347    15A     -0.786482
      16A     -0.783158    17A     -0.774053    18A     -0.706783
      19A     -0.695951    20A     -0.690769    21A     -0.683761

  @DF-RHF Final Energy:  -311.61764303168673

   => Energetics <=

    Nuclear Repulsion Energy =            157.5459508352411149
    One-Electron Energy =                -736.1321667309612167
    Two-Electron Energy =                 266.9685728640333764
    Total Energy =                       -311.6176430316867254
 Dipole X            :         -1.6250945            1.3761364           -0.2489581
 Dipole Y            :         -3.2926788            3.3337717            0.0410928
 Dipole Z            :          1.0840919           -0.7513287            0.3327633
 Magnitude           :                                                    0.4176125
  Basis Set: (AUG-CC-PVTZ AUX)
    Blend: AUG-CC-PVTZ-RI + DEF2-QZVPP-RI
	 Reference Energy          =    -311.6176430316867254 [Eh]
	 Singles Energy            =      -0.0000000000000000 [Eh]
	 Same-Spin Energy          =      -0.2762802525694806 [Eh]
	 Opposite-Spin Energy      =      -0.8810269685363141 [Eh]
	 Correlation Energy        =      -1.1573072211057949 [Eh]
	 Total Energy              =    -312.7749502527925074 [Eh]

	 ================> DF-SCS-MP2 Energies <==================
	-----------------------------------------------------------
	 SCS Same-Spin Scale       =       0.3333333333333333 [-]
	 SCS Opposite-Spin Scale   =       1.2000000000000000 [-]
	 SCS Same-Spin Energy      =      -0.0920934175231602 [Eh]
	 SCS Opposite-Spin Energy  =      -1.0572323622435769 [Eh]
	 SCS Correlation Energy    =      -1.1493257797667371 [Eh]
	 SCS Total Energy          =    -312.7669688114534665 [Eh]
	-----------------------------------------------------------

*** Psi4 exiting successfully. Buy a developer a beer!
