                               Psi4 1.9 release

  ==> Input File <==

--------------------------------------------------------------------------
MEMORY 60 GB

molecule dimer {
1 1
Li     0.000000     0.000000     0.000000
--
0 1
O      1.718350     0.176551     0.544897
H      2.140398     0.825322    -0.025747
H      1.574066     0.694093     1.420858
O     -0.618594     1.178660    -1.431382
H     -1.462932     1.491536    -1.765382
H     -0.007693     1.643578    -2.053149
O     -0.276860    -1.382086    -1.514478
H     -0.026138    -2.301828    -1.619613
H     -0.080953    -0.943301    -2.378795
O     -1.025451    -0.316730     1.697479
H     -1.827661    -0.788100     1.402480
H     -0.931749    -0.447840     2.626507

units ang
no_reorient
no_com
symmetry c1
}

set {
basis        aug-cc-pVTZ
scf_type     df
}

energy("mp2", bsse_type="cp")
--------------------------------------------------------------------------

                               Psi4 1.9 release
    Molecular point group: c1
  Charge       = 0
  Multiplicity = 1
  Basis Set: AUG-CC-PVTZ
    Blend: AUG-CC-PVTZ
  Basis Set: (AUG-CC-PVTZ AUX)
    Blend: AUG-CC-PVTZ-JKFIT + DEF2-UNIVERSAL-JKFIT
  @DF-RHF Final Energy:  -304.20761665427926
    Total Energy =                       -304.2076166542792635
 Dipole X            :          4.0162665           -4.2388485           -0.2225819
 Dipole Y            :          5.3868656           -4.8667629            0.5201027
 Dipole Z            :         14.5742480          -15.1569509           -0.5827029
 Magnitude           :                                                    0.8121528
  Basis Set: (AUG-CC-PVTZ AUX)
    Blend: AUG-CC-PVTZ-RI + DEF2-QZVPP-RI
	 Reference Energy          =    -304.2076166542792635 [Eh]
	 Singles Energy            =      -0.0000000000000000 [Eh]
	 Same-Spin Energy          =      -0.2787044075611083 [Eh]
	 Opposite-Spin Energy      =      -0.8728646420616327 [Eh]
	 Correlation Energy        =      -1.1515690496227409 [Eh]
	 Total Energy              =    -305.3591857039020283 [Eh]
	 SCS Total Energy          =    -305.3479556939402642 [Eh]
                               Psi4 1.9 release
    Molecular point group: c1
  Multiplicity = 1
  Basis Set: AUG-CC-PVTZ
    Blend: AUG-CC-PVTZ
  Basis Set: (AUG-CC-PVTZ AUX)
    Blend: AUG-CC-PVTZ-JKFIT + DEF2-UNIVERSAL-JKFIT
  @DF-RHF Final Energy:    -7.23638487447337
    Total Energy =                         -7.2363848744733659
  Basis Set: (AUG-CC-PVTZ AUX)
	 Singles Energy            =      -0.0000000000000000 [Eh]
	 Same-Spin Energy          =      -0.0000000000000000 [Eh]
	 Opposite-Spin Energy      =      -0.0169751065732651 [Eh]
	 Correlation Energy        =      -0.0169751065732651 [Eh]
	 Total Energy              =      -7.2533599810466312 [Eh]
	 SCS Total Energy          =      -7.2567550023612837 [Eh]
                               Psi4 1.9 release
    Molecular point group: c1

    Geometry (in Bohr), charge = 1, multiplicity = 1:

       Center              X                  Y                   Z               Mass
    ------------   -----------------  -----------------  -----------------  -----------------
         LI           0.000000000000     0.000000000000     0.000000000000     7.016003436600
         O            3.247210887680     0.333633037176     1.029706096584    15.994914619570
         H            4.044766019478     1.559632545315    -0.048654778552     1.007825032230
         H            2.974553643395     1.311645675597     2.685032483166     1.007825032230
         O           -1.168973242851     2.227344595032    -2.704919960910    15.994914619570
         H           -2.764540820168     2.818594546261    -3.336088486813     1.007825032230
         H           -0.014537663083     3.105912285828    -3.879889304758     1.007825032230
         O           -0.523189575094    -2.611764021830    -2.861948643031    15.994914619570
         H           -0.049393661467    -4.349824507910    -3.060624999231     1.007825032230
         H           -0.152978999034    -1.782580543870    -4.495271058608     1.007825032230
         O           -1.937821545077    -0.598532955716     3.207770413716    15.994914619570
         H           -3.453778740180    -1.489293159473     2.650303096432     1.007825032230
         H           -1.760750427669    -0.846294948025     4.963378896598     1.007825032230

  Charge       = 1
  Multiplicity = 1
  Basis Set: AUG-CC-PVTZ
    Blend: AUG-CC-PVTZ
  Basis Set: (AUG-CC-PVTZ AUX)
    Blend: AUG-CC-PVTZ-JKFIT + DEF2-UNIVERSAL-JKFIT

    Orbital Energies [Eh]
    ---------------------

    Doubly Occupied:

       1A    -20.759946     2A    -20.759229     3A    -20.744964
       4A    -20.733085     5A     -2.536369     6A     -1.545516
       7A     -1.534793     8A     -1.531984     9A     -1.512037
      10A     -0.906895    11A     -0.896133    12A     -0.886482
      13A     -0.882184    14A     -0.808842    15A     -0.783713
      16A     -0.777242    17A     -0.758483    18A     -0.712915
      19A     -0.703318    20A     -0.694229    21A     -0.679505

  @DF-RHF Final Energy:  -311.61196796407660

   => Energetics <=

    Nuclear Repulsion Energy =            163.4570283864216549
    One-Electron Energy =                -747.8422563460447918
    Two-Electron Energy =                 272.7732599955464821
    Total Energy =                       -311.6119679640765980
 Dipole X            :          4.0341740           -4.2388485           -0.2046745
 Dipole Y            :          5.4051140           -4.8667629            0.5383511
 Dipole Z            :         14.4491363          -15.1569509           -0.7078146
 Magnitude           :                                                    0.9125322
  Basis Set: (AUG-CC-PVTZ AUX)
    Blend: AUG-CC-PVTZ-RI + DEF2-QZVPP-RI
	 Reference Energy          =    -311.6119679640765980 [Eh]
	 Singles Energy            =      -0.0000000000000000 [Eh]
	 Same-Spin Energy          =      -0.2769665972975505 [Eh]
	 Opposite-Spin Energy      =      -0.8818285889498166 [Eh]
	 Correlation Energy        =      -1.1587951862473671 [Eh]
	 Total Energy              =    -312.7707631503239440 [Eh]

	 ================> DF-SCS-MP2 Energies <==================
	-----------------------------------------------------------
	 SCS Same-Spin Scale       =       0.3333333333333333 [-]
	 SCS Opposite-Spin Scale   =       1.2000000000000000 [-]
	 SCS Same-Spin Energy      =      -0.0923221990991835 [Eh]
	 SCS Opposite-Spin Energy  =      -1.0581943067397799 [Eh]
	 SCS Correlation Energy    =      -1.1505165058389635 [Eh]
	 SCS Total Energy          =    -312.7624844699155346 [Eh]
	-----------------------------------------------------------

*** Psi4 exiting successfully. Buy a developer a beer!
