                               Psi4 1.8.2 release

  ==> Input File <==

--------------------------------------------------------------------------
MEMORY 60 GB

molecule dimer {
1 1
Li         0.000000     0.000000     0.000000
O          1.062713     1.375749    -0.711183
H          1.377317     2.084377    -0.192248
H          1.714223     1.224250    -1.484560
O          0.041409    -1.808033    -0.905068
H         -0.852499    -2.198037    -1.105551
H          0.420454    -2.347752    -0.193979
O         -1.559472     0.921783     0.230278
H         -1.884578     1.208158    -0.631528
H         -2.246300     0.361082     0.596645
O          0.774279    -0.126335     1.869200
H          0.785258     0.524247     2.549420
H          0.581091    -0.983439     2.283012

units ang
no_reorient
no_com
symmetry c1
}

set {
basis        aug-cc-pVTZ
scf_type     df
}

energy("mp2")
--------------------------------------------------------------------------

    Molecular point group: c1

    Geometry (in Angstrom), charge = 1, multiplicity = 1:

       Center              X                  Y                   Z               Mass
    ------------   -----------------  -----------------  -----------------  -----------------
         LI           0.000000000000     0.000000000000     0.000000000000     7.016003436600
         O            1.062713000000     1.375749000000    -0.711183000000    15.994914619570
         H            1.377317000000     2.084377000000    -0.192248000000     1.007825032230
         H            1.714223000000     1.224250000000    -1.484560000000     1.007825032230
         O            0.041409000000    -1.808033000000    -0.905068000000    15.994914619570
         H           -0.852499000000    -2.198037000000    -1.105551000000     1.007825032230
         H            0.420454000000    -2.347752000000    -0.193979000000     1.007825032230
         O           -1.559472000000     0.921783000000     0.230278000000    15.994914619570
         H           -1.884578000000     1.208158000000    -0.631528000000     1.007825032230
         H           -2.246300000000     0.361082000000     0.596645000000     1.007825032230
         O            0.774279000000    -0.126335000000     1.869200000000    15.994914619570
         H            0.785258000000     0.524247000000     2.549420000000     1.007825032230
         H            0.581091000000    -0.983439000000     2.283012000000     1.007825032230

  Charge       = 1
  Multiplicity = 1
  Basis Set: AUG-CC-PVTZ
    Blend: AUG-CC-PVTZ
  Basis Set: (AUG-CC-PVTZ AUX)
    Blend: AUG-CC-PVTZ-JKFIT + DEF2-UNIVERSAL-JKFIT

    Orbital Energies [Eh]
    ---------------------

    Doubly Occupied:

       1A    -20.759506     2A    -20.752594     3A    -20.745775
       4A    -20.740212     5A     -2.528232     6A     -1.544939
       7A     -1.537046     8A     -1.533159     9A     -1.521719
      10A     -0.909594    11A     -0.907765    12A     -0.896448
      13A     -0.891150    14A     -0.799245    15A     -0.779285
      16A     -0.775541    17A     -0.763513    18A     -0.716563
      19A     -0.702456    20A     -0.696157    21A     -0.687692

  @DF-RHF Final Energy:  -311.61781520229874

   => Energetics <=

    Nuclear Repulsion Energy =            164.2491278628959037
    One-Electron Energy =                -749.3566975382389046
    Two-Electron Energy =                 273.4897544730442860
    Total Energy =                       -311.6178152022987433
 Dipole X            :         -5.0690878            4.6230222           -0.4460656
 Dipole Y            :         -5.7106986            5.2500333           -0.4606653
 Dipole Z            :        -10.1126813           10.7469235            0.6342422
 Magnitude           :                                                    0.9019147
  Basis Set: (AUG-CC-PVTZ AUX)
    Blend: AUG-CC-PVTZ-RI + DEF2-QZVPP-RI
	 Reference Energy          =    -311.6178152022987433 [Eh]
	 Singles Energy            =      -0.0000000000000000 [Eh]
	 Same-Spin Energy          =      -0.2760896048762489 [Eh]
	 Opposite-Spin Energy      =      -0.8801657732798039 [Eh]
	 Correlation Energy        =      -1.1562553781560529 [Eh]
	 Total Energy              =    -312.7740705804548043 [Eh]

	 ================> DF-SCS-MP2 Energies <==================
	-----------------------------------------------------------
	 SCS Same-Spin Scale       =       0.3333333333333333 [-]
	 SCS Opposite-Spin Scale   =       1.2000000000000000 [-]
	 SCS Same-Spin Energy      =      -0.0920298682920830 [Eh]
	 SCS Opposite-Spin Energy  =      -1.0561989279357646 [Eh]
	 SCS Correlation Energy    =      -1.1482287962278477 [Eh]
	 SCS Total Energy          =    -312.7660439985265839 [Eh]
	-----------------------------------------------------------

*** Psi4 exiting successfully. Buy a developer a beer!
