                               Psi4 1.8.2 release

  ==> Input File <==

--------------------------------------------------------------------------
MEMORY 60 GB

molecule dimer {
0 1
Gh(Li)     0.000000     0.000000     0.000000
O          0.814019    -1.627178    -0.750547
H          0.515286    -1.888018    -1.619965
H          1.776685    -1.477163    -0.804751
Gh(O)     -1.975126    -0.101471     0.138953
Gh(H)     -2.662290     0.539971     0.324561
Gh(H)     -2.473143    -0.849112    -0.390923
Gh(O)      0.507752     1.359512    -1.147321
Gh(H)      1.373943     1.714330    -1.381481
Gh(H)      0.123691     1.025614    -1.939705
Gh(O)      0.223291    -0.134039     1.993173
Gh(H)      1.169830    -0.151311     2.130046
Gh(H)      0.009339     0.679243     2.474654

units ang
no_reorient
no_com
symmetry c1
}

set {
basis        aug-cc-pVTZ
scf_type     df
}

energy("mp2")
--------------------------------------------------------------------------

    Molecular point group: c1

    Geometry (in Angstrom), charge = 0, multiplicity = 1:

       Center              X                  Y                   Z               Mass
    ------------   -----------------  -----------------  -----------------  -----------------
      Gh(LI)          0.000000000000     0.000000000000     0.000000000000     7.016003436600
         O            0.814019000000    -1.627178000000    -0.750547000000    15.994914619570
         H            0.515286000000    -1.888018000000    -1.619965000000     1.007825032230
         H            1.776685000000    -1.477163000000    -0.804751000000     1.007825032230
      Gh(O)          -1.975126000000    -0.101471000000     0.138953000000    15.994914619570
      Gh(H)          -2.662290000000     0.539971000000     0.324561000000     1.007825032230
      Gh(H)          -2.473143000000    -0.849112000000    -0.390923000000     1.007825032230
      Gh(O)           0.507752000000     1.359512000000    -1.147321000000    15.994914619570
      Gh(H)           1.373943000000     1.714330000000    -1.381481000000     1.007825032230
      Gh(H)           0.123691000000     1.025614000000    -1.939705000000     1.007825032230
      Gh(O)           0.223291000000    -0.134039000000     1.993173000000    15.994914619570
      Gh(H)           1.169830000000    -0.151311000000     2.130046000000     1.007825032230
      Gh(H)           0.009339000000     0.679243000000     2.474654000000     1.007825032230

  Charge       = 0
  Multiplicity = 1
  Basis Set: AUG-CC-PVTZ
    Blend: AUG-CC-PVTZ
  Basis Set: (AUG-CC-PVTZ AUX)
    Blend: AUG-CC-PVTZ-JKFIT + DEF2-UNIVERSAL-JKFIT

    Orbital Energies [Eh]
    ---------------------

    Doubly Occupied:

       1A    -20.567101     2A     -1.347185     3A     -0.718626
       4A     -0.577487     5A     -0.508752

  @DF-RHF Final Energy:   -76.05978756727485

   => Energetics <=

    Nuclear Repulsion Energy =              9.1084247555647284
    One-Electron Energy =                -122.8981184088088128
    Two-Electron Energy =                  37.7299060859692474
    Total Energy =                        -76.0597875672748387
 Dipole X            :        -16.1968572           16.6373812            0.4405240
 Dipole Y            :         30.8836723          -30.9586367           -0.0749644
 Dipole Z            :         15.3106171          -15.9286754           -0.6180583
 Magnitude           :                                                    0.7626776
  Basis Set: (AUG-CC-PVTZ AUX)
    Blend: AUG-CC-PVTZ-RI + DEF2-QZVPP-RI
	 Reference Energy          =     -76.0597875672748529 [Eh]
	 Singles Energy            =      -0.0000000000000000 [Eh]
	 Same-Spin Energy          =      -0.0685278460161101 [Eh]
	 Opposite-Spin Energy      =      -0.2162762921211909 [Eh]
	 Correlation Energy        =      -0.2848041381373010 [Eh]
	 Total Energy              =     -76.3445917054121566 [Eh]

	 ================> DF-SCS-MP2 Energies <==================
	-----------------------------------------------------------
	 SCS Same-Spin Scale       =       0.3333333333333333 [-]
	 SCS Opposite-Spin Scale   =       1.2000000000000000 [-]
	 SCS Same-Spin Energy      =      -0.0228426153387034 [Eh]
	 SCS Opposite-Spin Energy  =      -0.2595315505454291 [Eh]
	 SCS Correlation Energy    =      -0.2823741658841324 [Eh]
	 SCS Total Energy          =     -76.3421617331589886 [Eh]
	-----------------------------------------------------------

*** Psi4 exiting successfully. Buy a developer a beer!
