                               Psi4 1.8.2 release

  ==> Input File <==

--------------------------------------------------------------------------
MEMORY 60 GB

molecule dimer {
0 1
Gh(Li)     0.000000     0.000000     0.000000
Gh(O)      0.181903     1.777450    -0.729930
Gh(H)      0.593085     1.934525    -1.596672
Gh(H)      0.280321     2.525539    -0.178489
O         -1.196907    -1.054425    -1.199409
H         -2.179947    -1.140973    -1.113703
H         -0.981597    -0.750434    -2.076686
Gh(O)      1.630893    -0.829171     0.343299
Gh(H)      1.796402    -1.357139     1.140948
Gh(H)      2.284558    -1.180292    -0.243308

units ang
no_reorient
no_com
symmetry c1
}

set {
basis        aug-cc-pVTZ
scf_type     df
}

energy("mp2")
--------------------------------------------------------------------------

    Molecular point group: c1

    Geometry (in Angstrom), charge = 0, multiplicity = 1:

       Center              X                  Y                   Z               Mass
    ------------   -----------------  -----------------  -----------------  -----------------
      Gh(LI)          0.000000000000     0.000000000000     0.000000000000     7.016003436600
      Gh(O)           0.181903000000     1.777450000000    -0.729930000000    15.994914619570
      Gh(H)           0.593085000000     1.934525000000    -1.596672000000     1.007825032230
      Gh(H)           0.280321000000     2.525539000000    -0.178489000000     1.007825032230
         O           -1.196907000000    -1.054425000000    -1.199409000000    15.994914619570
         H           -2.179947000000    -1.140973000000    -1.113703000000     1.007825032230
         H           -0.981597000000    -0.750434000000    -2.076686000000     1.007825032230
      Gh(O)           1.630893000000    -0.829171000000     0.343299000000    15.994914619570
      Gh(H)           1.796402000000    -1.357139000000     1.140948000000     1.007825032230
      Gh(H)           2.284558000000    -1.180292000000    -0.243308000000     1.007825032230

  Charge       = 0
  Multiplicity = 1
  Basis Set: AUG-CC-PVTZ
    Blend: AUG-CC-PVTZ
  Basis Set: (AUG-CC-PVTZ AUX)
    Blend: AUG-CC-PVTZ-JKFIT + DEF2-UNIVERSAL-JKFIT

    Orbital Energies [Eh]
    ---------------------

    Doubly Occupied:

       1A    -20.567213     2A     -1.343077     3A     -0.718759
       4A     -0.572580     5A     -0.507667

  @DF-RHF Final Energy:   -76.05829787544722

   => Energetics <=

    Nuclear Repulsion Energy =              9.0491691603980620
    One-Electron Energy =                -122.7963396640276414
    Two-Electron Energy =                  37.6888726281823452
    Total Energy =                        -76.0582978754472379
 Dipole X            :         23.5595584          -24.0690637           -0.5095053
 Dipole Y            :         19.6614150          -19.5148370            0.1465780
 Dipole Z            :         23.6284628          -24.1613976           -0.5329349
 Magnitude           :                                                    0.7517316
  Basis Set: (AUG-CC-PVTZ AUX)
    Blend: AUG-CC-PVTZ-RI + DEF2-QZVPP-RI
	 Reference Energy          =     -76.0582978754472236 [Eh]
	 Singles Energy            =      -0.0000000000000000 [Eh]
	 Same-Spin Energy          =      -0.0685938809109126 [Eh]
	 Opposite-Spin Energy      =      -0.2163641654590668 [Eh]
	 Correlation Energy        =      -0.2849580463699794 [Eh]
	 Total Energy              =     -76.3432559218172031 [Eh]

	 ================> DF-SCS-MP2 Energies <==================
	-----------------------------------------------------------
	 SCS Same-Spin Scale       =       0.3333333333333333 [-]
	 SCS Opposite-Spin Scale   =       1.2000000000000000 [-]
	 SCS Same-Spin Energy      =      -0.0228646269703042 [Eh]
	 SCS Opposite-Spin Energy  =      -0.2596369985508802 [Eh]
	 SCS Correlation Energy    =      -0.2825016255211844 [Eh]
	 SCS Total Energy          =     -76.3407995009684015 [Eh]
	-----------------------------------------------------------

*** Psi4 exiting successfully. Buy a developer a beer!
