                               Psi4 1.8.2 release

  ==> Input File <==

--------------------------------------------------------------------------
MEMORY 60 GB

molecule dimer {
0 1
Gh(Li)     0.000000     0.000000     0.000000
Gh(O)      0.093466     1.102529     1.398467
Gh(H)     -0.286264     0.781074     2.237075
Gh(H)      1.062890     1.237794     1.569113
O         -0.817145    -1.577921     0.295809
H         -0.126605    -2.261842     0.420003
H         -1.199869    -1.626482    -0.594808

units ang
no_reorient
no_com
symmetry c1
}

set {
basis        aug-cc-pVTZ
scf_type     df
}

energy("mp2")
--------------------------------------------------------------------------

    Molecular point group: c1

    Geometry (in Angstrom), charge = 0, multiplicity = 1:

       Center              X                  Y                   Z               Mass
    ------------   -----------------  -----------------  -----------------  -----------------
      Gh(LI)          0.000000000000     0.000000000000     0.000000000000     7.016003436600
      Gh(O)           0.093466000000     1.102529000000     1.398467000000    15.994914619570
      Gh(H)          -0.286264000000     0.781074000000     2.237075000000     1.007825032230
      Gh(H)           1.062890000000     1.237794000000     1.569113000000     1.007825032230
         O           -0.817145000000    -1.577921000000     0.295809000000    15.994914619570
         H           -0.126605000000    -2.261842000000     0.420003000000     1.007825032230
         H           -1.199869000000    -1.626482000000    -0.594808000000     1.007825032230

  Charge       = 0
  Multiplicity = 1
  Basis Set: AUG-CC-PVTZ
    Blend: AUG-CC-PVTZ
  Basis Set: (AUG-CC-PVTZ AUX)
    Blend: AUG-CC-PVTZ-JKFIT + DEF2-UNIVERSAL-JKFIT

    Orbital Energies [Eh]
    ---------------------

    Doubly Occupied:

       1A    -20.567048     2A     -1.340011     3A     -0.719704
       4A     -0.568840     5A     -0.506835

  @DF-RHF Final Energy:   -76.05800035141559

   => Energetics <=

    Nuclear Repulsion Energy =              9.0114995520142180
    One-Electron Energy =                -122.7341214968465835
    Two-Electron Energy =                  37.6646215934167685
    Total Energy =                        -76.0580003514156004
 Dipole X            :         15.0655938          -14.8601146            0.2054792
 Dipole Y            :         30.7113716          -31.2025757           -0.4912042
 Dipole Z            :         -4.6566391            4.1416504           -0.5149888
 Magnitude           :                                                    0.7407541
  Basis Set: (AUG-CC-PVTZ AUX)
    Blend: AUG-CC-PVTZ-RI + DEF2-QZVPP-RI
	 Reference Energy          =     -76.0580003514155862 [Eh]
	 Singles Energy            =      -0.0000000000000000 [Eh]
	 Same-Spin Energy          =      -0.0686463685272752 [Eh]
	 Opposite-Spin Energy      =      -0.2164997123530721 [Eh]
	 Correlation Energy        =      -0.2851460808803472 [Eh]
	 Total Energy              =     -76.3431464322959386 [Eh]

	 ================> DF-SCS-MP2 Energies <==================
	-----------------------------------------------------------
	 SCS Same-Spin Scale       =       0.3333333333333333 [-]
	 SCS Opposite-Spin Scale   =       1.2000000000000000 [-]
	 SCS Same-Spin Energy      =      -0.0228821228424251 [Eh]
	 SCS Opposite-Spin Energy  =      -0.2597996548236864 [Eh]
	 SCS Correlation Energy    =      -0.2826817776661115 [Eh]
	 SCS Total Energy          =     -76.3406821290816993 [Eh]
	-----------------------------------------------------------

*** Psi4 exiting successfully. Buy a developer a beer!
