                               Psi4 1.8.2 release

  ==> Input File <==

--------------------------------------------------------------------------
MEMORY 60 GB

molecule dimer {
0 1
Gh(Li)     0.000000     0.000000     0.000000
Gh(O)     -0.007634    -1.023123    -1.511591
Gh(H)      0.057973    -0.546603    -2.301212
Gh(H)     -0.749478    -1.673774    -1.686888
Gh(O)     -0.253781    -0.523552     1.861966
Gh(H)      0.377486    -1.069012     2.381988
Gh(H)     -0.297109     0.310860     2.309038
Gh(O)     -0.726151     1.712601    -0.023638
Gh(H)     -1.486107     2.345326    -0.255453
Gh(H)      0.048758     2.312731    -0.026328
O          1.873846     0.435239     0.205989
H          2.286734    -0.048458    -0.478572
H          2.531118     0.339515     0.930741

units ang
no_reorient
no_com
symmetry c1
}

set {
basis        aug-cc-pVTZ
scf_type     df
}

energy("mp2")
--------------------------------------------------------------------------

    Molecular point group: c1

    Geometry (in Angstrom), charge = 0, multiplicity = 1:

       Center              X                  Y                   Z               Mass
    ------------   -----------------  -----------------  -----------------  -----------------
      Gh(LI)          0.000000000000     0.000000000000     0.000000000000     7.016003436600
      Gh(O)          -0.007634000000    -1.023123000000    -1.511591000000    15.994914619570
      Gh(H)           0.057973000000    -0.546603000000    -2.301212000000     1.007825032230
      Gh(H)          -0.749478000000    -1.673774000000    -1.686888000000     1.007825032230
      Gh(O)          -0.253781000000    -0.523552000000     1.861966000000    15.994914619570
      Gh(H)           0.377486000000    -1.069012000000     2.381988000000     1.007825032230
      Gh(H)          -0.297109000000     0.310860000000     2.309038000000     1.007825032230
      Gh(O)          -0.726151000000     1.712601000000    -0.023638000000    15.994914619570
      Gh(H)          -1.486107000000     2.345326000000    -0.255453000000     1.007825032230
      Gh(H)           0.048758000000     2.312731000000    -0.026328000000     1.007825032230
         O            1.873846000000     0.435239000000     0.205989000000    15.994914619570
         H            2.286734000000    -0.048458000000    -0.478572000000     1.007825032230
         H            2.531118000000     0.339515000000     0.930741000000     1.007825032230

  Charge       = 0
  Multiplicity = 1
  Basis Set: AUG-CC-PVTZ
    Blend: AUG-CC-PVTZ
  Basis Set: (AUG-CC-PVTZ AUX)
    Blend: AUG-CC-PVTZ-JKFIT + DEF2-UNIVERSAL-JKFIT

    Orbital Energies [Eh]
    ---------------------

    Doubly Occupied:

       1A    -20.568496     2A     -1.355685     3A     -0.710550
       4A     -0.590825     5A     -0.511199

  @DF-RHF Final Energy:   -76.05898586812856

   => Energetics <=

    Nuclear Repulsion Energy =              9.1940990914477965
    One-Electron Energy =                -123.0326569336745592
    Two-Electron Energy =                  37.7795719740981895
    Total Energy =                        -76.0589858681285733
 Dipole X            :        -36.7298543           37.4328667            0.7030124
 Dipole Y            :         -7.5134420            7.1298781           -0.3835639
 Dipole Z            :         -3.9509405            3.9685779            0.0176374
 Magnitude           :                                                    0.8010361
  Basis Set: (AUG-CC-PVTZ AUX)
    Blend: AUG-CC-PVTZ-RI + DEF2-QZVPP-RI
	 Reference Energy          =     -76.0589858681285591 [Eh]
	 Singles Energy            =      -0.0000000000000000 [Eh]
	 Same-Spin Energy          =      -0.0685299926907354 [Eh]
	 Opposite-Spin Energy      =      -0.2163444787239254 [Eh]
	 Correlation Energy        =      -0.2848744714146608 [Eh]
	 Total Energy              =     -76.3438603395432267 [Eh]

	 ================> DF-SCS-MP2 Energies <==================
	-----------------------------------------------------------
	 SCS Same-Spin Scale       =       0.3333333333333333 [-]
	 SCS Opposite-Spin Scale   =       1.2000000000000000 [-]
	 SCS Same-Spin Energy      =      -0.0228433308969118 [Eh]
	 SCS Opposite-Spin Energy  =      -0.2596133744687104 [Eh]
	 SCS Correlation Energy    =      -0.2824567053656222 [Eh]
	 SCS Total Energy          =     -76.3414425734941773 [Eh]
	-----------------------------------------------------------

*** Psi4 exiting successfully. Buy a developer a beer!
