                               Psi4 1.8.2 release

  ==> Input File <==

--------------------------------------------------------------------------
MEMORY 60 GB

molecule dimer {
0 1
Gh(Li)     0.000000     0.000000     0.000000
Gh(O)      0.550681     0.947423     1.505334
Gh(H)      0.161846     0.907748     2.392860
Gh(H)      1.467969     1.175398     1.691757
Gh(O)      0.754605    -1.279638    -0.954929
Gh(H)      0.270620    -2.057244    -1.226441
Gh(H)      1.014806    -0.868615    -1.816737
O          0.567737     1.533188    -1.263215
H          1.376336     2.087318    -1.155885
H         -0.117822     2.050584    -1.738495
Gh(O)     -1.991045     0.342734    -0.264047
Gh(H)     -2.302911     0.449848    -1.148678
Gh(H)     -2.370736     1.090364     0.255936

units ang
no_reorient
no_com
symmetry c1
}

set {
basis        aug-cc-pVTZ
scf_type     df
}

energy("mp2")
--------------------------------------------------------------------------

    Molecular point group: c1

    Geometry (in Angstrom), charge = 0, multiplicity = 1:

       Center              X                  Y                   Z               Mass
    ------------   -----------------  -----------------  -----------------  -----------------
      Gh(LI)          0.000000000000     0.000000000000     0.000000000000     7.016003436600
      Gh(O)           0.550681000000     0.947423000000     1.505334000000    15.994914619570
      Gh(H)           0.161846000000     0.907748000000     2.392860000000     1.007825032230
      Gh(H)           1.467969000000     1.175398000000     1.691757000000     1.007825032230
      Gh(O)           0.754605000000    -1.279638000000    -0.954929000000    15.994914619570
      Gh(H)           0.270620000000    -2.057244000000    -1.226441000000     1.007825032230
      Gh(H)           1.014806000000    -0.868615000000    -1.816737000000     1.007825032230
         O            0.567737000000     1.533188000000    -1.263215000000    15.994914619570
         H            1.376336000000     2.087318000000    -1.155885000000     1.007825032230
         H           -0.117822000000     2.050584000000    -1.738495000000     1.007825032230
      Gh(O)          -1.991045000000     0.342734000000    -0.264047000000    15.994914619570
      Gh(H)          -2.302911000000     0.449848000000    -1.148678000000     1.007825032230
      Gh(H)          -2.370736000000     1.090364000000     0.255936000000     1.007825032230

  Charge       = 0
  Multiplicity = 1
  Basis Set: AUG-CC-PVTZ
    Blend: AUG-CC-PVTZ
  Basis Set: (AUG-CC-PVTZ AUX)
    Blend: AUG-CC-PVTZ-JKFIT + DEF2-UNIVERSAL-JKFIT

    Orbital Energies [Eh]
    ---------------------

    Doubly Occupied:

       1A    -20.569324     2A     -1.336975     3A     -0.711714
       4A     -0.570703     5A     -0.506687

  @DF-RHF Final Energy:   -76.05720914354823

   => Energetics <=

    Nuclear Repulsion Energy =              8.9356084472558255
    One-Electron Energy =                -122.5948247239024056
    Two-Electron Energy =                  37.6020071330983257
    Total Energy =                        -76.0572091435482491
 Dipole X            :        -10.8801861           10.9611863            0.0810002
 Dipole Y            :        -30.2872581           30.9979449            0.7106868
 Dipole Z            :         24.3223003          -24.5666286           -0.2443283
 Magnitude           :                                                    0.7558658
  Basis Set: (AUG-CC-PVTZ AUX)
    Blend: AUG-CC-PVTZ-RI + DEF2-QZVPP-RI
	 Reference Energy          =     -76.0572091435482349 [Eh]
	 Singles Energy            =      -0.0000000000000000 [Eh]
	 Same-Spin Energy          =      -0.0688284996599628 [Eh]
	 Opposite-Spin Energy      =      -0.2171868203621144 [Eh]
	 Correlation Energy        =      -0.2860153200220772 [Eh]
	 Total Energy              =     -76.3432244635703086 [Eh]

	 ================> DF-SCS-MP2 Energies <==================
	-----------------------------------------------------------
	 SCS Same-Spin Scale       =       0.3333333333333333 [-]
	 SCS Opposite-Spin Scale   =       1.2000000000000000 [-]
	 SCS Same-Spin Energy      =      -0.0229428332199876 [Eh]
	 SCS Opposite-Spin Energy  =      -0.2606241844345373 [Eh]
	 SCS Correlation Energy    =      -0.2835670176545249 [Eh]
	 SCS Total Energy          =     -76.3407761612027542 [Eh]
	-----------------------------------------------------------

*** Psi4 exiting successfully. Buy a developer a beer!
