                               Psi4 1.8.2 release

  ==> Input File <==

--------------------------------------------------------------------------
MEMORY 60 GB

molecule dimer {
0 1
Gh(Li)     0.000000     0.000000     0.000000
Gh(O)      0.647883     0.164741    -1.949481
Gh(H)      0.795272    -0.525507    -2.602115
Gh(H)      0.457108     1.105193    -2.354509
O         -0.976045     1.405748     0.625342
H         -0.496767     2.104540     1.009624
H         -1.582079     1.799875     0.027250
Gh(O)     -1.260034    -1.585226     0.021824
Gh(H)     -0.751180    -2.408299    -0.156525
Gh(H)     -2.038513    -1.751498    -0.490334
Gh(O)      1.554816    -0.718133     0.753645
Gh(H)      1.658146    -1.557676     1.200674
Gh(H)      2.157510    -0.074449     1.263032

units ang
no_reorient
no_com
symmetry c1
}

set {
basis        aug-cc-pVTZ
scf_type     df
}

energy("mp2")
--------------------------------------------------------------------------

    Molecular point group: c1

    Geometry (in Angstrom), charge = 0, multiplicity = 1:

       Center              X                  Y                   Z               Mass
    ------------   -----------------  -----------------  -----------------  -----------------
      Gh(LI)          0.000000000000     0.000000000000     0.000000000000     7.016003436600
      Gh(O)           0.647883000000     0.164741000000    -1.949481000000    15.994914619570
      Gh(H)           0.795272000000    -0.525507000000    -2.602115000000     1.007825032230
      Gh(H)           0.457108000000     1.105193000000    -2.354509000000     1.007825032230
         O           -0.976045000000     1.405748000000     0.625342000000    15.994914619570
         H           -0.496767000000     2.104540000000     1.009624000000     1.007825032230
         H           -1.582079000000     1.799875000000     0.027250000000     1.007825032230
      Gh(O)          -1.260034000000    -1.585226000000     0.021824000000    15.994914619570
      Gh(H)          -0.751180000000    -2.408299000000    -0.156525000000     1.007825032230
      Gh(H)          -2.038513000000    -1.751498000000    -0.490334000000     1.007825032230
      Gh(O)           1.554816000000    -0.718133000000     0.753645000000    15.994914619570
      Gh(H)           1.658146000000    -1.557676000000     1.200674000000     1.007825032230
      Gh(H)           2.157510000000    -0.074449000000     1.263032000000     1.007825032230

  Charge       = 0
  Multiplicity = 1
  Basis Set: AUG-CC-PVTZ
    Blend: AUG-CC-PVTZ
  Basis Set: (AUG-CC-PVTZ AUX)
    Blend: AUG-CC-PVTZ-JKFIT + DEF2-UNIVERSAL-JKFIT

    Orbital Energies [Eh]
    ---------------------

    Doubly Occupied:

       1A    -20.562056     2A     -1.364352     3A     -0.734093
       4A     -0.585695     5A     -0.511801

  @DF-RHF Final Energy:   -76.06120820853945

   => Energetics <=

    Nuclear Repulsion Energy =              9.4158877953609359
    One-Electron Energy =                -123.4381970812709568
    Two-Electron Energy =                  37.9611010773705644
    Total Energy =                        -76.0612082085394547
 Dipole X            :         18.5989504          -18.6841115           -0.0851611
 Dipole Y            :        -27.8883840           28.6301048            0.7417208
 Dipole Z            :        -11.5572322           11.4132088           -0.1440234
 Magnitude           :                                                    0.7603584
  Basis Set: (AUG-CC-PVTZ AUX)
    Blend: AUG-CC-PVTZ-RI + DEF2-QZVPP-RI
	 Reference Energy          =     -76.0612082085394547 [Eh]
	 Singles Energy            =      -0.0000000000000000 [Eh]
	 Same-Spin Energy          =      -0.0680059099358864 [Eh]
	 Opposite-Spin Energy      =      -0.2147065885633870 [Eh]
	 Correlation Energy        =      -0.2827124984992734 [Eh]
	 Total Energy              =     -76.3439207070387340 [Eh]

	 ================> DF-SCS-MP2 Energies <==================
	-----------------------------------------------------------
	 SCS Same-Spin Scale       =       0.3333333333333333 [-]
	 SCS Opposite-Spin Scale   =       1.2000000000000000 [-]
	 SCS Same-Spin Energy      =      -0.0226686366452955 [Eh]
	 SCS Opposite-Spin Energy  =      -0.2576479062760644 [Eh]
	 SCS Correlation Energy    =      -0.2803165429213599 [Eh]
	 SCS Total Energy          =     -76.3415247514608097 [Eh]
	-----------------------------------------------------------

*** Psi4 exiting successfully. Buy a developer a beer!
