                               Psi4 1.9 release

  ==> Input File <==

--------------------------------------------------------------------------
MEMORY 60 GB

molecule dimer {
1 1
Li     0.000000     0.000000     0.000000
--
0 1
O      1.299347     0.956897     0.998050
H      1.806091     0.778889     1.791766
H      1.907700     1.397453     0.354713
O      0.788217    -1.762217    -0.333958
H      1.729744    -1.520162    -0.415695
H      0.651676    -2.440430    -1.018478
O     -0.077999     0.850460    -1.769933
H     -0.317966     0.168123    -2.426238
H      0.304412     1.595957    -2.317515
O     -1.921903    -0.461436     0.503499
H     -1.892553    -1.068522     1.298601
H     -2.648587     0.212851     0.631248

units ang
no_reorient
no_com
symmetry c1
}

set {
basis        aug-cc-pVTZ
scf_type     df
}

energy("mp2", bsse_type="cp")
--------------------------------------------------------------------------

                               Psi4 1.9 release
    Molecular point group: c1
  Charge       = 0
  Multiplicity = 1
  Basis Set: AUG-CC-PVTZ
    Blend: AUG-CC-PVTZ
  Basis Set: (AUG-CC-PVTZ AUX)
    Blend: AUG-CC-PVTZ-JKFIT + DEF2-UNIVERSAL-JKFIT
  @DF-RHF Final Energy:  -304.20998935657440
    Total Energy =                       -304.2099893565743969
 Dipole X            :         -3.4010143            4.2364126            0.8353983
 Dipole Y            :          7.9401166           -7.9485830           -0.0084664
 Dipole Z            :         12.5481491          -13.0775360           -0.5293869
 Magnitude           :                                                    0.9890462
  Basis Set: (AUG-CC-PVTZ AUX)
    Blend: AUG-CC-PVTZ-RI + DEF2-QZVPP-RI
	 Reference Energy          =    -304.2099893565743969 [Eh]
	 Singles Energy            =      -0.0000000000000000 [Eh]
	 Same-Spin Energy          =      -0.2786261167960232 [Eh]
	 Opposite-Spin Energy      =      -0.8737429209691633 [Eh]
	 Correlation Energy        =      -1.1523690377651865 [Eh]
	 Total Energy              =    -305.3623583943395943 [Eh]
	 SCS Total Energy          =    -305.3513562340027079 [Eh]
                               Psi4 1.9 release
    Molecular point group: c1
  Multiplicity = 1
  Basis Set: AUG-CC-PVTZ
    Blend: AUG-CC-PVTZ
  Basis Set: (AUG-CC-PVTZ AUX)
    Blend: AUG-CC-PVTZ-JKFIT + DEF2-UNIVERSAL-JKFIT
  @DF-RHF Final Energy:    -7.23638490460717
    Total Energy =                         -7.2363849046071662
  Basis Set: (AUG-CC-PVTZ AUX)
	 Singles Energy            =      -0.0000000000000000 [Eh]
	 Same-Spin Energy          =       0.0000000000000000 [Eh]
	 Opposite-Spin Energy      =      -0.0169682508945688 [Eh]
	 Correlation Energy        =      -0.0169682508945688 [Eh]
	 Total Energy              =      -7.2533531555017348 [Eh]
	 SCS Total Energy          =      -7.2567468056806490 [Eh]
                               Psi4 1.9 release
    Molecular point group: c1

    Geometry (in Bohr), charge = 1, multiplicity = 1:

       Center              X                  Y                   Z               Mass
    ------------   -----------------  -----------------  -----------------  -----------------
         LI           0.000000000000     0.000000000000     0.000000000000     7.016003436600
         O            2.455409971935     1.808273260272     1.886041159513    15.994914619570
         H            3.413017347654     1.471886892132     3.385947020907     1.007825032230
         H            3.605030529536     2.640803443199     0.670310423140     1.007825032230
         O            1.489514257430    -3.330107503626    -0.631089157406    15.994914619570
         H            3.268742427154    -2.872689846328    -0.785549701722     1.007825032230
         H            1.231489162534    -4.611744328351    -1.924644484804     1.007825032230
         O           -0.147396748060     1.607136480657    -3.344688630410    15.994914619570
         H           -0.600868657207     0.317706425390    -4.584925335179     1.007825032230
         H            0.575255309303     3.015921638007    -4.379468641640     1.007825032230
         O           -3.631870309696    -0.871987664427     0.951475214442    15.994914619570
         H           -3.576406847914    -2.019213939026     2.454000236246     1.007825032230
         H           -5.005104049448     0.402230095530     1.192885837243     1.007825032230

  Charge       = 1
  Multiplicity = 1
  Basis Set: AUG-CC-PVTZ
    Blend: AUG-CC-PVTZ
  Basis Set: (AUG-CC-PVTZ AUX)
    Blend: AUG-CC-PVTZ-JKFIT + DEF2-UNIVERSAL-JKFIT

    Orbital Energies [Eh]
    ---------------------

    Doubly Occupied:

       1A    -20.756427     2A    -20.752745     3A    -20.750371
       4A    -20.738035     5A     -2.533124     6A     -1.538411
       7A     -1.531381     8A     -1.524327     9A     -1.500089
      10A     -0.906553    11A     -0.893141    12A     -0.884552
      13A     -0.870691    14A     -0.793190    15A     -0.782376
      16A     -0.780613    17A     -0.748693    18A     -0.709967
      19A     -0.702310    20A     -0.687885    21A     -0.679742

  @DF-RHF Final Energy:  -311.62005967254998

   => Energetics <=

    Nuclear Repulsion Energy =            161.6024822364815066
    One-Electron Energy =                -744.3158375064018628
    Two-Electron Energy =                 271.0932955973703997
    Total Energy =                       -311.6200596725499850
 Dipole X            :         -3.2929899            4.2364126            0.9434227
 Dipole Y            :          7.8905059           -7.9485830           -0.0580771
 Dipole Z            :         12.3970435          -13.0775360           -0.6804925
 Magnitude           :                                                    1.1646843
  Basis Set: (AUG-CC-PVTZ AUX)
    Blend: AUG-CC-PVTZ-RI + DEF2-QZVPP-RI
	 Reference Energy          =    -311.6200596725499850 [Eh]
	 Singles Energy            =      -0.0000000000000000 [Eh]
	 Same-Spin Energy          =      -0.2769182384092937 [Eh]
	 Opposite-Spin Energy      =      -0.8826793881391577 [Eh]
	 Correlation Energy        =      -1.1595976265484513 [Eh]
	 Total Energy              =    -312.7796572990984600 [Eh]

	 ================> DF-SCS-MP2 Energies <==================
	-----------------------------------------------------------
	 SCS Same-Spin Scale       =       0.3333333333333333 [-]
	 SCS Opposite-Spin Scale   =       1.2000000000000000 [-]
	 SCS Same-Spin Energy      =      -0.0923060794697646 [Eh]
	 SCS Opposite-Spin Energy  =      -1.0592152657669891 [Eh]
	 SCS Correlation Energy    =      -1.1515213452367536 [Eh]
	 SCS Total Energy          =    -312.7715810177867297 [Eh]
	-----------------------------------------------------------

*** Psi4 exiting successfully. Buy a developer a beer!
