                               Psi4 1.8.2 release

  ==> Input File <==

--------------------------------------------------------------------------
MEMORY 60 GB

molecule dimer {
1 1
Li         0.000000     0.000000     0.000000
Gh(O)      1.056062    -1.621139     0.605492
Gh(H)      0.657898    -1.924066     1.466835
Gh(H)      0.678270    -2.222927    -0.068093
Gh(O)     -1.664286    -1.351635    -0.323212
Gh(H)     -2.097255    -1.625415     0.520939
Gh(H)     -1.181759    -2.115258    -0.708871
Gh(O)      1.307126     0.723288    -1.076590
Gh(H)      1.447275     1.658691    -1.070913
Gh(H)      1.155631     0.530295    -2.029499
Gh(O)     -0.786428     0.739205     1.471793
Gh(H)     -1.448992     0.238338     1.921415
Gh(H)     -1.179357     1.636730     1.603301

units ang
no_reorient
no_com
symmetry c1
}

set {
basis        aug-cc-pVTZ
scf_type     df
}

energy("mp2")
--------------------------------------------------------------------------

    Molecular point group: c1

    Geometry (in Angstrom), charge = 1, multiplicity = 1:

       Center              X                  Y                   Z               Mass
    ------------   -----------------  -----------------  -----------------  -----------------
         LI           0.000000000000     0.000000000000     0.000000000000     7.016003436600
      Gh(O)           1.056062000000    -1.621139000000     0.605492000000    15.994914619570
      Gh(H)           0.657898000000    -1.924066000000     1.466835000000     1.007825032230
      Gh(H)           0.678270000000    -2.222927000000    -0.068093000000     1.007825032230
      Gh(O)          -1.664286000000    -1.351635000000    -0.323212000000    15.994914619570
      Gh(H)          -2.097255000000    -1.625415000000     0.520939000000     1.007825032230
      Gh(H)          -1.181759000000    -2.115258000000    -0.708871000000     1.007825032230
      Gh(O)           1.307126000000     0.723288000000    -1.076590000000    15.994914619570
      Gh(H)           1.447275000000     1.658691000000    -1.070913000000     1.007825032230
      Gh(H)           1.155631000000     0.530295000000    -2.029499000000     1.007825032230
      Gh(O)          -0.786428000000     0.739205000000     1.471793000000    15.994914619570
      Gh(H)          -1.448992000000     0.238338000000     1.921415000000     1.007825032230
      Gh(H)          -1.179357000000     1.636730000000     1.603301000000     1.007825032230

  Charge       = 1
  Multiplicity = 1
  Basis Set: AUG-CC-PVTZ
    Blend: AUG-CC-PVTZ
  Basis Set: (AUG-CC-PVTZ AUX)
    Blend: AUG-CC-PVTZ-JKFIT + DEF2-UNIVERSAL-JKFIT

    Orbital Energies [Eh]
    ---------------------

    Doubly Occupied:

       1A     -2.792352

  @DF-RHF Final Energy:    -7.23638485556386

   => Energetics <=

    Nuclear Repulsion Energy =              0.0000000000000000
    One-Electron Energy =                  -8.8880663207158932
    Two-Electron Energy =                   1.6516814651520284
    Total Energy =                         -7.2363848555638643
 Dipole X            :         -0.0000010            0.0000000           -0.0000010
 Dipole Y            :         -0.0000026            0.0000000           -0.0000026
 Dipole Z            :         -0.0000047            0.0000000           -0.0000047
 Magnitude           :                                                    0.0000054
  Basis Set: (AUG-CC-PVTZ AUX)
    Blend: AUG-CC-PVTZ-RI + DEF2-QZVPP-RI
	 Reference Energy          =      -7.2363848555638643 [Eh]
	 Singles Energy            =      -0.0000000000000000 [Eh]
	 Same-Spin Energy          =       0.0000000000000000 [Eh]
	 Opposite-Spin Energy      =      -0.0170152006341095 [Eh]
	 Correlation Energy        =      -0.0170152006341095 [Eh]
	 Total Energy              =      -7.2534000561979735 [Eh]

	 ================> DF-SCS-MP2 Energies <==================
	-----------------------------------------------------------
	 SCS Same-Spin Scale       =       0.3333333333333333 [-]
	 SCS Opposite-Spin Scale   =       1.2000000000000000 [-]
	 SCS Same-Spin Energy      =       0.0000000000000000 [Eh]
	 SCS Opposite-Spin Energy  =      -0.0204182407609314 [Eh]
	 SCS Correlation Energy    =      -0.0204182407609314 [Eh]
	 SCS Total Energy          =      -7.2568030963247958 [Eh]
	-----------------------------------------------------------

*** Psi4 exiting successfully. Buy a developer a beer!
