                               Psi4 1.8.2 release

  ==> Input File <==

--------------------------------------------------------------------------
MEMORY 60 GB

molecule dimer {
1 1
Li         0.000000     0.000000     0.000000
Gh(O)     -0.807644    -1.260844     1.138757
Gh(H)     -1.635519    -1.682311     1.327527
Gh(H)     -0.286736    -1.509910     1.936379
Gh(O)      1.759330    -0.684963    -0.247588
Gh(H)      2.421120    -1.170058     0.269103
Gh(H)      2.085332    -0.643141    -1.168976
Gh(O)      0.088216     1.807821     0.564857
Gh(H)      0.651141     1.422611     1.287139
Gh(H)     -0.618624     2.368710     0.980290
Gh(O)     -1.057908    -0.426688    -1.597347
Gh(H)     -0.748099    -0.459222    -2.547429
Gh(H)     -1.560666    -1.268597    -1.484747

units ang
no_reorient
no_com
symmetry c1
}

set {
basis        aug-cc-pVTZ
scf_type     df
}

energy("mp2")
--------------------------------------------------------------------------

    Molecular point group: c1

    Geometry (in Angstrom), charge = 1, multiplicity = 1:

       Center              X                  Y                   Z               Mass
    ------------   -----------------  -----------------  -----------------  -----------------
         LI           0.000000000000     0.000000000000     0.000000000000     7.016003436600
      Gh(O)          -0.807644000000    -1.260844000000     1.138757000000    15.994914619570
      Gh(H)          -1.635519000000    -1.682311000000     1.327527000000     1.007825032230
      Gh(H)          -0.286736000000    -1.509910000000     1.936379000000     1.007825032230
      Gh(O)           1.759330000000    -0.684963000000    -0.247588000000    15.994914619570
      Gh(H)           2.421120000000    -1.170058000000     0.269103000000     1.007825032230
      Gh(H)           2.085332000000    -0.643141000000    -1.168976000000     1.007825032230
      Gh(O)           0.088216000000     1.807821000000     0.564857000000    15.994914619570
      Gh(H)           0.651141000000     1.422611000000     1.287139000000     1.007825032230
      Gh(H)          -0.618624000000     2.368710000000     0.980290000000     1.007825032230
      Gh(O)          -1.057908000000    -0.426688000000    -1.597347000000    15.994914619570
      Gh(H)          -0.748099000000    -0.459222000000    -2.547429000000     1.007825032230
      Gh(H)          -1.560666000000    -1.268597000000    -1.484747000000     1.007825032230

  Charge       = 1
  Multiplicity = 1
  Basis Set: AUG-CC-PVTZ
    Blend: AUG-CC-PVTZ
  Basis Set: (AUG-CC-PVTZ AUX)
    Blend: AUG-CC-PVTZ-JKFIT + DEF2-UNIVERSAL-JKFIT

    Orbital Energies [Eh]
    ---------------------

    Doubly Occupied:

       1A     -2.792352

  @DF-RHF Final Energy:    -7.23638497361818

   => Energetics <=

    Nuclear Repulsion Energy =              0.0000000000000000
    One-Electron Energy =                  -8.8880660735360486
    Two-Electron Energy =                   1.6516810999178675
    Total Energy =                         -7.2363849736181809
 Dipole X            :         -0.0000043            0.0000000           -0.0000043
 Dipole Y            :          0.0000069            0.0000000            0.0000069
 Dipole Z            :         -0.0000042            0.0000000           -0.0000042
 Magnitude           :                                                    0.0000092
  Basis Set: (AUG-CC-PVTZ AUX)
    Blend: AUG-CC-PVTZ-RI + DEF2-QZVPP-RI
	 Reference Energy          =      -7.2363849736181809 [Eh]
	 Singles Energy            =      -0.0000000000000000 [Eh]
	 Same-Spin Energy          =       0.0000000000000000 [Eh]
	 Opposite-Spin Energy      =      -0.0174593944671053 [Eh]
	 Correlation Energy        =      -0.0174593944671053 [Eh]
	 Total Energy              =      -7.2538443680852867 [Eh]

	 ================> DF-SCS-MP2 Energies <==================
	-----------------------------------------------------------
	 SCS Same-Spin Scale       =       0.3333333333333333 [-]
	 SCS Opposite-Spin Scale   =       1.2000000000000000 [-]
	 SCS Same-Spin Energy      =       0.0000000000000000 [Eh]
	 SCS Opposite-Spin Energy  =      -0.0209512733605264 [Eh]
	 SCS Correlation Energy    =      -0.0209512733605264 [Eh]
	 SCS Total Energy          =      -7.2573362469787073 [Eh]
	-----------------------------------------------------------

*** Psi4 exiting successfully. Buy a developer a beer!
