                               Psi4 1.8.2 release

  ==> Input File <==

--------------------------------------------------------------------------
MEMORY 60 GB

molecule dimer {
0 1
Gh(Li)     0.000000     0.000000     0.000000
Gh(O)     -0.398786    -1.589021    -1.083653
Gh(H)      0.104594    -1.896182    -1.796161
Gh(H)     -0.340299    -2.316178    -0.427544
Gh(O)      1.473191    -0.539863     0.795211
Gh(H)      2.355782    -0.467384     0.412253
Gh(H)      1.505819    -1.406148     1.233169
Gh(O)      0.501553     1.463017    -1.262223
Gh(H)     -0.051961     1.314977    -2.033203
Gh(H)      1.407051     1.606647    -1.681690
O         -1.690669     0.465935     0.912623
H         -1.690927     0.654825     1.943650
H         -2.533637     0.109345     0.695255

units ang
no_reorient
no_com
symmetry c1
}

set {
basis        aug-cc-pVTZ
scf_type     df
}

energy("mp2")
--------------------------------------------------------------------------

    Molecular point group: c1

    Geometry (in Angstrom), charge = 0, multiplicity = 1:

       Center              X                  Y                   Z               Mass
    ------------   -----------------  -----------------  -----------------  -----------------
      Gh(LI)          0.000000000000     0.000000000000     0.000000000000     7.016003436600
      Gh(O)          -0.398786000000    -1.589021000000    -1.083653000000    15.994914619570
      Gh(H)           0.104594000000    -1.896182000000    -1.796161000000     1.007825032230
      Gh(H)          -0.340299000000    -2.316178000000    -0.427544000000     1.007825032230
      Gh(O)           1.473191000000    -0.539863000000     0.795211000000    15.994914619570
      Gh(H)           2.355782000000    -0.467384000000     0.412253000000     1.007825032230
      Gh(H)           1.505819000000    -1.406148000000     1.233169000000     1.007825032230
      Gh(O)           0.501553000000     1.463017000000    -1.262223000000    15.994914619570
      Gh(H)          -0.051961000000     1.314977000000    -2.033203000000     1.007825032230
      Gh(H)           1.407051000000     1.606647000000    -1.681690000000     1.007825032230
         O           -1.690669000000     0.465935000000     0.912623000000    15.994914619570
         H           -1.690927000000     0.654825000000     1.943650000000     1.007825032230
         H           -2.533637000000     0.109345000000     0.695255000000     1.007825032230

  Charge       = 0
  Multiplicity = 1
  Basis Set: AUG-CC-PVTZ
    Blend: AUG-CC-PVTZ
  Basis Set: (AUG-CC-PVTZ AUX)
    Blend: AUG-CC-PVTZ-JKFIT + DEF2-UNIVERSAL-JKFIT

    Orbital Energies [Eh]
    ---------------------

    Doubly Occupied:

       1A    -20.571473     2A     -1.335870     3A     -0.703553
       4A     -0.571613     5A     -0.506765

  @DF-RHF Final Energy:   -76.05106151838535

   => Energetics <=

    Nuclear Repulsion Energy =              8.8692071575700187
    One-Electron Energy =                -122.4619850233424359
    Two-Electron Energy =                  37.5417163473870588
    Total Energy =                        -76.0510615183853531
 Dipole X            :         32.9805970          -33.5424800           -0.5618830
 Dipole Y            :         -8.6035997            8.4879884           -0.1156114
 Dipole Z            :        -18.2634956           18.7836679            0.5201723
 Magnitude           :                                                    0.7743757
  Basis Set: (AUG-CC-PVTZ AUX)
    Blend: AUG-CC-PVTZ-RI + DEF2-QZVPP-RI
	 Reference Energy          =     -76.0510615183853531 [Eh]
	 Singles Energy            =      -0.0000000000000000 [Eh]
	 Same-Spin Energy          =      -0.0689863474048936 [Eh]
	 Opposite-Spin Energy      =      -0.2179039609001899 [Eh]
	 Correlation Energy        =      -0.2868903083050835 [Eh]
	 Total Energy              =     -76.3379518266904427 [Eh]

	 ================> DF-SCS-MP2 Energies <==================
	-----------------------------------------------------------
	 SCS Same-Spin Scale       =       0.3333333333333333 [-]
	 SCS Opposite-Spin Scale   =       1.2000000000000000 [-]
	 SCS Same-Spin Energy      =      -0.0229954491349645 [Eh]
	 SCS Opposite-Spin Energy  =      -0.2614847530802278 [Eh]
	 SCS Correlation Energy    =      -0.2844802022151924 [Eh]
	 SCS Total Energy          =     -76.3355417206005455 [Eh]
	-----------------------------------------------------------

*** Psi4 exiting successfully. Buy a developer a beer!
