                               Psi4 1.8.2 release

  ==> Input File <==

--------------------------------------------------------------------------
MEMORY 60 GB

molecule dimer {
1 1
Li         0.000000     0.000000     0.000000
Gh(O)      1.650053    -0.530993    -1.064242
Gh(H)      2.392035    -0.101949    -0.686952
Gh(H)      1.463285    -0.258144    -1.959656
Gh(O)     -0.289415    -0.712498     1.685242
Gh(H)     -1.101029    -0.657522     2.234823
Gh(H)     -0.070434    -1.611500     1.899930
Gh(O)      0.217487     1.895362     0.182598
Gh(H)     -0.273195     2.192923     0.988240
Gh(H)      1.131525     2.307122     0.234605
Gh(O)     -1.285096    -0.509246    -1.306926
Gh(H)     -0.917246    -0.560268    -2.152485
Gh(H)     -1.585156    -1.421720    -1.166242

units ang
no_reorient
no_com
symmetry c1
}

set {
basis        aug-cc-pVTZ
scf_type     df
}

energy("mp2")
--------------------------------------------------------------------------

    Molecular point group: c1

    Geometry (in Angstrom), charge = 1, multiplicity = 1:

       Center              X                  Y                   Z               Mass
    ------------   -----------------  -----------------  -----------------  -----------------
         LI           0.000000000000     0.000000000000     0.000000000000     7.016003436600
      Gh(O)           1.650053000000    -0.530993000000    -1.064242000000    15.994914619570
      Gh(H)           2.392035000000    -0.101949000000    -0.686952000000     1.007825032230
      Gh(H)           1.463285000000    -0.258144000000    -1.959656000000     1.007825032230
      Gh(O)          -0.289415000000    -0.712498000000     1.685242000000    15.994914619570
      Gh(H)          -1.101029000000    -0.657522000000     2.234823000000     1.007825032230
      Gh(H)          -0.070434000000    -1.611500000000     1.899930000000     1.007825032230
      Gh(O)           0.217487000000     1.895362000000     0.182598000000    15.994914619570
      Gh(H)          -0.273195000000     2.192923000000     0.988240000000     1.007825032230
      Gh(H)           1.131525000000     2.307122000000     0.234605000000     1.007825032230
      Gh(O)          -1.285096000000    -0.509246000000    -1.306926000000    15.994914619570
      Gh(H)          -0.917246000000    -0.560268000000    -2.152485000000     1.007825032230
      Gh(H)          -1.585156000000    -1.421720000000    -1.166242000000     1.007825032230

  Charge       = 1
  Multiplicity = 1
  Basis Set: AUG-CC-PVTZ
    Blend: AUG-CC-PVTZ
  Basis Set: (AUG-CC-PVTZ AUX)
    Blend: AUG-CC-PVTZ-JKFIT + DEF2-UNIVERSAL-JKFIT

    Orbital Energies [Eh]
    ---------------------

    Doubly Occupied:

       1A     -2.792353

  @DF-RHF Final Energy:    -7.23638491480710

   => Energetics <=

    Nuclear Repulsion Energy =              0.0000000000000000
    One-Electron Energy =                  -8.8880645560612770
    Two-Electron Energy =                   1.6516796412541757
    Total Energy =                         -7.2363849148071013
 Dipole X            :          0.0000043            0.0000000            0.0000043
 Dipole Y            :         -0.0000006            0.0000000           -0.0000006
 Dipole Z            :         -0.0000000            0.0000000           -0.0000000
 Magnitude           :                                                    0.0000043
  Basis Set: (AUG-CC-PVTZ AUX)
    Blend: AUG-CC-PVTZ-RI + DEF2-QZVPP-RI
	 Reference Energy          =      -7.2363849148071004 [Eh]
	 Singles Energy            =      -0.0000000000000000 [Eh]
	 Same-Spin Energy          =       0.0000000000000000 [Eh]
	 Opposite-Spin Energy      =      -0.0173231113212374 [Eh]
	 Correlation Energy        =      -0.0173231113212374 [Eh]
	 Total Energy              =      -7.2537080261283382 [Eh]

	 ================> DF-SCS-MP2 Energies <==================
	-----------------------------------------------------------
	 SCS Same-Spin Scale       =       0.3333333333333333 [-]
	 SCS Opposite-Spin Scale   =       1.2000000000000000 [-]
	 SCS Same-Spin Energy      =       0.0000000000000000 [Eh]
	 SCS Opposite-Spin Energy  =      -0.0207877335854849 [Eh]
	 SCS Correlation Energy    =      -0.0207877335854849 [Eh]
	 SCS Total Energy          =      -7.2571726483925856 [Eh]
	-----------------------------------------------------------

*** Psi4 exiting successfully. Buy a developer a beer!
