                               Psi4 1.8.2 release

  ==> Input File <==

--------------------------------------------------------------------------
MEMORY 60 GB

molecule dimer {
0 1
Gh(Li)     0.000000     0.000000     0.000000
Gh(O)      1.639321    -0.729901    -0.741028
Gh(H)      2.317640    -0.292230    -0.190534
Gh(H)      1.830515    -0.437536    -1.637740
Gh(O)     -1.213233    -0.784151    -1.126646
Gh(H)     -2.144486    -0.625012    -0.756992
Gh(H)     -1.331930    -0.459099    -2.088330
Gh(O)      0.356812     1.866213     0.273167
Gh(H)      0.727568     1.761017     1.166760
Gh(H)     -0.181844     2.672161     0.214819
O         -0.385442    -0.624008     1.841742
H         -1.072760     0.019128     2.225122
H          0.268191    -0.695409     2.554002

units ang
no_reorient
no_com
symmetry c1
}

set {
basis        aug-cc-pVTZ
scf_type     df
}

energy("mp2")
--------------------------------------------------------------------------

    Molecular point group: c1

    Geometry (in Angstrom), charge = 0, multiplicity = 1:

       Center              X                  Y                   Z               Mass
    ------------   -----------------  -----------------  -----------------  -----------------
      Gh(LI)          0.000000000000     0.000000000000     0.000000000000     7.016003436600
      Gh(O)           1.639321000000    -0.729901000000    -0.741028000000    15.994914619570
      Gh(H)           2.317640000000    -0.292230000000    -0.190534000000     1.007825032230
      Gh(H)           1.830515000000    -0.437536000000    -1.637740000000     1.007825032230
      Gh(O)          -1.213233000000    -0.784151000000    -1.126646000000    15.994914619570
      Gh(H)          -2.144486000000    -0.625012000000    -0.756992000000     1.007825032230
      Gh(H)          -1.331930000000    -0.459099000000    -2.088330000000     1.007825032230
      Gh(O)           0.356812000000     1.866213000000     0.273167000000    15.994914619570
      Gh(H)           0.727568000000     1.761017000000     1.166760000000     1.007825032230
      Gh(H)          -0.181844000000     2.672161000000     0.214819000000     1.007825032230
         O           -0.385442000000    -0.624008000000     1.841742000000    15.994914619570
         H           -1.072760000000     0.019128000000     2.225122000000     1.007825032230
         H            0.268191000000    -0.695409000000     2.554002000000     1.007825032230

  Charge       = 0
  Multiplicity = 1
  Basis Set: AUG-CC-PVTZ
    Blend: AUG-CC-PVTZ
  Basis Set: (AUG-CC-PVTZ AUX)
    Blend: AUG-CC-PVTZ-JKFIT + DEF2-UNIVERSAL-JKFIT

    Orbital Energies [Eh]
    ---------------------

    Doubly Occupied:

       1A    -20.573655     2A     -1.337309     3A     -0.696149
       4A     -0.580611     5A     -0.508024

  @DF-RHF Final Energy:   -76.05519334509593

   => Energetics <=

    Nuclear Repulsion Energy =              8.8728697932781984
    One-Electron Energy =                -122.4646264280945331
    Two-Electron Energy =                  37.5365632897204122
    Total Energy =                        -76.0551933450959154
 Dipole X            :          7.3329253           -7.3474536           -0.0145283
 Dipole Y            :         11.0779053          -10.7116196            0.3662857
 Dipole Z            :        -36.1627626           36.8743393            0.7115767
 Magnitude           :                                                    0.8004484
  Basis Set: (AUG-CC-PVTZ AUX)
    Blend: AUG-CC-PVTZ-RI + DEF2-QZVPP-RI
	 Reference Energy          =     -76.0551933450959297 [Eh]
	 Singles Energy            =      -0.0000000000000000 [Eh]
	 Same-Spin Energy          =      -0.0690838475095538 [Eh]
	 Opposite-Spin Energy      =      -0.2180846036323615 [Eh]
	 Correlation Energy        =      -0.2871684511419153 [Eh]
	 Total Energy              =     -76.3423617962378387 [Eh]

	 ================> DF-SCS-MP2 Energies <==================
	-----------------------------------------------------------
	 SCS Same-Spin Scale       =       0.3333333333333333 [-]
	 SCS Opposite-Spin Scale   =       1.2000000000000000 [-]
	 SCS Same-Spin Energy      =      -0.0230279491698513 [Eh]
	 SCS Opposite-Spin Energy  =      -0.2617015243588338 [Eh]
	 SCS Correlation Energy    =      -0.2847294735286851 [Eh]
	 SCS Total Energy          =     -76.3399228186246148 [Eh]
	-----------------------------------------------------------

*** Psi4 exiting successfully. Buy a developer a beer!
