                               Psi4 1.8.2 release

  ==> Input File <==

--------------------------------------------------------------------------
MEMORY 60 GB

molecule dimer {
1 1
Li         0.000000     0.000000     0.000000
O         -0.213290    -1.230877    -1.435922
H          0.319614    -1.433868    -2.244771
H         -1.116811    -1.240557    -1.761755
O          1.078055    -0.691540     1.605291
H          1.583124    -1.467147     1.345496
H          0.428738    -1.104788     2.246733
O          1.200353     1.386398    -0.738119
H          0.867414     1.714195    -1.599060
H          2.118436     1.242699    -0.916516
O         -1.635855     0.447985     0.979762
H         -1.749951     0.565313     1.919399
H         -2.276601     0.947984     0.463108

units ang
no_reorient
no_com
symmetry c1
}

set {
basis        aug-cc-pVTZ
scf_type     df
}

energy("mp2")
--------------------------------------------------------------------------

    Molecular point group: c1

    Geometry (in Angstrom), charge = 1, multiplicity = 1:

       Center              X                  Y                   Z               Mass
    ------------   -----------------  -----------------  -----------------  -----------------
         LI           0.000000000000     0.000000000000     0.000000000000     7.016003436600
         O           -0.213290000000    -1.230877000000    -1.435922000000    15.994914619570
         H            0.319614000000    -1.433868000000    -2.244771000000     1.007825032230
         H           -1.116811000000    -1.240557000000    -1.761755000000     1.007825032230
         O            1.078055000000    -0.691540000000     1.605291000000    15.994914619570
         H            1.583124000000    -1.467147000000     1.345496000000     1.007825032230
         H            0.428738000000    -1.104788000000     2.246733000000     1.007825032230
         O            1.200353000000     1.386398000000    -0.738119000000    15.994914619570
         H            0.867414000000     1.714195000000    -1.599060000000     1.007825032230
         H            2.118436000000     1.242699000000    -0.916516000000     1.007825032230
         O           -1.635855000000     0.447985000000     0.979762000000    15.994914619570
         H           -1.749951000000     0.565313000000     1.919399000000     1.007825032230
         H           -2.276601000000     0.947984000000     0.463108000000     1.007825032230

  Charge       = 1
  Multiplicity = 1
  Basis Set: AUG-CC-PVTZ
    Blend: AUG-CC-PVTZ
  Basis Set: (AUG-CC-PVTZ AUX)
    Blend: AUG-CC-PVTZ-JKFIT + DEF2-UNIVERSAL-JKFIT

    Orbital Energies [Eh]
    ---------------------

    Doubly Occupied:

       1A    -20.761173     2A    -20.749809     3A    -20.743364
       4A    -20.740894     5A     -2.533799     6A     -1.543382
       7A     -1.538855     8A     -1.532104     9A     -1.517194
      10A     -0.921961    11A     -0.900086    12A     -0.888310
      13A     -0.867296    14A     -0.801817    15A     -0.786454
      16A     -0.778636    17A     -0.762203    18A     -0.716229
      19A     -0.700965    20A     -0.690476    21A     -0.685394

  @DF-RHF Final Energy:  -311.62272157842602

   => Energetics <=

    Nuclear Repulsion Energy =            161.6365023748956844
    One-Electron Energy =                -744.1976444226921785
    Two-Electron Energy =                 270.9384204693704419
    Total Energy =                       -311.6227215784260238
 Dipole X            :         -7.2510175            6.8182585           -0.4327590
 Dipole Y            :          2.4000369           -2.7976280           -0.3975911
 Dipole Z            :         -6.0702378            5.1792291           -0.8910087
 Magnitude           :                                                    1.0673591
  Basis Set: (AUG-CC-PVTZ AUX)
    Blend: AUG-CC-PVTZ-RI + DEF2-QZVPP-RI
	 Reference Energy          =    -311.6227215784260238 [Eh]
	 Singles Energy            =      -0.0000000000000000 [Eh]
	 Same-Spin Energy          =      -0.2758934513473844 [Eh]
	 Opposite-Spin Energy      =      -0.8799019050891129 [Eh]
	 Correlation Energy        =      -1.1557953564364973 [Eh]
	 Total Energy              =    -312.7785169348625232 [Eh]

	 ================> DF-SCS-MP2 Energies <==================
	-----------------------------------------------------------
	 SCS Same-Spin Scale       =       0.3333333333333333 [-]
	 SCS Opposite-Spin Scale   =       1.2000000000000000 [-]
	 SCS Same-Spin Energy      =      -0.0919644837824614 [Eh]
	 SCS Opposite-Spin Energy  =      -1.0558822861069355 [Eh]
	 SCS Correlation Energy    =      -1.1478467698893968 [Eh]
	 SCS Total Energy          =    -312.7705683483154075 [Eh]
	-----------------------------------------------------------

*** Psi4 exiting successfully. Buy a developer a beer!
