                               Psi4 1.9 release

  ==> Input File <==

--------------------------------------------------------------------------
MEMORY 60 GB

molecule dimer {
1 1
Li     0.000000     0.000000     0.000000
--
0 1
O     -0.101817    -1.813061    -0.036423
H     -0.471130    -2.250333    -0.763005
H      0.017925    -2.436449     0.694730
O     -1.581748     0.573901     1.043698
H     -1.213933     0.624233     1.880971
H     -1.854365     1.500408     0.850485
O      0.827787     0.387737    -1.742301
H      1.255888    -0.363424    -2.191003
H      1.514001     1.055898    -1.641117

units ang
no_reorient
no_com
symmetry c1
}

set {
basis        aug-cc-pVTZ
scf_type     df
}

energy("mp2", bsse_type="cp")
--------------------------------------------------------------------------

                               Psi4 1.9 release
    Molecular point group: c1
  Charge       = 0
  Multiplicity = 1
  Basis Set: AUG-CC-PVTZ
    Blend: AUG-CC-PVTZ
  Basis Set: (AUG-CC-PVTZ AUX)
    Blend: AUG-CC-PVTZ-JKFIT + DEF2-UNIVERSAL-JKFIT
  @DF-RHF Final Energy:  -228.16582738509774
    Total Energy =                       -228.1658273850977423
 Dipole X            :         14.9710239          -14.3578330            0.6131909
 Dipole Y            :         16.2862918          -16.4048089           -0.1185171
 Dipole Z            :         13.5347366          -13.3209572            0.2137794
 Magnitude           :                                                    0.6601144
  Basis Set: (AUG-CC-PVTZ AUX)
    Blend: AUG-CC-PVTZ-RI + DEF2-QZVPP-RI
	 Reference Energy          =    -228.1658273850977423 [Eh]
	 Singles Energy            =      -0.0000000000000000 [Eh]
	 Same-Spin Energy          =      -0.2066132087638546 [Eh]
	 Opposite-Spin Energy      =      -0.6490495296756496 [Eh]
	 Correlation Energy        =      -0.8556627384395041 [Eh]
	 Total Energy              =    -229.0214901235372338 [Eh]
	 SCS Total Energy          =    -229.0135578902964824 [Eh]
                               Psi4 1.9 release
    Molecular point group: c1
  Multiplicity = 1
  Basis Set: AUG-CC-PVTZ
    Blend: AUG-CC-PVTZ
  Basis Set: (AUG-CC-PVTZ AUX)
    Blend: AUG-CC-PVTZ-JKFIT + DEF2-UNIVERSAL-JKFIT
  @DF-RHF Final Energy:    -7.23638451492280
    Total Energy =                         -7.2363845149227979
  Basis Set: (AUG-CC-PVTZ AUX)
	 Singles Energy            =      -0.0000000000000000 [Eh]
	 Same-Spin Energy          =       0.0000000000000000 [Eh]
	 Opposite-Spin Energy      =      -0.0160578124464755 [Eh]
	 Correlation Energy        =      -0.0160578124464755 [Eh]
	 Total Energy              =      -7.2524423273692733 [Eh]
	 SCS Total Energy          =      -7.2556538898585687 [Eh]
                               Psi4 1.9 release
    Molecular point group: c1

    Geometry (in Bohr), charge = 1, multiplicity = 1:

       Center              X                  Y                   Z               Mass
    ------------   -----------------  -----------------  -----------------  -----------------
         LI           0.000000000000     0.000000000000     0.000000000000     7.016003436600
         O           -0.192406244916    -3.426188738749    -0.068829494668    15.994914619570
         H           -0.890306669487    -4.252513061080    -1.441870482355     1.007825032230
         H            0.033873340799    -4.604221328646     1.312849431139     1.007825032230
         O           -2.989070519491     1.084515713126     1.972303377688    15.994914619570
         H           -2.294000904655     1.179629408473     3.554520039929     1.007825032230
         H           -3.504241986635     2.835360196446     1.607183723810     1.007825032230
         O            1.564290720214     0.732716738707    -3.292471718111    15.994914619570
         H            2.373284364249    -0.686771827418    -4.140395610056     1.007825032230
         H            2.861047243669     1.995358036419    -3.101261669833     1.007825032230

  Charge       = 1
  Multiplicity = 1
  Basis Set: AUG-CC-PVTZ
    Blend: AUG-CC-PVTZ
  Basis Set: (AUG-CC-PVTZ AUX)
    Blend: AUG-CC-PVTZ-JKFIT + DEF2-UNIVERSAL-JKFIT

    Orbital Energies [Eh]
    ---------------------

    Doubly Occupied:

       1A    -20.767270     2A    -20.765146     3A    -20.764352
       4A     -2.580397     5A     -1.566700     6A     -1.561947
       7A     -1.550957     8A     -0.941642     9A     -0.919632
      10A     -0.914306    11A     -0.819532    12A     -0.798459
      13A     -0.793691    14A     -0.727297    15A     -0.720909
      16A     -0.712514

  @DF-RHF Final Energy:  -235.53727577881358

   => Energetics <=

    Nuclear Repulsion Energy =             98.8930718760554726
    One-Electron Energy =                -515.0511926307334534
    Two-Electron Energy =                 180.6208449758643724
    Total Energy =                       -235.5372757788135800
 Dipole X            :         14.8598901          -14.3578330            0.5020572
 Dipole Y            :         16.0845094          -16.4048089           -0.3202994
 Dipole Z            :         13.4104348          -13.3209572            0.0894775
 Magnitude           :                                                    0.6022121
  Basis Set: (AUG-CC-PVTZ AUX)
    Blend: AUG-CC-PVTZ-RI + DEF2-QZVPP-RI
	 Reference Energy          =    -235.5372757788135800 [Eh]
	 Singles Energy            =      -0.0000000000000000 [Eh]
	 Same-Spin Energy          =      -0.2054063316618743 [Eh]
	 Opposite-Spin Energy      =      -0.6594721597383199 [Eh]
	 Correlation Energy        =      -0.8648784914001941 [Eh]
	 Total Energy              =    -236.4021542702137708 [Eh]

	 ================> DF-SCS-MP2 Energies <==================
	-----------------------------------------------------------
	 SCS Same-Spin Scale       =       0.3333333333333333 [-]
	 SCS Opposite-Spin Scale   =       1.2000000000000000 [-]
	 SCS Same-Spin Energy      =      -0.0684687772206248 [Eh]
	 SCS Opposite-Spin Energy  =      -0.7913665916859838 [Eh]
	 SCS Correlation Energy    =      -0.8598353689066085 [Eh]
	 SCS Total Energy          =    -236.3971111477201816 [Eh]
	-----------------------------------------------------------

*** Psi4 exiting successfully. Buy a developer a beer!
