                               Psi4 1.8.2 release

  ==> Input File <==

--------------------------------------------------------------------------
MEMORY 60 GB

molecule dimer {
0 1
Gh(Li)     0.000000     0.000000     0.000000
Gh(O)     -1.713431    -0.192651    -0.922553
Gh(H)     -2.074049    -0.912705    -1.508446
Gh(H)     -1.723588     0.568295    -1.499263
Gh(O)      0.348439    -1.893986     0.119571
Gh(H)     -0.123004    -2.715643     0.131494
Gh(H)      1.215094    -2.096468    -0.252221
O         -0.160179     0.708868     1.726520
H         -0.768047     1.453803     1.689983
H         -0.342640     0.096572     2.429882
Gh(O)      1.531978     0.426968    -1.011974
Gh(H)      2.042686    -0.201545    -1.515655
Gh(H)      2.129691     0.960383    -0.509585

units ang
no_reorient
no_com
symmetry c1
}

set {
basis        aug-cc-pVTZ
scf_type     df
}

energy("mp2")
--------------------------------------------------------------------------

    Molecular point group: c1

    Geometry (in Angstrom), charge = 0, multiplicity = 1:

       Center              X                  Y                   Z               Mass
    ------------   -----------------  -----------------  -----------------  -----------------
      Gh(LI)          0.000000000000     0.000000000000     0.000000000000     7.016003436600
      Gh(O)          -1.713431000000    -0.192651000000    -0.922553000000    15.994914619570
      Gh(H)          -2.074049000000    -0.912705000000    -1.508446000000     1.007825032230
      Gh(H)          -1.723588000000     0.568295000000    -1.499263000000     1.007825032230
      Gh(O)           0.348439000000    -1.893986000000     0.119571000000    15.994914619570
      Gh(H)          -0.123004000000    -2.715643000000     0.131494000000     1.007825032230
      Gh(H)           1.215094000000    -2.096468000000    -0.252221000000     1.007825032230
         O           -0.160179000000     0.708868000000     1.726520000000    15.994914619570
         H           -0.768047000000     1.453803000000     1.689983000000     1.007825032230
         H           -0.342640000000     0.096572000000     2.429882000000     1.007825032230
      Gh(O)           1.531978000000     0.426968000000    -1.011974000000    15.994914619570
      Gh(H)           2.042686000000    -0.201545000000    -1.515655000000     1.007825032230
      Gh(H)           2.129691000000     0.960383000000    -0.509585000000     1.007825032230

  Charge       = 0
  Multiplicity = 1
  Basis Set: AUG-CC-PVTZ
    Blend: AUG-CC-PVTZ
  Basis Set: (AUG-CC-PVTZ AUX)
    Blend: AUG-CC-PVTZ-JKFIT + DEF2-UNIVERSAL-JKFIT

    Orbital Energies [Eh]
    ---------------------

    Doubly Occupied:

       1A    -20.562391     2A     -1.347530     3A     -0.735457
       4A     -0.566854     5A     -0.507549

  @DF-RHF Final Energy:   -76.05911275758318

   => Energetics <=

    Nuclear Repulsion Energy =              9.1851361741604780
    One-Electron Energy =                -123.0489337531542020
    Two-Electron Energy =                  37.8046848214105466
    Total Energy =                        -76.0591127575831791
 Dipole X            :          3.9788822           -4.5204498           -0.5415676
 Dipole Y            :        -13.5564769           13.6463152            0.0898383
 Dipole Z            :        -33.4284362           33.8866161            0.4581799
 Magnitude           :                                                    0.7150491
  Basis Set: (AUG-CC-PVTZ AUX)
    Blend: AUG-CC-PVTZ-RI + DEF2-QZVPP-RI
	 Reference Energy          =     -76.0591127575831791 [Eh]
	 Singles Energy            =      -0.0000000000000000 [Eh]
	 Same-Spin Energy          =      -0.0683424014380637 [Eh]
	 Opposite-Spin Energy      =      -0.2156180374173784 [Eh]
	 Correlation Energy        =      -0.2839604388554422 [Eh]
	 Total Energy              =     -76.3430731964386240 [Eh]

	 ================> DF-SCS-MP2 Energies <==================
	-----------------------------------------------------------
	 SCS Same-Spin Scale       =       0.3333333333333333 [-]
	 SCS Opposite-Spin Scale   =       1.2000000000000000 [-]
	 SCS Same-Spin Energy      =      -0.0227808004793546 [Eh]
	 SCS Opposite-Spin Energy  =      -0.2587416449008541 [Eh]
	 SCS Correlation Energy    =      -0.2815224453802087 [Eh]
	 SCS Total Energy          =     -76.3406352029633837 [Eh]
	-----------------------------------------------------------

*** Psi4 exiting successfully. Buy a developer a beer!
