                               Psi4 1.8.2 release

  ==> Input File <==

--------------------------------------------------------------------------
MEMORY 60 GB

molecule dimer {
0 1
Gh(Li)     0.000000     0.000000     0.000000
O         -1.781604    -0.308774     0.672957
H         -2.416149    -0.940715     1.042678
H         -2.210738     0.488272     0.415933
Gh(O)      1.567111     0.207798     1.466968
Gh(H)      1.921405    -0.551822     1.871146
Gh(H)      1.660695     0.824584     2.244772
Gh(O)     -0.361356     1.821734    -0.682767
Gh(H)     -0.637570     2.716843    -0.478202
Gh(H)     -0.758879     1.674910    -1.588356
Gh(O)      0.457511    -1.012211    -1.602176
Gh(H)     -0.028832    -1.739527    -1.960288
Gh(H)      1.106696    -0.664268    -2.216768

units ang
no_reorient
no_com
symmetry c1
}

set {
basis        aug-cc-pVTZ
scf_type     df
}

energy("mp2")
--------------------------------------------------------------------------

    Molecular point group: c1

    Geometry (in Angstrom), charge = 0, multiplicity = 1:

       Center              X                  Y                   Z               Mass
    ------------   -----------------  -----------------  -----------------  -----------------
      Gh(LI)          0.000000000000     0.000000000000     0.000000000000     7.016003436600
         O           -1.781604000000    -0.308774000000     0.672957000000    15.994914619570
         H           -2.416149000000    -0.940715000000     1.042678000000     1.007825032230
         H           -2.210738000000     0.488272000000     0.415933000000     1.007825032230
      Gh(O)           1.567111000000     0.207798000000     1.466968000000    15.994914619570
      Gh(H)           1.921405000000    -0.551822000000     1.871146000000     1.007825032230
      Gh(H)           1.660695000000     0.824584000000     2.244772000000     1.007825032230
      Gh(O)          -0.361356000000     1.821734000000    -0.682767000000    15.994914619570
      Gh(H)          -0.637570000000     2.716843000000    -0.478202000000     1.007825032230
      Gh(H)          -0.758879000000     1.674910000000    -1.588356000000     1.007825032230
      Gh(O)           0.457511000000    -1.012211000000    -1.602176000000    15.994914619570
      Gh(H)          -0.028832000000    -1.739527000000    -1.960288000000     1.007825032230
      Gh(H)           1.106696000000    -0.664268000000    -2.216768000000     1.007825032230

  Charge       = 0
  Multiplicity = 1
  Basis Set: AUG-CC-PVTZ
    Blend: AUG-CC-PVTZ
  Basis Set: (AUG-CC-PVTZ AUX)
    Blend: AUG-CC-PVTZ-JKFIT + DEF2-UNIVERSAL-JKFIT

    Orbital Energies [Eh]
    ---------------------

    Doubly Occupied:

       1A    -20.563599     2A     -1.350319     3A     -0.731114
       4A     -0.572688     5A     -0.508575

  @DF-RHF Final Energy:   -76.05984115705279

   => Energetics <=

    Nuclear Repulsion Energy =              9.2045150336188630
    One-Electron Energy =                -123.0761194920641515
    Two-Electron Energy =                  37.8117633013925101
    Total Energy =                        -76.0598411570527730
 Dipole X            :         34.9551046          -35.6774982           -0.7223936
 Dipole Y            :          5.6385876           -5.5229797            0.1156079
 Dipole Z            :        -12.8549345           12.9300107            0.0750762
 Magnitude           :                                                    0.7354279
  Basis Set: (AUG-CC-PVTZ AUX)
    Blend: AUG-CC-PVTZ-RI + DEF2-QZVPP-RI
	 Reference Energy          =     -76.0598411570527873 [Eh]
	 Singles Energy            =      -0.0000000000000000 [Eh]
	 Same-Spin Energy          =      -0.0683090639204221 [Eh]
	 Opposite-Spin Energy      =      -0.2155478228794266 [Eh]
	 Correlation Energy        =      -0.2838568867998488 [Eh]
	 Total Energy              =     -76.3436980438526405 [Eh]

	 ================> DF-SCS-MP2 Energies <==================
	-----------------------------------------------------------
	 SCS Same-Spin Scale       =       0.3333333333333333 [-]
	 SCS Opposite-Spin Scale   =       1.2000000000000000 [-]
	 SCS Same-Spin Energy      =      -0.0227696879734740 [Eh]
	 SCS Opposite-Spin Energy  =      -0.2586573874553120 [Eh]
	 SCS Correlation Energy    =      -0.2814270754287860 [Eh]
	 SCS Total Energy          =     -76.3412682324815677 [Eh]
	-----------------------------------------------------------

*** Psi4 exiting successfully. Buy a developer a beer!
