                               Psi4 1.8.2 release

  ==> Input File <==

--------------------------------------------------------------------------
MEMORY 60 GB

molecule dimer {
0 1
Gh(Li)     0.000000     0.000000     0.000000
Gh(O)      0.479299    -0.023155     2.040576
Gh(H)      1.401203    -0.047344     1.992724
Gh(H)      0.183700    -0.723857     2.589691
Gh(O)      1.211465     0.917124    -1.085982
Gh(H)      1.893267     0.250849    -1.335533
Gh(H)      1.514507     1.731669    -0.789172
O          0.020647    -1.905313    -0.620925
H          0.710937    -2.493526    -1.007313
H         -0.763325    -2.495709    -0.483083
Gh(O)     -1.823938     0.516909    -0.645776
Gh(H)     -2.499709    -0.060327    -0.255399
Gh(H)     -2.179640     1.399153    -0.823341

units ang
no_reorient
no_com
symmetry c1
}

set {
basis        aug-cc-pVTZ
scf_type     df
}

energy("mp2")
--------------------------------------------------------------------------

    Molecular point group: c1

    Geometry (in Angstrom), charge = 0, multiplicity = 1:

       Center              X                  Y                   Z               Mass
    ------------   -----------------  -----------------  -----------------  -----------------
      Gh(LI)          0.000000000000     0.000000000000     0.000000000000     7.016003436600
      Gh(O)           0.479299000000    -0.023155000000     2.040576000000    15.994914619570
      Gh(H)           1.401203000000    -0.047344000000     1.992724000000     1.007825032230
      Gh(H)           0.183700000000    -0.723857000000     2.589691000000     1.007825032230
      Gh(O)           1.211465000000     0.917124000000    -1.085982000000    15.994914619570
      Gh(H)           1.893267000000     0.250849000000    -1.335533000000     1.007825032230
      Gh(H)           1.514507000000     1.731669000000    -0.789172000000     1.007825032230
         O            0.020647000000    -1.905313000000    -0.620925000000    15.994914619570
         H            0.710937000000    -2.493526000000    -1.007313000000     1.007825032230
         H           -0.763325000000    -2.495709000000    -0.483083000000     1.007825032230
      Gh(O)          -1.823938000000     0.516909000000    -0.645776000000    15.994914619570
      Gh(H)          -2.499709000000    -0.060327000000    -0.255399000000     1.007825032230
      Gh(H)          -2.179640000000     1.399153000000    -0.823341000000     1.007825032230

  Charge       = 0
  Multiplicity = 1
  Basis Set: AUG-CC-PVTZ
    Blend: AUG-CC-PVTZ
  Basis Set: (AUG-CC-PVTZ AUX)
    Blend: AUG-CC-PVTZ-JKFIT + DEF2-UNIVERSAL-JKFIT

    Orbital Energies [Eh]
    ---------------------

    Doubly Occupied:

       1A    -20.572288     2A     -1.337844     3A     -0.701205
       4A     -0.578582     5A     -0.507777

  @DF-RHF Final Energy:   -76.05690705188486

   => Energetics <=

    Nuclear Repulsion Energy =              8.9042703414522872
    One-Electron Energy =                -122.5269600183637806
    Two-Electron Energy =                  37.5657826250266424
    Total Energy =                        -76.0569070518848491
 Dipole X            :         -0.2733893            0.2131384           -0.0602509
 Dipole Y            :         37.4636335          -38.2324458           -0.7688122
 Dipole Z            :         12.0409933          -12.2034658           -0.1624725
 Magnitude           :                                                    0.7880988
  Basis Set: (AUG-CC-PVTZ AUX)
    Blend: AUG-CC-PVTZ-RI + DEF2-QZVPP-RI
	 Reference Energy          =     -76.0569070518848633 [Eh]
	 Singles Energy            =      -0.0000000000000000 [Eh]
	 Same-Spin Energy          =      -0.0689622405730564 [Eh]
	 Opposite-Spin Energy      =      -0.2175796154279820 [Eh]
	 Correlation Energy        =      -0.2865418560010384 [Eh]
	 Total Energy              =     -76.3434489078859002 [Eh]

	 ================> DF-SCS-MP2 Energies <==================
	-----------------------------------------------------------
	 SCS Same-Spin Scale       =       0.3333333333333333 [-]
	 SCS Opposite-Spin Scale   =       1.2000000000000000 [-]
	 SCS Same-Spin Energy      =      -0.0229874135243521 [Eh]
	 SCS Opposite-Spin Energy  =      -0.2610955385135784 [Eh]
	 SCS Correlation Energy    =      -0.2840829520379305 [Eh]
	 SCS Total Energy          =     -76.3409900039227978 [Eh]
	-----------------------------------------------------------

*** Psi4 exiting successfully. Buy a developer a beer!
