                               Psi4 1.8.2 release

  ==> Input File <==

--------------------------------------------------------------------------
MEMORY 60 GB

molecule dimer {
1 1
Li         0.000000     0.000000     0.000000
O          1.871880     0.461571     0.368550
H          2.285974     0.571186    -0.568959
H          2.640293     0.187905     0.999170
O         -0.434010     0.027323    -1.814838
H         -1.386091     0.043525    -1.966203
H         -0.179400     0.553937    -2.571507
O         -0.248199    -1.804611     0.671574
H          0.614937    -2.214034     0.676546
H         -0.801980    -2.158788    -0.016634
O         -1.170794     0.970161     1.468626
H         -0.562692     1.300187     2.160833
H         -1.660722     0.184687     1.808510

units ang
no_reorient
no_com
symmetry c1
}

set {
basis        aug-cc-pVTZ
scf_type     df
}

energy("mp2")
--------------------------------------------------------------------------

    Molecular point group: c1

    Geometry (in Angstrom), charge = 1, multiplicity = 1:

       Center              X                  Y                   Z               Mass
    ------------   -----------------  -----------------  -----------------  -----------------
         LI           0.000000000000     0.000000000000     0.000000000000     7.016003436600
         O            1.871880000000     0.461571000000     0.368550000000    15.994914619570
         H            2.285974000000     0.571186000000    -0.568959000000     1.007825032230
         H            2.640293000000     0.187905000000     0.999170000000     1.007825032230
         O           -0.434010000000     0.027323000000    -1.814838000000    15.994914619570
         H           -1.386091000000     0.043525000000    -1.966203000000     1.007825032230
         H           -0.179400000000     0.553937000000    -2.571507000000     1.007825032230
         O           -0.248199000000    -1.804611000000     0.671574000000    15.994914619570
         H            0.614937000000    -2.214034000000     0.676546000000     1.007825032230
         H           -0.801980000000    -2.158788000000    -0.016634000000     1.007825032230
         O           -1.170794000000     0.970161000000     1.468626000000    15.994914619570
         H           -0.562692000000     1.300187000000     2.160833000000     1.007825032230
         H           -1.660722000000     0.184687000000     1.808510000000     1.007825032230

  Charge       = 1
  Multiplicity = 1
  Basis Set: AUG-CC-PVTZ
    Blend: AUG-CC-PVTZ
  Basis Set: (AUG-CC-PVTZ AUX)
    Blend: AUG-CC-PVTZ-JKFIT + DEF2-UNIVERSAL-JKFIT

    Orbital Energies [Eh]
    ---------------------

    Doubly Occupied:

       1A    -20.770345     2A    -20.764535     3A    -20.750536
       4A    -20.730499     5A     -2.542096     6A     -1.564523
       7A     -1.545195     8A     -1.511479     9A     -1.503326
      10A     -0.925167    11A     -0.906875    12A     -0.876465
      13A     -0.874710    14A     -0.826058    15A     -0.780529
      16A     -0.771027    17A     -0.742669    18A     -0.724671
      19A     -0.712556    20A     -0.695571    21A     -0.676254

  @DF-RHF Final Energy:  -311.60668962426877

   => Energetics <=

    Nuclear Repulsion Energy =            162.1929485519382865
    One-Electron Energy =                -745.2091005698034678
    Two-Electron Energy =                 271.4094623935963568
    Total Energy =                       -311.6066896242687676
 Dipole X            :         -1.3744618            2.0812215            0.7067597
 Dipole Y            :          7.4774216           -8.1179667           -0.6405451
 Dipole Z            :        -12.0511941           11.4764050           -0.5747891
 Magnitude           :                                                    1.1136381
  Basis Set: (AUG-CC-PVTZ AUX)
    Blend: AUG-CC-PVTZ-RI + DEF2-QZVPP-RI
	 Reference Energy          =    -311.6066896242687676 [Eh]
	 Singles Energy            =      -0.0000000000000000 [Eh]
	 Same-Spin Energy          =      -0.2769502559405274 [Eh]
	 Opposite-Spin Energy      =      -0.8823856702588920 [Eh]
	 Correlation Energy        =      -1.1593359261994194 [Eh]
	 Total Energy              =    -312.7660255504682141 [Eh]

	 ================> DF-SCS-MP2 Energies <==================
	-----------------------------------------------------------
	 SCS Same-Spin Scale       =       0.3333333333333333 [-]
	 SCS Opposite-Spin Scale   =       1.2000000000000000 [-]
	 SCS Same-Spin Energy      =      -0.0923167519801758 [Eh]
	 SCS Opposite-Spin Energy  =      -1.0588628043106705 [Eh]
	 SCS Correlation Energy    =      -1.1511795562908462 [Eh]
	 SCS Total Energy          =    -312.7578691805596236 [Eh]
	-----------------------------------------------------------

*** Psi4 exiting successfully. Buy a developer a beer!
