                               Psi4 1.8.2 release

  ==> Input File <==

--------------------------------------------------------------------------
MEMORY 60 GB

molecule dimer {
0 1
Gh(Li)     0.000000     0.000000     0.000000
Gh(O)     -0.979497     1.661715    -0.383017
Gh(H)     -1.942918     1.715495    -0.206976
Gh(H)     -0.939941     1.583322    -1.344780
Gh(O)     -0.874120    -1.338989    -0.808144
Gh(H)     -1.695116    -1.751423    -0.533523
Gh(H)     -0.327135    -2.063220    -1.130349
O          0.608715     0.248553     1.781960
H          1.153588     0.893218     2.259355
H         -0.175350     0.061724     2.297094
Gh(O)      1.616898    -0.021797    -1.057657
Gh(H)      1.564752    -0.251149    -1.971527
Gh(H)      2.506419    -0.320433    -0.827794

units ang
no_reorient
no_com
symmetry c1
}

set {
basis        aug-cc-pVTZ
scf_type     df
}

energy("mp2")
--------------------------------------------------------------------------

    Molecular point group: c1

    Geometry (in Angstrom), charge = 0, multiplicity = 1:

       Center              X                  Y                   Z               Mass
    ------------   -----------------  -----------------  -----------------  -----------------
      Gh(LI)          0.000000000000     0.000000000000     0.000000000000     7.016003436600
      Gh(O)          -0.979497000000     1.661715000000    -0.383017000000    15.994914619570
      Gh(H)          -1.942918000000     1.715495000000    -0.206976000000     1.007825032230
      Gh(H)          -0.939941000000     1.583322000000    -1.344780000000     1.007825032230
      Gh(O)          -0.874120000000    -1.338989000000    -0.808144000000    15.994914619570
      Gh(H)          -1.695116000000    -1.751423000000    -0.533523000000     1.007825032230
      Gh(H)          -0.327135000000    -2.063220000000    -1.130349000000     1.007825032230
         O            0.608715000000     0.248553000000     1.781960000000    15.994914619570
         H            1.153588000000     0.893218000000     2.259355000000     1.007825032230
         H           -0.175350000000     0.061724000000     2.297094000000     1.007825032230
      Gh(O)           1.616898000000    -0.021797000000    -1.057657000000    15.994914619570
      Gh(H)           1.564752000000    -0.251149000000    -1.971527000000     1.007825032230
      Gh(H)           2.506419000000    -0.320433000000    -0.827794000000     1.007825032230

  Charge       = 0
  Multiplicity = 1
  Basis Set: AUG-CC-PVTZ
    Blend: AUG-CC-PVTZ
  Basis Set: (AUG-CC-PVTZ AUX)
    Blend: AUG-CC-PVTZ-JKFIT + DEF2-UNIVERSAL-JKFIT

    Orbital Energies [Eh]
    ---------------------

    Doubly Occupied:

       1A    -20.565946     2A     -1.347343     3A     -0.722807
       4A     -0.575021     5A     -0.508471

  @DF-RHF Final Energy:   -76.05993950370214

   => Energetics <=

    Nuclear Repulsion Energy =              9.1286322773240176
    One-Electron Energy =                -122.9379663460115353
    Two-Electron Energy =                  37.7493945649853657
    Total Energy =                        -76.0599395037021537
 Dipole X            :        -11.2132790           11.0510390           -0.1622400
 Dipole Y            :         -5.2557238            5.5621556            0.3064318
 Dipole Z            :        -34.8830776           35.5497716            0.6666940
 Magnitude           :                                                    0.7514674
  Basis Set: (AUG-CC-PVTZ AUX)
    Blend: AUG-CC-PVTZ-RI + DEF2-QZVPP-RI
	 Reference Energy          =     -76.0599395037021395 [Eh]
	 Singles Energy            =      -0.0000000000000000 [Eh]
	 Same-Spin Energy          =      -0.0684742640835303 [Eh]
	 Opposite-Spin Energy      =      -0.2161493748102653 [Eh]
	 Correlation Energy        =      -0.2846236388937956 [Eh]
	 Total Energy              =     -76.3445631425959306 [Eh]

	 ================> DF-SCS-MP2 Energies <==================
	-----------------------------------------------------------
	 SCS Same-Spin Scale       =       0.3333333333333333 [-]
	 SCS Opposite-Spin Scale   =       1.2000000000000000 [-]
	 SCS Same-Spin Energy      =      -0.0228247546945101 [Eh]
	 SCS Opposite-Spin Energy  =      -0.2593792497723184 [Eh]
	 SCS Correlation Energy    =      -0.2822040044668285 [Eh]
	 SCS Total Energy          =     -76.3421435081689737 [Eh]
	-----------------------------------------------------------

*** Psi4 exiting successfully. Buy a developer a beer!
