                               Psi4 1.8.2 release

  ==> Input File <==

--------------------------------------------------------------------------
MEMORY 60 GB

molecule dimer {
0 1
Gh(Li)     0.000000     0.000000     0.000000
Gh(O)      0.219560    -0.265810     2.012776
Gh(H)      0.521880    -0.931016     2.699863
Gh(H)     -0.159480     0.513072     2.429735
O          1.524244     0.531832    -0.864764
H          2.438492     0.209908    -0.974378
H          1.411270     1.193130    -1.596493
Gh(O)     -0.434713    -1.802003    -0.583452
Gh(H)     -1.078675    -2.086057     0.124510
Gh(H)      0.349421    -2.345056    -0.533103
Gh(O)     -1.896730     0.843373    -0.137028
Gh(H)     -2.188506     0.658287    -0.989367
Gh(H)     -2.580292     0.611598     0.561824

units ang
no_reorient
no_com
symmetry c1
}

set {
basis        aug-cc-pVTZ
scf_type     df
}

energy("mp2")
--------------------------------------------------------------------------

    Molecular point group: c1

    Geometry (in Angstrom), charge = 0, multiplicity = 1:

       Center              X                  Y                   Z               Mass
    ------------   -----------------  -----------------  -----------------  -----------------
      Gh(LI)          0.000000000000     0.000000000000     0.000000000000     7.016003436600
      Gh(O)           0.219560000000    -0.265810000000     2.012776000000    15.994914619570
      Gh(H)           0.521880000000    -0.931016000000     2.699863000000     1.007825032230
      Gh(H)          -0.159480000000     0.513072000000     2.429735000000     1.007825032230
         O            1.524244000000     0.531832000000    -0.864764000000    15.994914619570
         H            2.438492000000     0.209908000000    -0.974378000000     1.007825032230
         H            1.411270000000     1.193130000000    -1.596493000000     1.007825032230
      Gh(O)          -0.434713000000    -1.802003000000    -0.583452000000    15.994914619570
      Gh(H)          -1.078675000000    -2.086057000000     0.124510000000     1.007825032230
      Gh(H)           0.349421000000    -2.345056000000    -0.533103000000     1.007825032230
      Gh(O)          -1.896730000000     0.843373000000    -0.137028000000    15.994914619570
      Gh(H)          -2.188506000000     0.658287000000    -0.989367000000     1.007825032230
      Gh(H)          -2.580292000000     0.611598000000     0.561824000000     1.007825032230

  Charge       = 0
  Multiplicity = 1
  Basis Set: AUG-CC-PVTZ
    Blend: AUG-CC-PVTZ
  Basis Set: (AUG-CC-PVTZ AUX)
    Blend: AUG-CC-PVTZ-JKFIT + DEF2-UNIVERSAL-JKFIT

    Orbital Energies [Eh]
    ---------------------

    Doubly Occupied:

       1A    -20.571773     2A     -1.340355     3A     -0.702498
       4A     -0.580444     5A     -0.508284

  @DF-RHF Final Energy:   -76.05752704563247

   => Energetics <=

    Nuclear Repulsion Energy =              8.9453547465549601
    One-Electron Energy =                -122.5990533151209689
    Two-Electron Energy =                  37.5961715229335525
    Total Energy =                        -76.0575270456324688
 Dipole X            :        -29.7928505           30.3182255            0.5253750
 Dipole Y            :        -10.4717885           10.6914922            0.2197036
 Dipole Z            :         17.3833157          -17.9315791           -0.5482634
 Magnitude           :                                                    0.7904944
  Basis Set: (AUG-CC-PVTZ AUX)
    Blend: AUG-CC-PVTZ-RI + DEF2-QZVPP-RI
	 Reference Energy          =     -76.0575270456324688 [Eh]
	 Singles Energy            =      -0.0000000000000000 [Eh]
	 Same-Spin Energy          =      -0.0689085391187701 [Eh]
	 Opposite-Spin Energy      =      -0.2174713566133727 [Eh]
	 Correlation Energy        =      -0.2863798957321428 [Eh]
	 Total Energy              =     -76.3439069413646081 [Eh]

	 ================> DF-SCS-MP2 Energies <==================
	-----------------------------------------------------------
	 SCS Same-Spin Scale       =       0.3333333333333333 [-]
	 SCS Opposite-Spin Scale   =       1.2000000000000000 [-]
	 SCS Same-Spin Energy      =      -0.0229695130395900 [Eh]
	 SCS Opposite-Spin Energy  =      -0.2609656279360472 [Eh]
	 SCS Correlation Energy    =      -0.2839351409756373 [Eh]
	 SCS Total Energy          =     -76.3414621866081120 [Eh]
	-----------------------------------------------------------

*** Psi4 exiting successfully. Buy a developer a beer!
