                               Psi4 1.8.2 release

  ==> Input File <==

--------------------------------------------------------------------------
MEMORY 60 GB

molecule dimer {
1 1
Li         0.000000     0.000000     0.000000
O         -0.716880     0.857356    -1.496201
H         -0.733051     0.709649    -2.428935
H         -1.633457     1.096310    -1.306862
O         -0.384169     0.497773     1.852316
H         -1.003665     1.020047     2.428236
H          0.506112     0.522672     2.288627
O          1.950571    -0.041794     0.161548
H          2.264982    -0.901899     0.344035
H          2.628264     0.655770     0.267660
O         -0.621593    -1.900324    -0.167785
H         -1.121968    -2.443415     0.395486
H          0.100099    -2.460018    -0.306883

units ang
no_reorient
no_com
symmetry c1
}

set {
basis        aug-cc-pVTZ
scf_type     df
}

energy("mp2")
--------------------------------------------------------------------------

    Molecular point group: c1

    Geometry (in Angstrom), charge = 1, multiplicity = 1:

       Center              X                  Y                   Z               Mass
    ------------   -----------------  -----------------  -----------------  -----------------
         LI           0.000000000000     0.000000000000     0.000000000000     7.016003436600
         O           -0.716880000000     0.857356000000    -1.496201000000    15.994914619570
         H           -0.733051000000     0.709649000000    -2.428935000000     1.007825032230
         H           -1.633457000000     1.096310000000    -1.306862000000     1.007825032230
         O           -0.384169000000     0.497773000000     1.852316000000    15.994914619570
         H           -1.003665000000     1.020047000000     2.428236000000     1.007825032230
         H            0.506112000000     0.522672000000     2.288627000000     1.007825032230
         O            1.950571000000    -0.041794000000     0.161548000000    15.994914619570
         H            2.264982000000    -0.901899000000     0.344035000000     1.007825032230
         H            2.628264000000     0.655770000000     0.267660000000     1.007825032230
         O           -0.621593000000    -1.900324000000    -0.167785000000    15.994914619570
         H           -1.121968000000    -2.443415000000     0.395486000000     1.007825032230
         H            0.100099000000    -2.460018000000    -0.306883000000     1.007825032230

  Charge       = 1
  Multiplicity = 1
  Basis Set: AUG-CC-PVTZ
    Blend: AUG-CC-PVTZ
  Basis Set: (AUG-CC-PVTZ AUX)
    Blend: AUG-CC-PVTZ-JKFIT + DEF2-UNIVERSAL-JKFIT

    Orbital Energies [Eh]
    ---------------------

    Doubly Occupied:

       1A    -20.751465     2A    -20.746582     3A    -20.740767
       4A    -20.739142     5A     -2.529398     6A     -1.554477
       7A     -1.543099     8A     -1.536339     9A     -1.515244
      10A     -0.927569    11A     -0.901208    12A     -0.893234
      13A     -0.883445    14A     -0.801914    15A     -0.788940
      16A     -0.780093    17A     -0.769552    18A     -0.704374
      19A     -0.700876    20A     -0.692994    21A     -0.685273

  @DF-RHF Final Energy:  -311.62457728674707

   => Energetics <=

    Nuclear Repulsion Energy =            163.5541751820215950
    One-Electron Energy =                -747.9855274279178730
    Two-Electron Energy =                 272.8067749591492088
    Total Energy =                       -311.6245772867470691
 Dipole X            :         -4.9235847            5.3493385            0.4257538
 Dipole Y            :         11.8041643          -12.2771651           -0.4730009
 Dipole Z            :         -7.7758070            8.4667063            0.6908993
 Magnitude           :                                                    0.9393284
  Basis Set: (AUG-CC-PVTZ AUX)
    Blend: AUG-CC-PVTZ-RI + DEF2-QZVPP-RI
	 Reference Energy          =    -311.6245772867470691 [Eh]
	 Singles Energy            =      -0.0000000000000000 [Eh]
	 Same-Spin Energy          =      -0.2751553474708296 [Eh]
	 Opposite-Spin Energy      =      -0.8773809772634955 [Eh]
	 Correlation Energy        =      -1.1525363247343252 [Eh]
	 Total Energy              =    -312.7771136114814112 [Eh]

	 ================> DF-SCS-MP2 Energies <==================
	-----------------------------------------------------------
	 SCS Same-Spin Scale       =       0.3333333333333333 [-]
	 SCS Opposite-Spin Scale   =       1.2000000000000000 [-]
	 SCS Same-Spin Energy      =      -0.0917184491569432 [Eh]
	 SCS Opposite-Spin Energy  =      -1.0528571727161946 [Eh]
	 SCS Correlation Energy    =      -1.1445756218731378 [Eh]
	 SCS Total Energy          =    -312.7691529086201854 [Eh]
	-----------------------------------------------------------

*** Psi4 exiting successfully. Buy a developer a beer!
