                               Psi4 1.9 release

  ==> Input File <==

--------------------------------------------------------------------------
MEMORY 60 GB

molecule dimer {
1 1
Li     0.000000     0.000000     0.000000
--
0 1
O      1.559703    -0.841487     0.540327
H      1.536049    -1.800076     0.875428
H      2.332392    -0.765268    -0.044245
O      0.510627     1.846312     0.670480
H     -0.180696     2.157729     1.332101
H      1.456462     2.205848     0.908097
O     -0.805083    -0.528639    -1.542551
H     -1.443239     0.055871    -2.007726
H     -0.144858    -0.758380    -2.221599

units ang
no_reorient
no_com
symmetry c1
}

set {
basis        aug-cc-pVTZ
scf_type     df
}

energy("mp2", bsse_type="cp")
--------------------------------------------------------------------------

                               Psi4 1.9 release
    Molecular point group: c1
  Charge       = 0
  Multiplicity = 1
  Basis Set: AUG-CC-PVTZ
    Blend: AUG-CC-PVTZ
  Basis Set: (AUG-CC-PVTZ AUX)
    Blend: AUG-CC-PVTZ-JKFIT + DEF2-UNIVERSAL-JKFIT
  @DF-RHF Final Energy:  -228.14786434499914
    Total Energy =                       -228.1478643449991353
 Dipole X            :        -25.2246363           25.8478365            0.6232002
 Dipole Y            :         -9.1856533            9.2695073            0.0838540
 Dipole Z            :          6.9130961           -7.2034395           -0.2903434
 Magnitude           :                                                    0.6926104
  Basis Set: (AUG-CC-PVTZ AUX)
    Blend: AUG-CC-PVTZ-RI + DEF2-QZVPP-RI
	 Reference Energy          =    -228.1478643449991353 [Eh]
	 Singles Energy            =      -0.0000000000000000 [Eh]
	 Same-Spin Energy          =      -0.2088676449485282 [Eh]
	 Opposite-Spin Energy      =      -0.6561162964331679 [Eh]
	 Correlation Energy        =      -0.8649839413816961 [Eh]
	 Total Energy              =    -229.0128482863808301 [Eh]
	 SCS Total Energy          =    -229.0048264490351073 [Eh]
                               Psi4 1.9 release
    Molecular point group: c1
  Multiplicity = 1
  Basis Set: AUG-CC-PVTZ
    Blend: AUG-CC-PVTZ
  Basis Set: (AUG-CC-PVTZ AUX)
    Blend: AUG-CC-PVTZ-JKFIT + DEF2-UNIVERSAL-JKFIT
  @DF-RHF Final Energy:    -7.23638447129453
    Total Energy =                         -7.2363844712945342
  Basis Set: (AUG-CC-PVTZ AUX)
	 Singles Energy            =      -0.0000000000000000 [Eh]
	 Same-Spin Energy          =       0.0000000000000000 [Eh]
	 Opposite-Spin Energy      =      -0.0160434993972302 [Eh]
	 Correlation Energy        =      -0.0160434993972302 [Eh]
	 Total Energy              =      -7.2524279706917643 [Eh]
	 SCS Total Energy          =      -7.2556366705712101 [Eh]
                               Psi4 1.9 release
    Molecular point group: c1

    Geometry (in Bohr), charge = 1, multiplicity = 1:

       Center              X                  Y                   Z               Mass
    ------------   -----------------  -----------------  -----------------  -----------------
         LI           0.000000000000     0.000000000000     0.000000000000     7.016003436600
         O            2.947411507055    -1.590179968133     1.021070048190    15.994914619570
         H            2.902711925283    -3.401650645010     1.654319162557     1.007825032230
         H            4.407582097209    -1.446146932577    -0.083610932421     1.007825032230
         O            0.964945182264     3.489024022146     1.267023572597    15.994914619570
         H           -0.341465951966     4.077516862958     2.517306061448     1.007825032230
         H            2.752314292137     4.168448594389     1.716054625350     1.007825032230
         O           -1.521386378262    -0.998982929236    -2.914998924551    15.994914619570
         H           -2.727326443580     0.105580888355    -3.794052274961     1.007825032230
         H           -0.273741947082    -1.433130499025    -4.198213670591     1.007825032230

  Charge       = 1
  Multiplicity = 1
  Basis Set: AUG-CC-PVTZ
    Blend: AUG-CC-PVTZ
  Basis Set: (AUG-CC-PVTZ AUX)
    Blend: AUG-CC-PVTZ-JKFIT + DEF2-UNIVERSAL-JKFIT

    Orbital Energies [Eh]
    ---------------------

    Doubly Occupied:

       1A    -20.775060     2A    -20.771975     3A    -20.757179
       4A     -2.569067     5A     -1.555901     6A     -1.543420
       7A     -1.507397     8A     -0.915099     9A     -0.907694
      10A     -0.881180    11A     -0.812500    12A     -0.804081
      13A     -0.762315    14A     -0.727856    15A     -0.719236
      16A     -0.691730

  @DF-RHF Final Energy:  -235.52575474194626

   => Energetics <=

    Nuclear Repulsion Energy =             97.9406495104272778
    One-Electron Energy =                -513.5294209681010216
    Two-Electron Energy =                 180.0630167157274570
    Total Energy =                       -235.5257547419462583
 Dipole X            :        -24.9203951           25.8478365            0.9274414
 Dipole Y            :         -9.1311241            9.2695073            0.1383831
 Dipole Z            :          6.7970465           -7.2034395           -0.4063930
 Magnitude           :                                                    1.0219846
  Basis Set: (AUG-CC-PVTZ AUX)
    Blend: AUG-CC-PVTZ-RI + DEF2-QZVPP-RI
	 Reference Energy          =    -235.5257547419462583 [Eh]
	 Singles Energy            =      -0.0000000000000000 [Eh]
	 Same-Spin Energy          =      -0.2074110760651927 [Eh]
	 Opposite-Spin Energy      =      -0.6651353646891915 [Eh]
	 Correlation Energy        =      -0.8725464407543841 [Eh]
	 Total Energy              =    -236.3983011827006351 [Eh]

	 ================> DF-SCS-MP2 Energies <==================
	-----------------------------------------------------------
	 SCS Same-Spin Scale       =       0.3333333333333333 [-]
	 SCS Opposite-Spin Scale   =       1.2000000000000000 [-]
	 SCS Same-Spin Energy      =      -0.0691370253550642 [Eh]
	 SCS Opposite-Spin Energy  =      -0.7981624376270299 [Eh]
	 SCS Correlation Energy    =      -0.8672994629820940 [Eh]
	 SCS Total Energy          =    -236.3930542049283474 [Eh]
	-----------------------------------------------------------

*** Psi4 exiting successfully. Buy a developer a beer!
