                               Psi4 1.8.2 release

  ==> Input File <==

--------------------------------------------------------------------------
MEMORY 60 GB

molecule dimer {
1 1
Li         0.000000     0.000000     0.000000
O          1.110215    -1.098530    -1.443038
H          1.598295    -1.954221    -1.278074
H          1.207274    -0.949489    -2.430059
O         -1.257824    -1.305400     0.453129
H         -2.221511    -1.279369     0.433411
H         -1.048101    -1.335662     1.390767
O         -0.051878     1.572965     1.008421
H          0.239274     2.445122     1.163302
H         -0.498900     1.346008     1.847540

units ang
no_reorient
no_com
symmetry c1
}

set {
basis        aug-cc-pVTZ
scf_type     df
}

energy("mp2")
--------------------------------------------------------------------------

    Molecular point group: c1

    Geometry (in Angstrom), charge = 1, multiplicity = 1:

       Center              X                  Y                   Z               Mass
    ------------   -----------------  -----------------  -----------------  -----------------
         LI           0.000000000000     0.000000000000     0.000000000000     7.016003436600
         O            1.110215000000    -1.098530000000    -1.443038000000    15.994914619570
         H            1.598295000000    -1.954221000000    -1.278074000000     1.007825032230
         H            1.207274000000    -0.949489000000    -2.430059000000     1.007825032230
         O           -1.257824000000    -1.305400000000     0.453129000000    15.994914619570
         H           -2.221511000000    -1.279369000000     0.433411000000     1.007825032230
         H           -1.048101000000    -1.335662000000     1.390767000000     1.007825032230
         O           -0.051878000000     1.572965000000     1.008421000000    15.994914619570
         H            0.239274000000     2.445122000000     1.163302000000     1.007825032230
         H           -0.498900000000     1.346008000000     1.847540000000     1.007825032230

  Charge       = 1
  Multiplicity = 1
  Basis Set: AUG-CC-PVTZ
    Blend: AUG-CC-PVTZ
  Basis Set: (AUG-CC-PVTZ AUX)
    Blend: AUG-CC-PVTZ-JKFIT + DEF2-UNIVERSAL-JKFIT

    Orbital Energies [Eh]
    ---------------------

    Doubly Occupied:

       1A    -20.777461     2A    -20.774117     3A    -20.748555
       4A     -2.585321     5A     -1.572516     6A     -1.564764
       7A     -1.510328     8A     -0.932879     9A     -0.922853
      10A     -0.869636    11A     -0.827803    12A     -0.813409
      13A     -0.771797    14A     -0.731406    15A     -0.726067
      16A     -0.685711

  @DF-RHF Final Energy:  -235.53420092972490

   => Energetics <=

    Nuclear Repulsion Energy =             96.0423767864617304
    One-Electron Energy =                -509.5239050417847011
    Two-Electron Energy =                 177.9473273255980814
    Total Energy =                       -235.5342009297249035
 Dipole X            :          4.0640345           -4.3833426           -0.3193081
 Dipole Y            :         15.7013167          -15.8270818           -0.1257651
 Dipole Z            :         -1.6381295            2.4093687            0.7712392
 Magnitude           :                                                    0.8441471
  Basis Set: (AUG-CC-PVTZ AUX)
    Blend: AUG-CC-PVTZ-RI + DEF2-QZVPP-RI
	 Reference Energy          =    -235.5342009297249035 [Eh]
	 Singles Energy            =      -0.0000000000000000 [Eh]
	 Same-Spin Energy          =      -0.2061003250318111 [Eh]
	 Opposite-Spin Energy      =      -0.6617185769344796 [Eh]
	 Correlation Energy        =      -0.8678189019662906 [Eh]
	 Total Energy              =    -236.4020198316912058 [Eh]

	 ================> DF-SCS-MP2 Energies <==================
	-----------------------------------------------------------
	 SCS Same-Spin Scale       =       0.3333333333333333 [-]
	 SCS Opposite-Spin Scale   =       1.2000000000000000 [-]
	 SCS Same-Spin Energy      =      -0.0687001083439370 [Eh]
	 SCS Opposite-Spin Energy  =      -0.7940622923213755 [Eh]
	 SCS Correlation Energy    =      -0.8627624006653125 [Eh]
	 SCS Total Energy          =    -236.3969633303902071 [Eh]
	-----------------------------------------------------------

*** Psi4 exiting successfully. Buy a developer a beer!
