                               Psi4 1.8.2 release

  ==> Input File <==

--------------------------------------------------------------------------
MEMORY 60 GB

molecule dimer {
1 1
Li         0.000000     0.000000     0.000000
Gh(O)      1.891419    -0.158379     0.528671
Gh(H)      2.349768    -0.987879     0.327543
Gh(H)      1.829373    -0.013513     1.475622
Gh(O)     -0.554841     1.482555     1.052622
Gh(H)     -0.087815     1.879686     1.842708
Gh(H)     -0.786767     2.214477     0.472406
Gh(O)     -0.527123    -0.402664    -1.792316
Gh(H)     -0.769570     0.305457    -2.402126
Gh(H)     -0.735432    -1.286504    -2.275183

units ang
no_reorient
no_com
symmetry c1
}

set {
basis        aug-cc-pVTZ
scf_type     df
}

energy("mp2")
--------------------------------------------------------------------------

    Molecular point group: c1

    Geometry (in Angstrom), charge = 1, multiplicity = 1:

       Center              X                  Y                   Z               Mass
    ------------   -----------------  -----------------  -----------------  -----------------
         LI           0.000000000000     0.000000000000     0.000000000000     7.016003436600
      Gh(O)           1.891419000000    -0.158379000000     0.528671000000    15.994914619570
      Gh(H)           2.349768000000    -0.987879000000     0.327543000000     1.007825032230
      Gh(H)           1.829373000000    -0.013513000000     1.475622000000     1.007825032230
      Gh(O)          -0.554841000000     1.482555000000     1.052622000000    15.994914619570
      Gh(H)          -0.087815000000     1.879686000000     1.842708000000     1.007825032230
      Gh(H)          -0.786767000000     2.214477000000     0.472406000000     1.007825032230
      Gh(O)          -0.527123000000    -0.402664000000    -1.792316000000    15.994914619570
      Gh(H)          -0.769570000000     0.305457000000    -2.402126000000     1.007825032230
      Gh(H)          -0.735432000000    -1.286504000000    -2.275183000000     1.007825032230

  Charge       = 1
  Multiplicity = 1
  Basis Set: AUG-CC-PVTZ
    Blend: AUG-CC-PVTZ
  Basis Set: (AUG-CC-PVTZ AUX)
    Blend: AUG-CC-PVTZ-JKFIT + DEF2-UNIVERSAL-JKFIT

    Orbital Energies [Eh]
    ---------------------

    Doubly Occupied:

       1A     -2.792357

  @DF-RHF Final Energy:    -7.23638448952820

   => Energetics <=

    Nuclear Repulsion Energy =              0.0000000000000000
    One-Electron Energy =                  -8.8880546870924970
    Two-Electron Energy =                   1.6516701975643000
    Total Energy =                         -7.2363844895281968
 Dipole X            :          0.0000069            0.0000000            0.0000069
 Dipole Y            :          0.0000144            0.0000000            0.0000144
 Dipole Z            :         -0.0000101            0.0000000           -0.0000101
 Magnitude           :                                                    0.0000189
  Basis Set: (AUG-CC-PVTZ AUX)
    Blend: AUG-CC-PVTZ-RI + DEF2-QZVPP-RI
	 Reference Energy          =      -7.2363844895281968 [Eh]
	 Singles Energy            =      -0.0000000000000000 [Eh]
	 Same-Spin Energy          =       0.0000000000000000 [Eh]
	 Opposite-Spin Energy      =      -0.0158813954039766 [Eh]
	 Correlation Energy        =      -0.0158813954039766 [Eh]
	 Total Energy              =      -7.2522658849321733 [Eh]

	 ================> DF-SCS-MP2 Energies <==================
	-----------------------------------------------------------
	 SCS Same-Spin Scale       =       0.3333333333333333 [-]
	 SCS Opposite-Spin Scale   =       1.2000000000000000 [-]
	 SCS Same-Spin Energy      =       0.0000000000000000 [Eh]
	 SCS Opposite-Spin Energy  =      -0.0190576744847719 [Eh]
	 SCS Correlation Energy    =      -0.0190576744847719 [Eh]
	 SCS Total Energy          =      -7.2554421640129689 [Eh]
	-----------------------------------------------------------

*** Psi4 exiting successfully. Buy a developer a beer!
