                               Psi4 1.8.2 release

  ==> Input File <==

--------------------------------------------------------------------------
MEMORY 60 GB

molecule dimer {
1 1
Li         0.000000     0.000000     0.000000
O         -0.807644    -1.260844     1.138757
H         -1.635519    -1.682311     1.327527
H         -0.286736    -1.509910     1.936379
O          1.759330    -0.684963    -0.247588
H          2.421120    -1.170058     0.269103
H          2.085332    -0.643141    -1.168976
O          0.088216     1.807821     0.564857
H          0.651141     1.422611     1.287139
H         -0.618624     2.368710     0.980290
O         -1.057908    -0.426688    -1.597347
H         -0.748099    -0.459222    -2.547429
H         -1.560666    -1.268597    -1.484747

units ang
no_reorient
no_com
symmetry c1
}

set {
basis        aug-cc-pVTZ
scf_type     df
}

energy("mp2")
--------------------------------------------------------------------------

    Molecular point group: c1

    Geometry (in Angstrom), charge = 1, multiplicity = 1:

       Center              X                  Y                   Z               Mass
    ------------   -----------------  -----------------  -----------------  -----------------
         LI           0.000000000000     0.000000000000     0.000000000000     7.016003436600
         O           -0.807644000000    -1.260844000000     1.138757000000    15.994914619570
         H           -1.635519000000    -1.682311000000     1.327527000000     1.007825032230
         H           -0.286736000000    -1.509910000000     1.936379000000     1.007825032230
         O            1.759330000000    -0.684963000000    -0.247588000000    15.994914619570
         H            2.421120000000    -1.170058000000     0.269103000000     1.007825032230
         H            2.085332000000    -0.643141000000    -1.168976000000     1.007825032230
         O            0.088216000000     1.807821000000     0.564857000000    15.994914619570
         H            0.651141000000     1.422611000000     1.287139000000     1.007825032230
         H           -0.618624000000     2.368710000000     0.980290000000     1.007825032230
         O           -1.057908000000    -0.426688000000    -1.597347000000    15.994914619570
         H           -0.748099000000    -0.459222000000    -2.547429000000     1.007825032230
         H           -1.560666000000    -1.268597000000    -1.484747000000     1.007825032230

  Charge       = 1
  Multiplicity = 1
  Basis Set: AUG-CC-PVTZ
    Blend: AUG-CC-PVTZ
  Basis Set: (AUG-CC-PVTZ AUX)
    Blend: AUG-CC-PVTZ-JKFIT + DEF2-UNIVERSAL-JKFIT

    Orbital Energies [Eh]
    ---------------------

    Doubly Occupied:

       1A    -20.759538     2A    -20.754771     3A    -20.746524
       4A    -20.743906     5A     -2.528694     6A     -1.549058
       7A     -1.536264     8A     -1.516143     9A     -1.512821
      10A     -0.906907    11A     -0.901055    12A     -0.887118
      13A     -0.872097    14A     -0.811487    15A     -0.789324
      16A     -0.771587    17A     -0.756175    18A     -0.716208
      19A     -0.700439    20A     -0.690878    21A     -0.684716

  @DF-RHF Final Energy:  -311.61312385136080

   => Energetics <=

    Nuclear Repulsion Energy =            164.9963845491958523
    One-Electron Energy =                -750.9475888574210103
    Two-Electron Energy =                 274.3380804568644180
    Total Energy =                       -311.6131238513607968
 Dipole X            :         -0.0878209            0.3097280            0.2219071
 Dipole Y            :         12.7563790          -14.0960530           -1.3396739
 Dipole Z            :          1.5697676           -1.0039775            0.5657901
 Magnitude           :                                                    1.4710838
  Basis Set: (AUG-CC-PVTZ AUX)
    Blend: AUG-CC-PVTZ-RI + DEF2-QZVPP-RI
	 Reference Energy          =    -311.6131238513607968 [Eh]
	 Singles Energy            =      -0.0000000000000000 [Eh]
	 Same-Spin Energy          =      -0.2771279248334281 [Eh]
	 Opposite-Spin Energy      =      -0.8829576715940411 [Eh]
	 Correlation Energy        =      -1.1600855964274692 [Eh]
	 Total Energy              =    -312.7732094477882470 [Eh]

	 ================> DF-SCS-MP2 Energies <==================
	-----------------------------------------------------------
	 SCS Same-Spin Scale       =       0.3333333333333333 [-]
	 SCS Opposite-Spin Scale   =       1.2000000000000000 [-]
	 SCS Same-Spin Energy      =      -0.0923759749444760 [Eh]
	 SCS Opposite-Spin Energy  =      -1.0595492059128493 [Eh]
	 SCS Correlation Energy    =      -1.1519251808573254 [Eh]
	 SCS Total Energy          =    -312.7650490322181440 [Eh]
	-----------------------------------------------------------

*** Psi4 exiting successfully. Buy a developer a beer!
