                               Psi4 1.8.2 release

  ==> Input File <==

--------------------------------------------------------------------------
MEMORY 60 GB

molecule dimer {
1 1
Li         0.000000     0.000000     0.000000
O         -1.250276    -0.767961    -1.527750
H         -0.774486    -1.486835    -1.895383
H         -2.179176    -0.820415    -1.767325
O         -1.166798    -0.535753     1.661617
H         -0.741108    -0.764670     2.507558
H         -1.879153    -1.203534     1.673004
O          0.410563     1.717860     0.405025
H          0.955455     1.673867     1.174611
H          1.000185     2.068463    -0.282656
O          1.643875    -1.072325    -0.704594
H          1.714216    -1.974251    -0.225525
H          2.114756    -1.224097    -1.564307

units ang
no_reorient
no_com
symmetry c1
}

set {
basis        aug-cc-pVTZ
scf_type     df
}

energy("mp2")
--------------------------------------------------------------------------

    Molecular point group: c1

    Geometry (in Angstrom), charge = 1, multiplicity = 1:

       Center              X                  Y                   Z               Mass
    ------------   -----------------  -----------------  -----------------  -----------------
         LI           0.000000000000     0.000000000000     0.000000000000     7.016003436600
         O           -1.250276000000    -0.767961000000    -1.527750000000    15.994914619570
         H           -0.774486000000    -1.486835000000    -1.895383000000     1.007825032230
         H           -2.179176000000    -0.820415000000    -1.767325000000     1.007825032230
         O           -1.166798000000    -0.535753000000     1.661617000000    15.994914619570
         H           -0.741108000000    -0.764670000000     2.507558000000     1.007825032230
         H           -1.879153000000    -1.203534000000     1.673004000000     1.007825032230
         O            0.410563000000     1.717860000000     0.405025000000    15.994914619570
         H            0.955455000000     1.673867000000     1.174611000000     1.007825032230
         H            1.000185000000     2.068463000000    -0.282656000000     1.007825032230
         O            1.643875000000    -1.072325000000    -0.704594000000    15.994914619570
         H            1.714216000000    -1.974251000000    -0.225525000000     1.007825032230
         H            2.114756000000    -1.224097000000    -1.564307000000     1.007825032230

  Charge       = 1
  Multiplicity = 1
  Basis Set: AUG-CC-PVTZ
    Blend: AUG-CC-PVTZ
  Basis Set: (AUG-CC-PVTZ AUX)
    Blend: AUG-CC-PVTZ-JKFIT + DEF2-UNIVERSAL-JKFIT

    Orbital Energies [Eh]
    ---------------------

    Doubly Occupied:

       1A    -20.764150     2A    -20.748879     3A    -20.745485
       4A    -20.732642     5A     -2.545479     6A     -1.544869
       7A     -1.527614     8A     -1.524645     9A     -1.522266
      10A     -0.905378    11A     -0.903370    12A     -0.881521
      13A     -0.870450    14A     -0.794843    15A     -0.786920
      16A     -0.774955    17A     -0.760582    18A     -0.710158
      19A     -0.700879    20A     -0.692424    21A     -0.680875

  @DF-RHF Final Energy:  -311.61498920628577

   => Energetics <=

    Nuclear Repulsion Energy =            158.8264294818086739
    One-Electron Energy =                -738.6460667734771732
    Two-Electron Energy =                 268.2046480853827575
    Total Energy =                       -311.6149892062857703
 Dipole X            :          5.6915614           -5.0841173            0.6074441
 Dipole Y            :         15.3352013          -17.0016845           -1.6664833
 Dipole Z            :          3.1514431           -3.2231906           -0.0717474
 Magnitude           :                                                    1.7751909
  Basis Set: (AUG-CC-PVTZ AUX)
    Blend: AUG-CC-PVTZ-RI + DEF2-QZVPP-RI
	 Reference Energy          =    -311.6149892062857703 [Eh]
	 Singles Energy            =      -0.0000000000000000 [Eh]
	 Same-Spin Energy          =      -0.2760790185742694 [Eh]
	 Opposite-Spin Energy      =      -0.8802727594071265 [Eh]
	 Correlation Energy        =      -1.1563517779813959 [Eh]
	 Total Energy              =    -312.7713409842671695 [Eh]

	 ================> DF-SCS-MP2 Energies <==================
	-----------------------------------------------------------
	 SCS Same-Spin Scale       =       0.3333333333333333 [-]
	 SCS Opposite-Spin Scale   =       1.2000000000000000 [-]
	 SCS Same-Spin Energy      =      -0.0920263395247564 [Eh]
	 SCS Opposite-Spin Energy  =      -1.0563273112885516 [Eh]
	 SCS Correlation Energy    =      -1.1483536508133081 [Eh]
	 SCS Total Energy          =    -312.7633428570990759 [Eh]
	-----------------------------------------------------------

*** Psi4 exiting successfully. Buy a developer a beer!
