                               Psi4 1.9 release

  ==> Input File <==

--------------------------------------------------------------------------
MEMORY 60 GB

molecule dimer {
1 1
Li     0.000000     0.000000     0.000000
--
0 1
O      0.552963    -1.749645     0.131307
H      1.284114    -2.048599    -0.399136
H      0.552090    -2.127656     1.036364
O      1.541907     1.226823    -0.519578
H      1.551480     2.047459     0.018367
H      1.441348     1.555636    -1.465228
O     -0.063798     0.553262     1.985834
H      0.380477     1.157738     2.576072
H     -0.932985     0.385820     2.447181
O     -1.255138     0.486686    -1.137426
H     -1.106484     0.045005    -1.941916
H     -1.576557     1.362913    -1.297025

units ang
no_reorient
no_com
symmetry c1
}

set {
basis        aug-cc-pVTZ
scf_type     df
}

energy("mp2", bsse_type="cp")
--------------------------------------------------------------------------

                               Psi4 1.9 release
    Molecular point group: c1
  Charge       = 0
  Multiplicity = 1
  Basis Set: AUG-CC-PVTZ
    Blend: AUG-CC-PVTZ
  Basis Set: (AUG-CC-PVTZ AUX)
    Blend: AUG-CC-PVTZ-JKFIT + DEF2-UNIVERSAL-JKFIT
  @DF-RHF Final Energy:  -304.20924562781988
    Total Energy =                       -304.2092456278198824
 Dipole X            :        -14.7182754           14.7416685            0.0233931
 Dipole Y            :        -11.4835877           12.3121780            0.8285903
 Dipole Z            :         -8.7296012            8.7981397            0.0685385
 Magnitude           :                                                    0.8317491
  Basis Set: (AUG-CC-PVTZ AUX)
    Blend: AUG-CC-PVTZ-RI + DEF2-QZVPP-RI
	 Reference Energy          =    -304.2092456278198824 [Eh]
	 Singles Energy            =      -0.0000000000000000 [Eh]
	 Same-Spin Energy          =      -0.2777408440560318 [Eh]
	 Opposite-Spin Energy      =      -0.8704182093812600 [Eh]
	 Correlation Energy        =      -1.1481590534372919 [Eh]
	 Total Energy              =    -305.3574046812571510 [Eh]
	 SCS Total Energy          =    -305.3463277604294035 [Eh]
                               Psi4 1.9 release
    Molecular point group: c1
  Multiplicity = 1
  Basis Set: AUG-CC-PVTZ
    Blend: AUG-CC-PVTZ
  Basis Set: (AUG-CC-PVTZ AUX)
    Blend: AUG-CC-PVTZ-JKFIT + DEF2-UNIVERSAL-JKFIT
  @DF-RHF Final Energy:    -7.23638488449420
    Total Energy =                         -7.2363848844942016
  Basis Set: (AUG-CC-PVTZ AUX)
	 Singles Energy            =      -0.0000000000000000 [Eh]
	 Same-Spin Energy          =      -0.0000000000000000 [Eh]
	 Opposite-Spin Energy      =      -0.0173742029462637 [Eh]
	 Correlation Energy        =      -0.0173742029462637 [Eh]
	 Total Energy              =      -7.2537590874404652 [Eh]
	 SCS Total Energy          =      -7.2572339280297182 [Eh]
                               Psi4 1.9 release
    Molecular point group: c1

    Geometry (in Bohr), charge = 1, multiplicity = 1:

       Center              X                  Y                   Z               Mass
    ------------   -----------------  -----------------  -----------------  -----------------
         LI           0.000000000000     0.000000000000     0.000000000000     7.016003436600
         O            1.044948627512    -3.306349866777     0.248134268355    15.994914619570
         H            2.426623773866    -3.871291050887    -0.754257726811     1.007825032230
         H            1.043298896604    -4.020687129187     1.958444126284     1.007825032230
         O            2.913781940926     2.318359474413    -0.981860120813    15.994914619570
         H            2.931872289125     3.869136763104     0.034708599746     1.007825032230
         H            2.723752971476     2.939725990903    -2.768879631352     1.007825032230
         O           -0.120560747352     1.045513655623     3.752682390622    15.994914619570
         H            0.718997327036     2.187807745035     4.868070559460     1.007825032230
         H           -1.763086129160     0.729094133724     4.624501869424     1.007825032230
         O           -2.371867069655     0.919703249095    -2.149423627975    15.994914619570
         H           -2.090951722201     0.085047124276    -3.669689398645     1.007825032230
         H           -2.979260951173     2.575532302826    -2.451022027872     1.007825032230

  Charge       = 1
  Multiplicity = 1
  Basis Set: AUG-CC-PVTZ
    Blend: AUG-CC-PVTZ
  Basis Set: (AUG-CC-PVTZ AUX)
    Blend: AUG-CC-PVTZ-JKFIT + DEF2-UNIVERSAL-JKFIT

    Orbital Energies [Eh]
    ---------------------

    Doubly Occupied:

       1A    -20.753917     2A    -20.747917     3A    -20.746650
       4A    -20.740925     5A     -2.522469     6A     -1.562235
       7A     -1.529023     8A     -1.526111     9A     -1.514839
      10A     -0.938469    11A     -0.910029    12A     -0.885923
      13A     -0.873569    14A     -0.801790    15A     -0.786752
      16A     -0.769661    17A     -0.763694    18A     -0.724863
      19A     -0.698499    20A     -0.689452    21A     -0.682143

  @DF-RHF Final Energy:  -311.61851490954604

   => Energetics <=

    Nuclear Repulsion Energy =            165.0659366311894871
    One-Electron Energy =                -751.0310399516125699
    Two-Electron Energy =                 274.3465884108770183
    Total Energy =                       -311.6185149095460361
 Dipole X            :        -14.6187880           14.7416685            0.1228805
 Dipole Y            :        -11.3610860           12.3121780            0.9510920
 Dipole Z            :         -8.6996665            8.7981397            0.0984731
 Magnitude           :                                                    0.9640397
  Basis Set: (AUG-CC-PVTZ AUX)
    Blend: AUG-CC-PVTZ-RI + DEF2-QZVPP-RI
	 Reference Energy          =    -311.6185149095460361 [Eh]
	 Singles Energy            =      -0.0000000000000000 [Eh]
	 Same-Spin Energy          =      -0.2758854226852484 [Eh]
	 Opposite-Spin Energy      =      -0.8793590658682557 [Eh]
	 Correlation Energy        =      -1.1552444885535040 [Eh]
	 Total Energy              =    -312.7737593980995143 [Eh]

	 ================> DF-SCS-MP2 Energies <==================
	-----------------------------------------------------------
	 SCS Same-Spin Scale       =       0.3333333333333333 [-]
	 SCS Opposite-Spin Scale   =       1.2000000000000000 [-]
	 SCS Same-Spin Energy      =      -0.0919618075617495 [Eh]
	 SCS Opposite-Spin Energy  =      -1.0552308790419069 [Eh]
	 SCS Correlation Energy    =      -1.1471926866036564 [Eh]
	 SCS Total Energy          =    -312.7657075961496957 [Eh]
	-----------------------------------------------------------

*** Psi4 exiting successfully. Buy a developer a beer!
