                               Psi4 1.8.2 release

  ==> Input File <==

--------------------------------------------------------------------------
MEMORY 60 GB

molecule dimer {
1 1
Li         0.000000     0.000000     0.000000
O          0.550681     0.947423     1.505334
H          0.161846     0.907748     2.392860
H          1.467969     1.175398     1.691757
O          0.754605    -1.279638    -0.954929
H          0.270620    -2.057244    -1.226441
H          1.014806    -0.868615    -1.816737
O          0.567737     1.533188    -1.263215
H          1.376336     2.087318    -1.155885
H         -0.117822     2.050584    -1.738495
O         -1.991045     0.342734    -0.264047
H         -2.302911     0.449848    -1.148678
H         -2.370736     1.090364     0.255936

units ang
no_reorient
no_com
symmetry c1
}

set {
basis        aug-cc-pVTZ
scf_type     df
}

energy("mp2")
--------------------------------------------------------------------------

    Molecular point group: c1

    Geometry (in Angstrom), charge = 1, multiplicity = 1:

       Center              X                  Y                   Z               Mass
    ------------   -----------------  -----------------  -----------------  -----------------
         LI           0.000000000000     0.000000000000     0.000000000000     7.016003436600
         O            0.550681000000     0.947423000000     1.505334000000    15.994914619570
         H            0.161846000000     0.907748000000     2.392860000000     1.007825032230
         H            1.467969000000     1.175398000000     1.691757000000     1.007825032230
         O            0.754605000000    -1.279638000000    -0.954929000000    15.994914619570
         H            0.270620000000    -2.057244000000    -1.226441000000     1.007825032230
         H            1.014806000000    -0.868615000000    -1.816737000000     1.007825032230
         O            0.567737000000     1.533188000000    -1.263215000000    15.994914619570
         H            1.376336000000     2.087318000000    -1.155885000000     1.007825032230
         H           -0.117822000000     2.050584000000    -1.738495000000     1.007825032230
         O           -1.991045000000     0.342734000000    -0.264047000000    15.994914619570
         H           -2.302911000000     0.449848000000    -1.148678000000     1.007825032230
         H           -2.370736000000     1.090364000000     0.255936000000     1.007825032230

  Charge       = 1
  Multiplicity = 1
  Basis Set: AUG-CC-PVTZ
    Blend: AUG-CC-PVTZ
  Basis Set: (AUG-CC-PVTZ AUX)
    Blend: AUG-CC-PVTZ-JKFIT + DEF2-UNIVERSAL-JKFIT

    Orbital Energies [Eh]
    ---------------------

    Doubly Occupied:

       1A    -20.751658     2A    -20.748581     3A    -20.745797
       4A    -20.745057     5A     -2.523943     6A     -1.540475
       7A     -1.537243     8A     -1.531676     9A     -1.518426
      10A     -0.899660    11A     -0.898184    12A     -0.893244
      13A     -0.888271    14A     -0.804113    15A     -0.790915
      16A     -0.776493    17A     -0.764988    18A     -0.708777
      19A     -0.703841    20A     -0.695314    21A     -0.682136

  @DF-RHF Final Energy:  -311.62005216297717

   => Energetics <=

    Nuclear Repulsion Energy =            166.6897424822464018
    One-Electron Energy =                -754.3219986665816350
    Two-Electron Energy =                 276.0122040213580590
    Total Energy =                       -311.6200521629771742
 Dipole X            :          2.5531583           -2.7288930           -0.1757347
 Dipole Y            :        -31.0524542           32.4750512            1.4225970
 Dipole Z            :         19.3344669          -19.9565264           -0.6220596
 Magnitude           :                                                    1.5625694
  Basis Set: (AUG-CC-PVTZ AUX)
    Blend: AUG-CC-PVTZ-RI + DEF2-QZVPP-RI
	 Reference Energy          =    -311.6200521629771742 [Eh]
	 Singles Energy            =      -0.0000000000000000 [Eh]
	 Same-Spin Energy          =      -0.2766487619235922 [Eh]
	 Opposite-Spin Energy      =      -0.8806735008182308 [Eh]
	 Correlation Energy        =      -1.1573222627418229 [Eh]
	 Total Energy              =    -312.7773744257190174 [Eh]

	 ================> DF-SCS-MP2 Energies <==================
	-----------------------------------------------------------
	 SCS Same-Spin Scale       =       0.3333333333333333 [-]
	 SCS Opposite-Spin Scale   =       1.2000000000000000 [-]
	 SCS Same-Spin Energy      =      -0.0922162539745307 [Eh]
	 SCS Opposite-Spin Energy  =      -1.0568082009818769 [Eh]
	 SCS Correlation Energy    =      -1.1490244549564077 [Eh]
	 SCS Total Energy          =    -312.7690766179335924 [Eh]
	-----------------------------------------------------------

*** Psi4 exiting successfully. Buy a developer a beer!
