                               Psi4 1.8.2 release

  ==> Input File <==

--------------------------------------------------------------------------
MEMORY 60 GB

molecule dimer {
1 1
Li         0.000000     0.000000     0.000000
Gh(O)      0.552963    -1.749645     0.131307
Gh(H)      1.284114    -2.048599    -0.399136
Gh(H)      0.552090    -2.127656     1.036364
Gh(O)      1.541907     1.226823    -0.519578
Gh(H)      1.551480     2.047459     0.018367
Gh(H)      1.441348     1.555636    -1.465228
Gh(O)     -0.063798     0.553262     1.985834
Gh(H)      0.380477     1.157738     2.576072
Gh(H)     -0.932985     0.385820     2.447181
Gh(O)     -1.255138     0.486686    -1.137426
Gh(H)     -1.106484     0.045005    -1.941916
Gh(H)     -1.576557     1.362913    -1.297025

units ang
no_reorient
no_com
symmetry c1
}

set {
basis        aug-cc-pVTZ
scf_type     df
}

energy("mp2")
--------------------------------------------------------------------------

    Molecular point group: c1

    Geometry (in Angstrom), charge = 1, multiplicity = 1:

       Center              X                  Y                   Z               Mass
    ------------   -----------------  -----------------  -----------------  -----------------
         LI           0.000000000000     0.000000000000     0.000000000000     7.016003436600
      Gh(O)           0.552963000000    -1.749645000000     0.131307000000    15.994914619570
      Gh(H)           1.284114000000    -2.048599000000    -0.399136000000     1.007825032230
      Gh(H)           0.552090000000    -2.127656000000     1.036364000000     1.007825032230
      Gh(O)           1.541907000000     1.226823000000    -0.519578000000    15.994914619570
      Gh(H)           1.551480000000     2.047459000000     0.018367000000     1.007825032230
      Gh(H)           1.441348000000     1.555636000000    -1.465228000000     1.007825032230
      Gh(O)          -0.063798000000     0.553262000000     1.985834000000    15.994914619570
      Gh(H)           0.380477000000     1.157738000000     2.576072000000     1.007825032230
      Gh(H)          -0.932985000000     0.385820000000     2.447181000000     1.007825032230
      Gh(O)          -1.255138000000     0.486686000000    -1.137426000000    15.994914619570
      Gh(H)          -1.106484000000     0.045005000000    -1.941916000000     1.007825032230
      Gh(H)          -1.576557000000     1.362913000000    -1.297025000000     1.007825032230

  Charge       = 1
  Multiplicity = 1
  Basis Set: AUG-CC-PVTZ
    Blend: AUG-CC-PVTZ
  Basis Set: (AUG-CC-PVTZ AUX)
    Blend: AUG-CC-PVTZ-JKFIT + DEF2-UNIVERSAL-JKFIT

    Orbital Energies [Eh]
    ---------------------

    Doubly Occupied:

       1A     -2.792353

  @DF-RHF Final Energy:    -7.23638488449565

   => Energetics <=

    Nuclear Repulsion Energy =              0.0000000000000000
    One-Electron Energy =                  -8.8880643096336769
    Two-Electron Energy =                   1.6516794251380214
    Total Energy =                         -7.2363848844956555
 Dipole X            :          0.0000043            0.0000000            0.0000043
 Dipole Y            :          0.0000119            0.0000000            0.0000119
 Dipole Z            :          0.0000081            0.0000000            0.0000081
 Magnitude           :                                                    0.0000150
  Basis Set: (AUG-CC-PVTZ AUX)
    Blend: AUG-CC-PVTZ-RI + DEF2-QZVPP-RI
	 Reference Energy          =      -7.2363848844956546 [Eh]
	 Singles Energy            =      -0.0000000000000000 [Eh]
	 Same-Spin Energy          =       0.0000000000000000 [Eh]
	 Opposite-Spin Energy      =      -0.0173742029472630 [Eh]
	 Correlation Energy        =      -0.0173742029472630 [Eh]
	 Total Energy              =      -7.2537590874429174 [Eh]

	 ================> DF-SCS-MP2 Energies <==================
	-----------------------------------------------------------
	 SCS Same-Spin Scale       =       0.3333333333333333 [-]
	 SCS Opposite-Spin Scale   =       1.2000000000000000 [-]
	 SCS Same-Spin Energy      =       0.0000000000000000 [Eh]
	 SCS Opposite-Spin Energy  =      -0.0208490435367156 [Eh]
	 SCS Correlation Energy    =      -0.0208490435367156 [Eh]
	 SCS Total Energy          =      -7.2572339280323703 [Eh]
	-----------------------------------------------------------

*** Psi4 exiting successfully. Buy a developer a beer!
