                               Psi4 1.9 release

  ==> Input File <==

--------------------------------------------------------------------------
MEMORY 60 GB

molecule dimer {
1 1
Li     0.000000     0.000000     0.000000
--
0 1
O      1.023000     0.620441     1.583861
H      1.455219     0.253028     2.357655
H      1.073738     1.617144     1.656624
O      0.990010    -1.210458    -1.226372
H      0.996585    -0.767777    -2.058657
H      0.892016    -2.180068    -1.332978
O     -0.199397     1.811129    -0.706428
H     -0.471302     2.120332    -1.569275
H     -0.590440     2.361535    -0.067867

units ang
no_reorient
no_com
symmetry c1
}

set {
basis        aug-cc-pVTZ
scf_type     df
}

energy("mp2", bsse_type="cp")
--------------------------------------------------------------------------

                               Psi4 1.9 release
    Molecular point group: c1
  Charge       = 0
  Multiplicity = 1
  Basis Set: AUG-CC-PVTZ
    Blend: AUG-CC-PVTZ
  Basis Set: (AUG-CC-PVTZ AUX)
    Blend: AUG-CC-PVTZ-JKFIT + DEF2-UNIVERSAL-JKFIT
  @DF-RHF Final Energy:  -228.16490013998529
    Total Energy =                       -228.1649001399852921
 Dipole X            :        -33.9555620           33.7594281           -0.1961339
 Dipole Y            :        -24.2967651           24.8935323            0.5967672
 Dipole Z            :          6.9620333           -7.1923165           -0.2302833
 Magnitude           :                                                    0.6690516
  Basis Set: (AUG-CC-PVTZ AUX)
    Blend: AUG-CC-PVTZ-RI + DEF2-QZVPP-RI
	 Reference Energy          =    -228.1649001399852921 [Eh]
	 Singles Energy            =      -0.0000000000000000 [Eh]
	 Same-Spin Energy          =      -0.2069387777727999 [Eh]
	 Opposite-Spin Energy      =      -0.6497463174530267 [Eh]
	 Correlation Energy        =      -0.8566850952258266 [Eh]
	 Total Energy              =    -229.0215852352111199 [Eh]
	 SCS Total Energy          =    -229.0135753135198513 [Eh]
                               Psi4 1.9 release
    Molecular point group: c1
  Multiplicity = 1
  Basis Set: AUG-CC-PVTZ
    Blend: AUG-CC-PVTZ
  Basis Set: (AUG-CC-PVTZ AUX)
    Blend: AUG-CC-PVTZ-JKFIT + DEF2-UNIVERSAL-JKFIT
  @DF-RHF Final Energy:    -7.23638439123910
    Total Energy =                         -7.2363843912391044
  Basis Set: (AUG-CC-PVTZ AUX)
	 Singles Energy            =      -0.0000000000000000 [Eh]
	 Same-Spin Energy          =       0.0000000000000000 [Eh]
	 Opposite-Spin Energy      =      -0.0155859866001486 [Eh]
	 Correlation Energy        =      -0.0155859866001486 [Eh]
	 Total Energy              =      -7.2519703778392532 [Eh]
	 SCS Total Energy          =      -7.2550875751592825 [Eh]
                               Psi4 1.9 release
    Molecular point group: c1

    Geometry (in Bohr), charge = 1, multiplicity = 1:

       Center              X                  Y                   Z               Mass
    ------------   -----------------  -----------------  -----------------  -----------------
         LI           0.000000000000     0.000000000000     0.000000000000     7.016003436600
         O            1.933189826343     1.172463567005     2.993063510794    15.994914619570
         H            2.749965362563     0.478153622072     4.455322248316     1.007825032230
         H            2.029070750497     3.055959265427     3.130565652860     1.007825032230
         O            1.870847761465    -2.287434106369    -2.317507207930    15.994914619570
         H            1.883272710739    -1.450888255426    -3.890297916257     1.007825032230
         H            1.685665939526    -4.119731454875    -2.518963351261     1.007825032230
         O           -0.376805720238     3.422537787874    -1.334955447355    15.994914619570
         H           -0.890631702381     4.006846775044    -2.965499965528     1.007825032230
         H           -1.115769893515     4.462654385683    -0.128250042956     1.007825032230

  Charge       = 1
  Multiplicity = 1
  Basis Set: AUG-CC-PVTZ
    Blend: AUG-CC-PVTZ
  Basis Set: (AUG-CC-PVTZ AUX)
    Blend: AUG-CC-PVTZ-JKFIT + DEF2-UNIVERSAL-JKFIT

    Orbital Energies [Eh]
    ---------------------

    Doubly Occupied:

       1A    -20.771151     2A    -20.758797     3A    -20.757554
       4A     -2.585935     5A     -1.572231     6A     -1.543965
       7A     -1.534314     8A     -0.945447     9A     -0.922494
      10A     -0.902285    11A     -0.814922    12A     -0.789212
      13A     -0.780429    14A     -0.727979    15A     -0.708604
      16A     -0.702212

  @DF-RHF Final Energy:  -235.54128709698037

   => Energetics <=

    Nuclear Repulsion Energy =             98.3426342081062472
    One-Electron Energy =                -514.1327804613930539
    Two-Electron Energy =                 180.2488591563064517
    Total Energy =                       -235.5412870969803691
 Dipole X            :        -33.6380265           33.7594281            0.1214016
 Dipole Y            :        -24.0471223           24.8935323            0.8464100
 Dipole Z            :          6.8818999           -7.1923165           -0.3104166
 Magnitude           :                                                    0.9096739
  Basis Set: (AUG-CC-PVTZ AUX)
    Blend: AUG-CC-PVTZ-RI + DEF2-QZVPP-RI
	 Reference Energy          =    -235.5412870969803691 [Eh]
	 Singles Energy            =      -0.0000000000000000 [Eh]
	 Same-Spin Energy          =      -0.2055930367432142 [Eh]
	 Opposite-Spin Energy      =      -0.6596169821428505 [Eh]
	 Correlation Energy        =      -0.8652100188860647 [Eh]
	 Total Energy              =    -236.4064971158664434 [Eh]

	 ================> DF-SCS-MP2 Energies <==================
	-----------------------------------------------------------
	 SCS Same-Spin Scale       =       0.3333333333333333 [-]
	 SCS Opposite-Spin Scale   =       1.2000000000000000 [-]
	 SCS Same-Spin Energy      =      -0.0685310122477381 [Eh]
	 SCS Opposite-Spin Energy  =      -0.7915403785714206 [Eh]
	 SCS Correlation Energy    =      -0.8600713908191586 [Eh]
	 SCS Total Energy          =    -236.4013584877995413 [Eh]
	-----------------------------------------------------------

*** Psi4 exiting successfully. Buy a developer a beer!
