                               Psi4 1.9 release

  ==> Input File <==

--------------------------------------------------------------------------
MEMORY 60 GB

molecule dimer {
1 1
Li     0.000000     0.000000     0.000000
--
0 1
O     -0.877901    -0.669804    -1.764505
H     -0.604585    -0.141250    -2.476090
H     -0.318802    -1.470888    -1.866124
O     -0.675625    -0.903094     1.504513
H     -1.561938    -0.688831     1.846484
H     -0.636237    -1.802238     1.249660
O     -0.291915     1.880346     0.276855
H     -0.395520     2.489150    -0.423060
H     -0.773999     2.031365     1.070741
O      1.738779    -0.892995    -0.171427
H      1.936336    -1.888660    -0.006936
H      2.351816    -0.434925     0.435878

units ang
no_reorient
no_com
symmetry c1
}

set {
basis        aug-cc-pVTZ
scf_type     df
}

energy("mp2", bsse_type="cp")
--------------------------------------------------------------------------

                               Psi4 1.9 release
    Molecular point group: c1
  Charge       = 0
  Multiplicity = 1
  Basis Set: AUG-CC-PVTZ
    Blend: AUG-CC-PVTZ
  Basis Set: (AUG-CC-PVTZ AUX)
    Blend: AUG-CC-PVTZ-JKFIT + DEF2-UNIVERSAL-JKFIT
  @DF-RHF Final Energy:  -304.21148729419406
    Total Energy =                       -304.2114872941940575
 Dipole X            :          1.7428036           -1.6180308            0.1247728
 Dipole Y            :         12.0943999          -12.4545292           -0.3601292
 Dipole Z            :          2.7537022           -2.6568775            0.0968247
 Magnitude           :                                                    0.3932383
  Basis Set: (AUG-CC-PVTZ AUX)
    Blend: AUG-CC-PVTZ-RI + DEF2-QZVPP-RI
	 Reference Energy          =    -304.2114872941940575 [Eh]
	 Singles Energy            =      -0.0000000000000000 [Eh]
	 Same-Spin Energy          =      -0.2768259173663680 [Eh]
	 Opposite-Spin Energy      =      -0.8680847117811112 [Eh]
	 Correlation Energy        =      -1.1449106291474793 [Eh]
	 Total Energy              =    -305.3563979233415466 [Eh]
	 SCS Total Energy          =    -305.3454642541202020 [Eh]
                               Psi4 1.9 release
    Molecular point group: c1
  Multiplicity = 1
  Basis Set: AUG-CC-PVTZ
    Blend: AUG-CC-PVTZ
  Basis Set: (AUG-CC-PVTZ AUX)
    Blend: AUG-CC-PVTZ-JKFIT + DEF2-UNIVERSAL-JKFIT
  @DF-RHF Final Energy:    -7.23638488639531
    Total Energy =                         -7.2363848863953093
  Basis Set: (AUG-CC-PVTZ AUX)
	 Singles Energy            =      -0.0000000000000000 [Eh]
	 Same-Spin Energy          =       0.0000000000000000 [Eh]
	 Opposite-Spin Energy      =      -0.0170635904444314 [Eh]
	 Correlation Energy        =      -0.0170635904444314 [Eh]
	 Total Energy              =      -7.2534484768397407 [Eh]
	 SCS Total Energy          =      -7.2568611949286268 [Eh]
                               Psi4 1.9 release
    Molecular point group: c1

    Geometry (in Bohr), charge = 1, multiplicity = 1:

       Center              X                  Y                   Z               Mass
    ------------   -----------------  -----------------  -----------------  -----------------
         LI           0.000000000000     0.000000000000     0.000000000000     7.016003436600
         O           -1.658992455266    -1.265746117736    -3.334431197001    15.994914619570
         H           -1.142500069560    -0.266923815221    -4.679131961985     1.007825032230
         H           -0.602448468248    -2.779575481222    -3.526463276144     1.007825032230
         O           -1.276746213512    -1.706600325544     2.843117522191    15.994914619570
         H           -2.951635044945    -1.301701936725     3.489349055040     1.007825032230
         H           -1.202313680883    -3.405736232893     2.361515149940     1.007825032230
         O           -0.551639401913     3.553338961100     0.523180126464    15.994914619570
         H           -0.747424477141     4.703811785183    -0.799467534636     1.007825032230
         H           -1.462646131378     3.838723510841     2.023407241299     1.007825032230
         O            3.285816102697    -1.687515981403    -0.323950080509    15.994914619570
         H            3.659144726865    -3.569050144107    -0.013107140406     1.007825032230
         H            4.444288137470    -0.821889135115     0.823690044112     1.007825032230

  Charge       = 1
  Multiplicity = 1
  Basis Set: AUG-CC-PVTZ
    Blend: AUG-CC-PVTZ
  Basis Set: (AUG-CC-PVTZ AUX)
    Blend: AUG-CC-PVTZ-JKFIT + DEF2-UNIVERSAL-JKFIT

    Orbital Energies [Eh]
    ---------------------

    Doubly Occupied:

       1A    -20.763786     2A    -20.755306     3A    -20.745819
       4A    -20.743385     5A     -2.537713     6A     -1.550886
       7A     -1.547553     8A     -1.537382     9A     -1.528558
      10A     -0.944782    11A     -0.925770    12A     -0.895409
      13A     -0.884324    14A     -0.793725    15A     -0.786830
      16A     -0.776057    17A     -0.771447    18A     -0.714655
      19A     -0.706966    20A     -0.702836    21A     -0.694648

  @DF-RHF Final Energy:  -311.61378119215925

   => Energetics <=

    Nuclear Repulsion Energy =            163.6171992106860671
    One-Electron Energy =                -747.8462798280837660
    Two-Electron Energy =                 272.6152994252384474
    Total Energy =                       -311.6137811921592515
 Dipole X            :          1.7283961           -1.6180308            0.1103654
 Dipole Y            :         11.9520500          -12.4545292           -0.5024792
 Dipole Z            :          2.7921176           -2.6568775            0.1352401
 Magnitude           :                                                    0.5319358
  Basis Set: (AUG-CC-PVTZ AUX)
    Blend: AUG-CC-PVTZ-RI + DEF2-QZVPP-RI
	 Reference Energy          =    -311.6137811921592515 [Eh]
	 Singles Energy            =      -0.0000000000000000 [Eh]
	 Same-Spin Energy          =      -0.2754545129850060 [Eh]
	 Opposite-Spin Energy      =      -0.8783171003841100 [Eh]
	 Correlation Energy        =      -1.1537716133691160 [Eh]
	 Total Energy              =    -312.7675528055283394 [Eh]

	 ================> DF-SCS-MP2 Energies <==================
	-----------------------------------------------------------
	 SCS Same-Spin Scale       =       0.3333333333333333 [-]
	 SCS Opposite-Spin Scale   =       1.2000000000000000 [-]
	 SCS Same-Spin Energy      =      -0.0918181709950020 [Eh]
	 SCS Opposite-Spin Energy  =      -1.0539805204609320 [Eh]
	 SCS Correlation Energy    =      -1.1457986914559339 [Eh]
	 SCS Total Energy          =    -312.7595798836151744 [Eh]
	-----------------------------------------------------------

*** Psi4 exiting successfully. Buy a developer a beer!
