                               Psi4 1.8.2 release

  ==> Input File <==

--------------------------------------------------------------------------
MEMORY 60 GB

molecule dimer {
1 1
Li         0.000000     0.000000     0.000000
Gh(O)      1.019083     0.534807    -1.726191
Gh(H)      0.625080     0.290251    -2.608177
Gh(H)      0.830858     1.498588    -1.618666
Gh(O)      0.965199     1.220004     1.116919
Gh(H)      0.489944     1.995527     1.292918
Gh(H)      1.415083     0.944086     1.921579
Gh(O)     -1.437462     1.300273    -0.217367
Gh(H)     -1.717662     1.772714     0.555732
Gh(H)     -1.328741     1.931896    -0.948455
Gh(O)     -0.568332    -1.731301    -0.760465
Gh(H)     -0.202881    -1.985016    -1.680965
Gh(H)     -0.497598    -2.566820    -0.278428

units ang
no_reorient
no_com
symmetry c1
}

set {
basis        aug-cc-pVTZ
scf_type     df
}

energy("mp2")
--------------------------------------------------------------------------

    Molecular point group: c1

    Geometry (in Angstrom), charge = 1, multiplicity = 1:

       Center              X                  Y                   Z               Mass
    ------------   -----------------  -----------------  -----------------  -----------------
         LI           0.000000000000     0.000000000000     0.000000000000     7.016003436600
      Gh(O)           1.019083000000     0.534807000000    -1.726191000000    15.994914619570
      Gh(H)           0.625080000000     0.290251000000    -2.608177000000     1.007825032230
      Gh(H)           0.830858000000     1.498588000000    -1.618666000000     1.007825032230
      Gh(O)           0.965199000000     1.220004000000     1.116919000000    15.994914619570
      Gh(H)           0.489944000000     1.995527000000     1.292918000000     1.007825032230
      Gh(H)           1.415083000000     0.944086000000     1.921579000000     1.007825032230
      Gh(O)          -1.437462000000     1.300273000000    -0.217367000000    15.994914619570
      Gh(H)          -1.717662000000     1.772714000000     0.555732000000     1.007825032230
      Gh(H)          -1.328741000000     1.931896000000    -0.948455000000     1.007825032230
      Gh(O)          -0.568332000000    -1.731301000000    -0.760465000000    15.994914619570
      Gh(H)          -0.202881000000    -1.985016000000    -1.680965000000     1.007825032230
      Gh(H)          -0.497598000000    -2.566820000000    -0.278428000000     1.007825032230

  Charge       = 1
  Multiplicity = 1
  Basis Set: AUG-CC-PVTZ
    Blend: AUG-CC-PVTZ
  Basis Set: (AUG-CC-PVTZ AUX)
    Blend: AUG-CC-PVTZ-JKFIT + DEF2-UNIVERSAL-JKFIT

    Orbital Energies [Eh]
    ---------------------

    Doubly Occupied:

       1A     -2.792353

  @DF-RHF Final Energy:    -7.23638488117741

   => Energetics <=

    Nuclear Repulsion Energy =              0.0000000000000000
    One-Electron Energy =                  -8.8880644373632727
    Two-Electron Energy =                   1.6516795561858604
    Total Energy =                         -7.2363848811774121
 Dipole X            :          0.0000068            0.0000000            0.0000068
 Dipole Y            :         -0.0000087            0.0000000           -0.0000087
 Dipole Z            :          0.0000009            0.0000000            0.0000009
 Magnitude           :                                                    0.0000111
  Basis Set: (AUG-CC-PVTZ AUX)
    Blend: AUG-CC-PVTZ-RI + DEF2-QZVPP-RI
	 Reference Energy          =      -7.2363848811774121 [Eh]
	 Singles Energy            =      -0.0000000000000000 [Eh]
	 Same-Spin Energy          =       0.0000000000000000 [Eh]
	 Opposite-Spin Energy      =      -0.0167973148999712 [Eh]
	 Correlation Energy        =      -0.0167973148999712 [Eh]
	 Total Energy              =      -7.2531821960773835 [Eh]

	 ================> DF-SCS-MP2 Energies <==================
	-----------------------------------------------------------
	 SCS Same-Spin Scale       =       0.3333333333333333 [-]
	 SCS Opposite-Spin Scale   =       1.2000000000000000 [-]
	 SCS Same-Spin Energy      =       0.0000000000000000 [Eh]
	 SCS Opposite-Spin Energy  =      -0.0201567778799654 [Eh]
	 SCS Correlation Energy    =      -0.0201567778799654 [Eh]
	 SCS Total Energy          =      -7.2565416590573779 [Eh]
	-----------------------------------------------------------

*** Psi4 exiting successfully. Buy a developer a beer!
