                               Psi4 1.8.2 release

  ==> Input File <==

--------------------------------------------------------------------------
MEMORY 60 GB

molecule dimer {
0 1
Gh(Li)     0.000000     0.000000     0.000000
Gh(O)     -1.032842     0.396425    -1.658178
Gh(H)     -1.279584     0.014094    -2.509117
Gh(H)     -1.562276     1.236030    -1.642107
Gh(O)     -0.418356     0.747917     1.594078
Gh(H)      0.358018     0.959903     2.183691
Gh(H)     -0.999293     1.461192     1.564220
O          1.442274     1.084928    -0.518287
H          1.966751     1.852884    -0.286094
H          1.473632     0.916597    -1.471009
Gh(O)      0.031737    -1.911179     0.426641
Gh(H)      0.902421    -2.258501     0.761336
Gh(H)     -0.721623    -2.124603     0.942511

units ang
no_reorient
no_com
symmetry c1
}

set {
basis        aug-cc-pVTZ
scf_type     df
}

energy("mp2")
--------------------------------------------------------------------------

    Molecular point group: c1

    Geometry (in Angstrom), charge = 0, multiplicity = 1:

       Center              X                  Y                   Z               Mass
    ------------   -----------------  -----------------  -----------------  -----------------
      Gh(LI)          0.000000000000     0.000000000000     0.000000000000     7.016003436600
      Gh(O)          -1.032842000000     0.396425000000    -1.658178000000    15.994914619570
      Gh(H)          -1.279584000000     0.014094000000    -2.509117000000     1.007825032230
      Gh(H)          -1.562276000000     1.236030000000    -1.642107000000     1.007825032230
      Gh(O)          -0.418356000000     0.747917000000     1.594078000000    15.994914619570
      Gh(H)           0.358018000000     0.959903000000     2.183691000000     1.007825032230
      Gh(H)          -0.999293000000     1.461192000000     1.564220000000     1.007825032230
         O            1.442274000000     1.084928000000    -0.518287000000    15.994914619570
         H            1.966751000000     1.852884000000    -0.286094000000     1.007825032230
         H            1.473632000000     0.916597000000    -1.471009000000     1.007825032230
      Gh(O)           0.031737000000    -1.911179000000     0.426641000000    15.994914619570
      Gh(H)           0.902421000000    -2.258501000000     0.761336000000     1.007825032230
      Gh(H)          -0.721623000000    -2.124603000000     0.942511000000     1.007825032230

  Charge       = 0
  Multiplicity = 1
  Basis Set: AUG-CC-PVTZ
    Blend: AUG-CC-PVTZ
  Basis Set: (AUG-CC-PVTZ AUX)
    Blend: AUG-CC-PVTZ-JKFIT + DEF2-UNIVERSAL-JKFIT

    Orbital Energies [Eh]
    ---------------------

    Doubly Occupied:

       1A    -20.564978     2A     -1.345847     3A     -0.726511
       4A     -0.570957     5A     -0.507791

  @DF-RHF Final Energy:   -76.05948493808054

   => Energetics <=

    Nuclear Repulsion Energy =              9.1231779043585135
    One-Electron Energy =                -122.9331551309422821
    Two-Electron Energy =                  37.7504922885032244
    Total Energy =                        -76.0594849380805442
 Dipole X            :        -27.9292532           28.3054045            0.3761513
 Dipole Y            :        -21.2289833           21.6352949            0.4063116
 Dipole Z            :         10.6696370          -11.1558073           -0.4861703
 Magnitude           :                                                    0.7368450
  Basis Set: (AUG-CC-PVTZ AUX)
    Blend: AUG-CC-PVTZ-RI + DEF2-QZVPP-RI
	 Reference Energy          =     -76.0594849380805442 [Eh]
	 Singles Energy            =      -0.0000000000000000 [Eh]
	 Same-Spin Energy          =      -0.0684600404567371 [Eh]
	 Opposite-Spin Energy      =      -0.2160409304029683 [Eh]
	 Correlation Energy        =      -0.2845009708597054 [Eh]
	 Total Energy              =     -76.3439859089402546 [Eh]

	 ================> DF-SCS-MP2 Energies <==================
	-----------------------------------------------------------
	 SCS Same-Spin Scale       =       0.3333333333333333 [-]
	 SCS Opposite-Spin Scale   =       1.2000000000000000 [-]
	 SCS Same-Spin Energy      =      -0.0228200134855790 [Eh]
	 SCS Opposite-Spin Energy  =      -0.2592491164835620 [Eh]
	 SCS Correlation Energy    =      -0.2820691299691410 [Eh]
	 SCS Total Energy          =     -76.3415540680496889 [Eh]
	-----------------------------------------------------------

*** Psi4 exiting successfully. Buy a developer a beer!
