                               Psi4 1.8.2 release

  ==> Input File <==

--------------------------------------------------------------------------
MEMORY 60 GB

molecule dimer {
0 1
Gh(Li)     0.000000     0.000000     0.000000
Gh(O)      1.852804     0.610325     0.422366
Gh(H)      2.273260     1.457225     0.600686
Gh(H)      2.485926     0.051439    -0.025591
Gh(O)     -1.159180     1.378186     0.408450
Gh(H)     -1.049995     1.647269     1.320449
Gh(H)     -1.096509     2.226849    -0.094508
Gh(O)     -0.329423    -1.475069     1.145804
Gh(H)     -0.434844    -2.362818     0.770701
Gh(H)     -1.017858    -1.314900     1.802054
O          0.503397    -1.152424    -1.784085
H          0.322310    -0.760718    -2.631013
H          1.362436    -1.632825    -1.984484

units ang
no_reorient
no_com
symmetry c1
}

set {
basis        aug-cc-pVTZ
scf_type     df
}

energy("mp2")
--------------------------------------------------------------------------

    Molecular point group: c1

    Geometry (in Angstrom), charge = 0, multiplicity = 1:

       Center              X                  Y                   Z               Mass
    ------------   -----------------  -----------------  -----------------  -----------------
      Gh(LI)          0.000000000000     0.000000000000     0.000000000000     7.016003436600
      Gh(O)           1.852804000000     0.610325000000     0.422366000000    15.994914619570
      Gh(H)           2.273260000000     1.457225000000     0.600686000000     1.007825032230
      Gh(H)           2.485926000000     0.051439000000    -0.025591000000     1.007825032230
      Gh(O)          -1.159180000000     1.378186000000     0.408450000000    15.994914619570
      Gh(H)          -1.049995000000     1.647269000000     1.320449000000     1.007825032230
      Gh(H)          -1.096509000000     2.226849000000    -0.094508000000     1.007825032230
      Gh(O)          -0.329423000000    -1.475069000000     1.145804000000    15.994914619570
      Gh(H)          -0.434844000000    -2.362818000000     0.770701000000     1.007825032230
      Gh(H)          -1.017858000000    -1.314900000000     1.802054000000     1.007825032230
         O            0.503397000000    -1.152424000000    -1.784085000000    15.994914619570
         H            0.322310000000    -0.760718000000    -2.631013000000     1.007825032230
         H            1.362436000000    -1.632825000000    -1.984484000000     1.007825032230

  Charge       = 0
  Multiplicity = 1
  Basis Set: AUG-CC-PVTZ
    Blend: AUG-CC-PVTZ
  Basis Set: (AUG-CC-PVTZ AUX)
    Blend: AUG-CC-PVTZ-JKFIT + DEF2-UNIVERSAL-JKFIT

    Orbital Energies [Eh]
    ---------------------

    Doubly Occupied:

       1A    -20.572090     2A     -1.346730     3A     -0.699378
       4A     -0.588447     5A     -0.509942

  @DF-RHF Final Energy:   -76.05684806762532

   => Energetics <=

    Nuclear Repulsion Energy =              9.0204184424457701
    One-Electron Energy =                -122.7213563021118148
    Two-Electron Energy =                  37.6440897920407167
    Total Energy =                        -76.0568480676253245
 Dipole X            :        -10.3609948           10.7939682            0.4329735
 Dipole Y            :         21.8935877          -21.9452667           -0.0516789
 Dipole Z            :         35.0088767          -35.6934815           -0.6846048
 Magnitude           :                                                    0.8116776
  Basis Set: (AUG-CC-PVTZ AUX)
    Blend: AUG-CC-PVTZ-RI + DEF2-QZVPP-RI
	 Reference Energy          =     -76.0568480676253245 [Eh]
	 Singles Energy            =      -0.0000000000000000 [Eh]
	 Same-Spin Energy          =      -0.0688613808513257 [Eh]
	 Opposite-Spin Energy      =      -0.2172455447776248 [Eh]
	 Correlation Energy        =      -0.2861069256289505 [Eh]
	 Total Energy              =     -76.3429549932542812 [Eh]

	 ================> DF-SCS-MP2 Energies <==================
	-----------------------------------------------------------
	 SCS Same-Spin Scale       =       0.3333333333333333 [-]
	 SCS Opposite-Spin Scale   =       1.2000000000000000 [-]
	 SCS Same-Spin Energy      =      -0.0229537936171086 [Eh]
	 SCS Opposite-Spin Energy  =      -0.2606946537331498 [Eh]
	 SCS Correlation Energy    =      -0.2836484473502583 [Eh]
	 SCS Total Energy          =     -76.3404965149755839 [Eh]
	-----------------------------------------------------------

*** Psi4 exiting successfully. Buy a developer a beer!
