                               Psi4 1.8.2 release

  ==> Input File <==

--------------------------------------------------------------------------
MEMORY 60 GB

molecule dimer {
1 1
Li         0.000000     0.000000     0.000000
O          1.657941    -1.223362    -0.380746
H          1.563734    -2.109058    -0.739610
H          2.274856    -1.293852     0.367845
O         -0.318414     0.739503     1.570188
H         -0.230935     0.394084     2.496215
H         -1.144386     1.187689     1.648398
O          0.086934     1.338117    -1.502778
H          0.226770     0.880203    -2.354309
H          0.560941     2.175826    -1.600435
O         -0.994637    -1.379905    -1.081241
H         -1.093316    -1.138620    -1.989274
H         -0.474365    -2.168984    -1.125378

units ang
no_reorient
no_com
symmetry c1
}

set {
basis        aug-cc-pVTZ
scf_type     df
}

energy("mp2")
--------------------------------------------------------------------------

    Molecular point group: c1

    Geometry (in Angstrom), charge = 1, multiplicity = 1:

       Center              X                  Y                   Z               Mass
    ------------   -----------------  -----------------  -----------------  -----------------
         LI           0.000000000000     0.000000000000     0.000000000000     7.016003436600
         O            1.657941000000    -1.223362000000    -0.380746000000    15.994914619570
         H            1.563734000000    -2.109058000000    -0.739610000000     1.007825032230
         H            2.274856000000    -1.293852000000     0.367845000000     1.007825032230
         O           -0.318414000000     0.739503000000     1.570188000000    15.994914619570
         H           -0.230935000000     0.394084000000     2.496215000000     1.007825032230
         H           -1.144386000000     1.187689000000     1.648398000000     1.007825032230
         O            0.086934000000     1.338117000000    -1.502778000000    15.994914619570
         H            0.226770000000     0.880203000000    -2.354309000000     1.007825032230
         H            0.560941000000     2.175826000000    -1.600435000000     1.007825032230
         O           -0.994637000000    -1.379905000000    -1.081241000000    15.994914619570
         H           -1.093316000000    -1.138620000000    -1.989274000000     1.007825032230
         H           -0.474365000000    -2.168984000000    -1.125378000000     1.007825032230

  Charge       = 1
  Multiplicity = 1
  Basis Set: AUG-CC-PVTZ
    Blend: AUG-CC-PVTZ
  Basis Set: (AUG-CC-PVTZ AUX)
    Blend: AUG-CC-PVTZ-JKFIT + DEF2-UNIVERSAL-JKFIT

    Orbital Energies [Eh]
    ---------------------

    Doubly Occupied:

       1A    -20.761503     2A    -20.751634     3A    -20.746441
       4A    -20.744544     5A     -2.535761     6A     -1.552736
       7A     -1.549950     8A     -1.534675     9A     -1.525649
      10A     -0.916643    11A     -0.899736    12A     -0.897604
      13A     -0.884254    14A     -0.817089    15A     -0.791130
      16A     -0.781064    17A     -0.774066    18A     -0.715647
      19A     -0.710731    20A     -0.692480    21A     -0.688074

  @DF-RHF Final Energy:  -311.61616884850577

   => Energetics <=

    Nuclear Repulsion Energy =            164.3917539869473217
    One-Electron Energy =                -749.4730216114218138
    Two-Electron Energy =                 273.4650987759687837
    Total Energy =                       -311.6161688485057653
 Dipole X            :         -9.0837306            9.7092069            0.6254763
 Dipole Y            :         11.2104806          -11.8634890           -0.6530084
 Dipole Z            :         26.9100051          -27.3125216           -0.4025166
 Magnitude           :                                                    0.9897778
  Basis Set: (AUG-CC-PVTZ AUX)
    Blend: AUG-CC-PVTZ-RI + DEF2-QZVPP-RI
	 Reference Energy          =    -311.6161688485057653 [Eh]
	 Singles Energy            =      -0.0000000000000000 [Eh]
	 Same-Spin Energy          =      -0.2759696549207141 [Eh]
	 Opposite-Spin Energy      =      -0.8793160903064613 [Eh]
	 Correlation Energy        =      -1.1552857452271754 [Eh]
	 Total Energy              =    -312.7714545937329262 [Eh]

	 ================> DF-SCS-MP2 Energies <==================
	-----------------------------------------------------------
	 SCS Same-Spin Scale       =       0.3333333333333333 [-]
	 SCS Opposite-Spin Scale   =       1.2000000000000000 [-]
	 SCS Same-Spin Energy      =      -0.0919898849735714 [Eh]
	 SCS Opposite-Spin Energy  =      -1.0551793083677534 [Eh]
	 SCS Correlation Energy    =      -1.1471691933413248 [Eh]
	 SCS Total Energy          =    -312.7633380418470779 [Eh]
	-----------------------------------------------------------

*** Psi4 exiting successfully. Buy a developer a beer!
