                               Psi4 1.8.2 release

  ==> Input File <==

--------------------------------------------------------------------------
MEMORY 60 GB

molecule dimer {
1 1
Li         0.000000     0.000000     0.000000
Gh(O)      0.308611     1.799941     0.055027
Gh(H)      1.189178     2.084602    -0.029819
Gh(H)     -0.214343     2.315908    -0.579745
Gh(O)     -1.239702    -0.176525     1.570107
Gh(H)     -1.160882    -1.124504     1.682038
Gh(H)     -1.287511     0.291488     2.423735
Gh(O)     -1.080482    -0.705916    -1.358061
Gh(H)     -1.739894    -0.042264    -1.524104
Gh(H)     -1.505441    -1.545786    -1.482370
Gh(O)      1.386436    -1.321672    -0.001936
Gh(H)      1.809813    -1.499437     0.850115
Gh(H)      2.170025    -1.008615    -0.549659

units ang
no_reorient
no_com
symmetry c1
}

set {
basis        aug-cc-pVTZ
scf_type     df
}

energy("mp2")
--------------------------------------------------------------------------

    Molecular point group: c1

    Geometry (in Angstrom), charge = 1, multiplicity = 1:

       Center              X                  Y                   Z               Mass
    ------------   -----------------  -----------------  -----------------  -----------------
         LI           0.000000000000     0.000000000000     0.000000000000     7.016003436600
      Gh(O)           0.308611000000     1.799941000000     0.055027000000    15.994914619570
      Gh(H)           1.189178000000     2.084602000000    -0.029819000000     1.007825032230
      Gh(H)          -0.214343000000     2.315908000000    -0.579745000000     1.007825032230
      Gh(O)          -1.239702000000    -0.176525000000     1.570107000000    15.994914619570
      Gh(H)          -1.160882000000    -1.124504000000     1.682038000000     1.007825032230
      Gh(H)          -1.287511000000     0.291488000000     2.423735000000     1.007825032230
      Gh(O)          -1.080482000000    -0.705916000000    -1.358061000000    15.994914619570
      Gh(H)          -1.739894000000    -0.042264000000    -1.524104000000     1.007825032230
      Gh(H)          -1.505441000000    -1.545786000000    -1.482370000000     1.007825032230
      Gh(O)           1.386436000000    -1.321672000000    -0.001936000000    15.994914619570
      Gh(H)           1.809813000000    -1.499437000000     0.850115000000     1.007825032230
      Gh(H)           2.170025000000    -1.008615000000    -0.549659000000     1.007825032230

  Charge       = 1
  Multiplicity = 1
  Basis Set: AUG-CC-PVTZ
    Blend: AUG-CC-PVTZ
  Basis Set: (AUG-CC-PVTZ AUX)
    Blend: AUG-CC-PVTZ-JKFIT + DEF2-UNIVERSAL-JKFIT

    Orbital Energies [Eh]
    ---------------------

    Doubly Occupied:

       1A     -2.792352

  @DF-RHF Final Energy:    -7.23638493866483

   => Energetics <=

    Nuclear Repulsion Energy =              0.0000000000000000
    One-Electron Energy =                  -8.8880654354025115
    Two-Electron Energy =                   1.6516804967376795
    Total Energy =                         -7.2363849386648322
 Dipole X            :          0.0000009            0.0000000            0.0000009
 Dipole Y            :         -0.0000012            0.0000000           -0.0000012
 Dipole Z            :          0.0000044            0.0000000            0.0000044
 Magnitude           :                                                    0.0000046
  Basis Set: (AUG-CC-PVTZ AUX)
    Blend: AUG-CC-PVTZ-RI + DEF2-QZVPP-RI
	 Reference Energy          =      -7.2363849386648322 [Eh]
	 Singles Energy            =      -0.0000000000000000 [Eh]
	 Same-Spin Energy          =       0.0000000000000000 [Eh]
	 Opposite-Spin Energy      =      -0.0174773124514636 [Eh]
	 Correlation Energy        =      -0.0174773124514636 [Eh]
	 Total Energy              =      -7.2538622511162956 [Eh]

	 ================> DF-SCS-MP2 Energies <==================
	-----------------------------------------------------------
	 SCS Same-Spin Scale       =       0.3333333333333333 [-]
	 SCS Opposite-Spin Scale   =       1.2000000000000000 [-]
	 SCS Same-Spin Energy      =       0.0000000000000000 [Eh]
	 SCS Opposite-Spin Energy  =      -0.0209727749417563 [Eh]
	 SCS Correlation Energy    =      -0.0209727749417563 [Eh]
	 SCS Total Energy          =      -7.2573577136065888 [Eh]
	-----------------------------------------------------------

*** Psi4 exiting successfully. Buy a developer a beer!
