                               Psi4 1.8.2 release

  ==> Input File <==

--------------------------------------------------------------------------
MEMORY 60 GB

molecule dimer {
1 1
Li         0.000000     0.000000     0.000000
O          1.362177     0.494903    -1.256822
H          1.833323    -0.139138    -1.763691
H          2.031082     1.092765    -0.979248
O         -1.382938    -0.607154    -1.085086
H         -1.865008     0.071796    -1.477591
H         -1.178693    -1.330940    -1.688702
O          0.262721    -1.170129     1.291731
H          1.058433    -1.126622     1.806015
H          0.186388    -2.100896     1.196103
O         -0.396836     1.829554     0.256520
H         -0.272323     2.420521     0.947354
H         -0.490326     2.381443    -0.505406

units ang
no_reorient
no_com
symmetry c1
}

set {
basis        aug-cc-pVTZ
scf_type     df
}

energy("mp2")
--------------------------------------------------------------------------

    Molecular point group: c1

    Geometry (in Angstrom), charge = 1, multiplicity = 1:

       Center              X                  Y                   Z               Mass
    ------------   -----------------  -----------------  -----------------  -----------------
         LI           0.000000000000     0.000000000000     0.000000000000     7.016003436600
         O            1.362177000000     0.494903000000    -1.256822000000    15.994914619570
         H            1.833323000000    -0.139138000000    -1.763691000000     1.007825032230
         H            2.031082000000     1.092765000000    -0.979248000000     1.007825032230
         O           -1.382938000000    -0.607154000000    -1.085086000000    15.994914619570
         H           -1.865008000000     0.071796000000    -1.477591000000     1.007825032230
         H           -1.178693000000    -1.330940000000    -1.688702000000     1.007825032230
         O            0.262721000000    -1.170129000000     1.291731000000    15.994914619570
         H            1.058433000000    -1.126622000000     1.806015000000     1.007825032230
         H            0.186388000000    -2.100896000000     1.196103000000     1.007825032230
         O           -0.396836000000     1.829554000000     0.256520000000    15.994914619570
         H           -0.272323000000     2.420521000000     0.947354000000     1.007825032230
         H           -0.490326000000     2.381443000000    -0.505406000000     1.007825032230

  Charge       = 1
  Multiplicity = 1
  Basis Set: AUG-CC-PVTZ
    Blend: AUG-CC-PVTZ
  Basis Set: (AUG-CC-PVTZ AUX)
    Blend: AUG-CC-PVTZ-JKFIT + DEF2-UNIVERSAL-JKFIT

    Orbital Energies [Eh]
    ---------------------

    Doubly Occupied:

       1A    -20.752352     2A    -20.746774     3A    -20.741039
       4A    -20.736087     5A     -2.510484     6A     -1.559209
       7A     -1.556878     8A     -1.549659     9A     -1.538670
      10A     -0.926234    11A     -0.916102    12A     -0.910274
      13A     -0.905992    14A     -0.816190    15A     -0.809999
      16A     -0.786095    17A     -0.767100    18A     -0.717494
      19A     -0.701840    20A     -0.698581    21A     -0.692857

  @DF-RHF Final Energy:  -311.62576365818933

   => Energetics <=

    Nuclear Repulsion Energy =            170.7869435785447649
    One-Electron Energy =                -762.1455939014235810
    Two-Electron Energy =                 279.7328866646894880
    Total Energy =                       -311.6257636581893280
 Dipole X            :          0.9510221            0.1206930            1.0717151
 Dipole Y            :        -10.4781800           10.6700003            0.1918203
 Dipole Z            :         15.9622929          -16.6568435           -0.6945507
 Magnitude           :                                                    1.2914213
  Basis Set: (AUG-CC-PVTZ AUX)
    Blend: AUG-CC-PVTZ-RI + DEF2-QZVPP-RI
	 Reference Energy          =    -311.6257636581893280 [Eh]
	 Singles Energy            =      -0.0000000000000000 [Eh]
	 Same-Spin Energy          =      -0.2745899365776272 [Eh]
	 Opposite-Spin Energy      =      -0.8749216175893823 [Eh]
	 Correlation Energy        =      -1.1495115541670096 [Eh]
	 Total Energy              =    -312.7752752123563482 [Eh]

	 ================> DF-SCS-MP2 Energies <==================
	-----------------------------------------------------------
	 SCS Same-Spin Scale       =       0.3333333333333333 [-]
	 SCS Opposite-Spin Scale   =       1.2000000000000000 [-]
	 SCS Same-Spin Energy      =      -0.0915299788592091 [Eh]
	 SCS Opposite-Spin Energy  =      -1.0499059411072587 [Eh]
	 SCS Correlation Energy    =      -1.1414359199664676 [Eh]
	 SCS Total Energy          =    -312.7671995781557825 [Eh]
	-----------------------------------------------------------

*** Psi4 exiting successfully. Buy a developer a beer!
