                               Psi4 1.8.2 release

  ==> Input File <==

--------------------------------------------------------------------------
MEMORY 60 GB

molecule dimer {
0 1
Gh(Li)     0.000000     0.000000     0.000000
Gh(O)      1.296978    -1.022674    -0.940549
Gh(H)      2.066028    -0.402028    -0.993363
Gh(H)      1.641941    -1.811888    -0.528858
Gh(O)     -0.396746     1.474444    -1.474878
Gh(H)     -1.280057     1.910080    -1.499885
Gh(H)     -0.029846     1.581237    -2.348859
O         -1.483670    -0.955584    -0.302297
H         -2.040982    -0.609953    -1.043081
H         -1.234753    -1.872425    -0.358799
Gh(O)      0.250460     0.847898     1.880600
Gh(H)     -0.509855     0.604026     2.413481
Gh(H)      0.341405     1.822100     1.938332

units ang
no_reorient
no_com
symmetry c1
}

set {
basis        aug-cc-pVTZ
scf_type     df
}

energy("mp2")
--------------------------------------------------------------------------

    Molecular point group: c1

    Geometry (in Angstrom), charge = 0, multiplicity = 1:

       Center              X                  Y                   Z               Mass
    ------------   -----------------  -----------------  -----------------  -----------------
      Gh(LI)          0.000000000000     0.000000000000     0.000000000000     7.016003436600
      Gh(O)           1.296978000000    -1.022674000000    -0.940549000000    15.994914619570
      Gh(H)           2.066028000000    -0.402028000000    -0.993363000000     1.007825032230
      Gh(H)           1.641941000000    -1.811888000000    -0.528858000000     1.007825032230
      Gh(O)          -0.396746000000     1.474444000000    -1.474878000000    15.994914619570
      Gh(H)          -1.280057000000     1.910080000000    -1.499885000000     1.007825032230
      Gh(H)          -0.029846000000     1.581237000000    -2.348859000000     1.007825032230
         O           -1.483670000000    -0.955584000000    -0.302297000000    15.994914619570
         H           -2.040982000000    -0.609953000000    -1.043081000000     1.007825032230
         H           -1.234753000000    -1.872425000000    -0.358799000000     1.007825032230
      Gh(O)           0.250460000000     0.847898000000     1.880600000000    15.994914619570
      Gh(H)          -0.509855000000     0.604026000000     2.413481000000     1.007825032230
      Gh(H)           0.341405000000     1.822100000000     1.938332000000     1.007825032230

  Charge       = 0
  Multiplicity = 1
  Basis Set: AUG-CC-PVTZ
    Blend: AUG-CC-PVTZ
  Basis Set: (AUG-CC-PVTZ AUX)
    Blend: AUG-CC-PVTZ-JKFIT + DEF2-UNIVERSAL-JKFIT

    Orbital Energies [Eh]
    ---------------------

    Doubly Occupied:

       1A    -20.563598     2A     -1.339313     3A     -0.730612
       4A     -0.560169     5A     -0.505595

  @DF-RHF Final Energy:   -76.05604805912068

   => Energetics <=

    Nuclear Repulsion Energy =              9.0485350084187033
    One-Electron Energy =                -122.8105857445612230
    Two-Electron Energy =                  37.7060026770218428
    Total Energy =                        -76.0560480591206840
 Dipole X            :         28.4107349          -28.6200817           -0.2093468
 Dipole Y            :         18.7432139          -19.1373510           -0.3941371
 Dipole Z            :          6.6752681           -7.2192376           -0.5439695
 Magnitude           :                                                    0.7036142
  Basis Set: (AUG-CC-PVTZ AUX)
    Blend: AUG-CC-PVTZ-RI + DEF2-QZVPP-RI
	 Reference Energy          =     -76.0560480591206840 [Eh]
	 Singles Energy            =      -0.0000000000000000 [Eh]
	 Same-Spin Energy          =      -0.0686015419268460 [Eh]
	 Opposite-Spin Energy      =      -0.2163897778861114 [Eh]
	 Correlation Energy        =      -0.2849913198129574 [Eh]
	 Total Energy              =     -76.3410393789336439 [Eh]

	 ================> DF-SCS-MP2 Energies <==================
	-----------------------------------------------------------
	 SCS Same-Spin Scale       =       0.3333333333333333 [-]
	 SCS Opposite-Spin Scale   =       1.2000000000000000 [-]
	 SCS Same-Spin Energy      =      -0.0228671806422820 [Eh]
	 SCS Opposite-Spin Energy  =      -0.2596677334633337 [Eh]
	 SCS Correlation Energy    =      -0.2825349141056157 [Eh]
	 SCS Total Energy          =     -76.3385829732262948 [Eh]
	-----------------------------------------------------------

*** Psi4 exiting successfully. Buy a developer a beer!
