                               Psi4 1.8.2 release

  ==> Input File <==

--------------------------------------------------------------------------
MEMORY 60 GB

molecule dimer {
0 1
Gh(Li)     0.000000     0.000000     0.000000
O         -1.250276    -0.767961    -1.527750
H         -0.774486    -1.486835    -1.895383
H         -2.179176    -0.820415    -1.767325
Gh(O)     -1.166798    -0.535753     1.661617
Gh(H)     -0.741108    -0.764670     2.507558
Gh(H)     -1.879153    -1.203534     1.673004
Gh(O)      0.410563     1.717860     0.405025
Gh(H)      0.955455     1.673867     1.174611
Gh(H)      1.000185     2.068463    -0.282656
Gh(O)      1.643875    -1.072325    -0.704594
Gh(H)      1.714216    -1.974251    -0.225525
Gh(H)      2.114756    -1.224097    -1.564307

units ang
no_reorient
no_com
symmetry c1
}

set {
basis        aug-cc-pVTZ
scf_type     df
}

energy("mp2")
--------------------------------------------------------------------------

    Molecular point group: c1

    Geometry (in Angstrom), charge = 0, multiplicity = 1:

       Center              X                  Y                   Z               Mass
    ------------   -----------------  -----------------  -----------------  -----------------
      Gh(LI)          0.000000000000     0.000000000000     0.000000000000     7.016003436600
         O           -1.250276000000    -0.767961000000    -1.527750000000    15.994914619570
         H           -0.774486000000    -1.486835000000    -1.895383000000     1.007825032230
         H           -2.179176000000    -0.820415000000    -1.767325000000     1.007825032230
      Gh(O)          -1.166798000000    -0.535753000000     1.661617000000    15.994914619570
      Gh(H)          -0.741108000000    -0.764670000000     2.507558000000     1.007825032230
      Gh(H)          -1.879153000000    -1.203534000000     1.673004000000     1.007825032230
      Gh(O)           0.410563000000     1.717860000000     0.405025000000    15.994914619570
      Gh(H)           0.955455000000     1.673867000000     1.174611000000     1.007825032230
      Gh(H)           1.000185000000     2.068463000000    -0.282656000000     1.007825032230
      Gh(O)           1.643875000000    -1.072325000000    -0.704594000000    15.994914619570
      Gh(H)           1.714216000000    -1.974251000000    -0.225525000000     1.007825032230
      Gh(H)           2.114756000000    -1.224097000000    -1.564307000000     1.007825032230

  Charge       = 0
  Multiplicity = 1
  Basis Set: AUG-CC-PVTZ
    Blend: AUG-CC-PVTZ
  Basis Set: (AUG-CC-PVTZ AUX)
    Blend: AUG-CC-PVTZ-JKFIT + DEF2-UNIVERSAL-JKFIT

    Orbital Energies [Eh]
    ---------------------

    Doubly Occupied:

       1A    -20.562764     2A     -1.353637     3A     -0.733802
       4A     -0.574615     5A     -0.509233

  @DF-RHF Final Energy:   -76.06036909849382

   => Energetics <=

    Nuclear Repulsion Energy =              9.2628471931758476
    One-Electron Energy =                -123.1783273107427590
    Two-Electron Energy =                  37.8551110190730924
    Total Energy =                        -76.0603690984938225
 Dipole X            :         24.1773371          -24.4830460           -0.3057090
 Dipole Y            :         15.4431114          -15.9699583           -0.5268469
 Dipole Z            :         29.6038316          -30.0177477           -0.4139161
 Magnitude           :                                                    0.7364456
  Basis Set: (AUG-CC-PVTZ AUX)
    Blend: AUG-CC-PVTZ-RI + DEF2-QZVPP-RI
	 Reference Energy          =     -76.0603690984938225 [Eh]
	 Singles Energy            =      -0.0000000000000000 [Eh]
	 Same-Spin Energy          =      -0.0682018219773658 [Eh]
	 Opposite-Spin Energy      =      -0.2151880323680066 [Eh]
	 Correlation Energy        =      -0.2833898543453724 [Eh]
	 Total Energy              =     -76.3437589528391953 [Eh]

	 ================> DF-SCS-MP2 Energies <==================
	-----------------------------------------------------------
	 SCS Same-Spin Scale       =       0.3333333333333333 [-]
	 SCS Opposite-Spin Scale   =       1.2000000000000000 [-]
	 SCS Same-Spin Energy      =      -0.0227339406591219 [Eh]
	 SCS Opposite-Spin Energy  =      -0.2582256388416079 [Eh]
	 SCS Correlation Energy    =      -0.2809595795007299 [Eh]
	 SCS Total Energy          =     -76.3413286779945537 [Eh]
	-----------------------------------------------------------

*** Psi4 exiting successfully. Buy a developer a beer!
