                               Psi4 1.8.2 release

  ==> Input File <==

--------------------------------------------------------------------------
MEMORY 60 GB

molecule dimer {
1 1
Li         0.000000     0.000000     0.000000
O         -0.815512    -1.973069     0.213618
H         -1.442123    -2.343453     0.881888
H         -0.002592    -2.481571     0.216923
O          1.699625     0.035978    -1.109364
H          2.234679    -0.288064    -0.379152
H          2.152471     0.871850    -1.472594
O          0.954529     0.704439     1.627529
H          0.792200     1.656184     1.570414
H          0.354105     0.450627     2.342875
O         -1.562320     1.135689    -0.344199
H         -1.999637     1.483420     0.437688
H         -1.205724     1.935640    -0.797850

units ang
no_reorient
no_com
symmetry c1
}

set {
basis        aug-cc-pVTZ
scf_type     df
}

energy("mp2")
--------------------------------------------------------------------------

    Molecular point group: c1

    Geometry (in Angstrom), charge = 1, multiplicity = 1:

       Center              X                  Y                   Z               Mass
    ------------   -----------------  -----------------  -----------------  -----------------
         LI           0.000000000000     0.000000000000     0.000000000000     7.016003436600
         O           -0.815512000000    -1.973069000000     0.213618000000    15.994914619570
         H           -1.442123000000    -2.343453000000     0.881888000000     1.007825032230
         H           -0.002592000000    -2.481571000000     0.216923000000     1.007825032230
         O            1.699625000000     0.035978000000    -1.109364000000    15.994914619570
         H            2.234679000000    -0.288064000000    -0.379152000000     1.007825032230
         H            2.152471000000     0.871850000000    -1.472594000000     1.007825032230
         O            0.954529000000     0.704439000000     1.627529000000    15.994914619570
         H            0.792200000000     1.656184000000     1.570414000000     1.007825032230
         H            0.354105000000     0.450627000000     2.342875000000     1.007825032230
         O           -1.562320000000     1.135689000000    -0.344199000000    15.994914619570
         H           -1.999637000000     1.483420000000     0.437688000000     1.007825032230
         H           -1.205724000000     1.935640000000    -0.797850000000     1.007825032230

  Charge       = 1
  Multiplicity = 1
  Basis Set: AUG-CC-PVTZ
    Blend: AUG-CC-PVTZ
  Basis Set: (AUG-CC-PVTZ AUX)
    Blend: AUG-CC-PVTZ-JKFIT + DEF2-UNIVERSAL-JKFIT

    Orbital Energies [Eh]
    ---------------------

    Doubly Occupied:

       1A    -20.771635     2A    -20.763997     3A    -20.751133
       4A    -20.742792     5A     -2.559646     6A     -1.558411
       7A     -1.545153     8A     -1.522417     9A     -1.520058
      10A     -0.910140    11A     -0.904271    12A     -0.895262
      13A     -0.889464    14A     -0.803590    15A     -0.792584
      16A     -0.767679    17A     -0.757078    18A     -0.734573
      19A     -0.707823    20A     -0.694863    21A     -0.688160

  @DF-RHF Final Energy:  -311.60627461217172

   => Energetics <=

    Nuclear Repulsion Energy =            159.0187229163378504
    One-Electron Energy =                -738.6885366141614213
    Two-Electron Energy =                 268.0635390856518256
    Total Energy =                       -311.6062746121717169
 Dipole X            :         -5.6168614            5.8467276            0.2298662
 Dipole Y            :          0.0472893            0.9617364            1.0090257
 Dipole Z            :         -9.7267691           11.1510169            1.4242477
 Magnitude           :                                                    1.7605263
  Basis Set: (AUG-CC-PVTZ AUX)
    Blend: AUG-CC-PVTZ-RI + DEF2-QZVPP-RI
	 Reference Energy          =    -311.6062746121717169 [Eh]
	 Singles Energy            =      -0.0000000000000000 [Eh]
	 Same-Spin Energy          =      -0.2765787866408943 [Eh]
	 Opposite-Spin Energy      =      -0.8817539460248272 [Eh]
	 Correlation Energy        =      -1.1583327326657216 [Eh]
	 Total Energy              =    -312.7646073448374295 [Eh]

	 ================> DF-SCS-MP2 Energies <==================
	-----------------------------------------------------------
	 SCS Same-Spin Scale       =       0.3333333333333333 [-]
	 SCS Opposite-Spin Scale   =       1.2000000000000000 [-]
	 SCS Same-Spin Energy      =      -0.0921929288802981 [Eh]
	 SCS Opposite-Spin Energy  =      -1.0581047352297925 [Eh]
	 SCS Correlation Energy    =      -1.1502976641100906 [Eh]
	 SCS Total Energy          =    -312.7565722762818154 [Eh]
	-----------------------------------------------------------

*** Psi4 exiting successfully. Buy a developer a beer!
