                               Psi4 1.8.2 release

  ==> Input File <==

--------------------------------------------------------------------------
MEMORY 60 GB

molecule dimer {
1 1
Li         0.000000     0.000000     0.000000
O          1.624676     0.930347    -0.687789
H          1.665506     1.787976    -0.163954
H          2.371292     0.410789    -0.401384
O          1.173391    -1.680161    -0.212338
H          2.036435    -1.610877    -0.690179
H          0.993748    -2.598798    -0.378489
O         -1.459926     0.080801    -0.837685
H         -1.519684     0.169931    -1.784495
H         -2.009970    -0.641099    -0.565310
O         -0.236587    -0.097317     1.963066
H          0.470180    -0.606954     2.365849
H         -0.104803     0.790192     2.342656

units ang
no_reorient
no_com
symmetry c1
}

set {
basis        aug-cc-pVTZ
scf_type     df
}

energy("mp2")
--------------------------------------------------------------------------

    Molecular point group: c1

    Geometry (in Angstrom), charge = 1, multiplicity = 1:

       Center              X                  Y                   Z               Mass
    ------------   -----------------  -----------------  -----------------  -----------------
         LI           0.000000000000     0.000000000000     0.000000000000     7.016003436600
         O            1.624676000000     0.930347000000    -0.687789000000    15.994914619570
         H            1.665506000000     1.787976000000    -0.163954000000     1.007825032230
         H            2.371292000000     0.410789000000    -0.401384000000     1.007825032230
         O            1.173391000000    -1.680161000000    -0.212338000000    15.994914619570
         H            2.036435000000    -1.610877000000    -0.690179000000     1.007825032230
         H            0.993748000000    -2.598798000000    -0.378489000000     1.007825032230
         O           -1.459926000000     0.080801000000    -0.837685000000    15.994914619570
         H           -1.519684000000     0.169931000000    -1.784495000000     1.007825032230
         H           -2.009970000000    -0.641099000000    -0.565310000000     1.007825032230
         O           -0.236587000000    -0.097317000000     1.963066000000    15.994914619570
         H            0.470180000000    -0.606954000000     2.365849000000     1.007825032230
         H           -0.104803000000     0.790192000000     2.342656000000     1.007825032230

  Charge       = 1
  Multiplicity = 1
  Basis Set: AUG-CC-PVTZ
    Blend: AUG-CC-PVTZ
  Basis Set: (AUG-CC-PVTZ AUX)
    Blend: AUG-CC-PVTZ-JKFIT + DEF2-UNIVERSAL-JKFIT

    Orbital Energies [Eh]
    ---------------------

    Doubly Occupied:

       1A    -20.757670     2A    -20.757381     3A    -20.752992
       4A    -20.751506     5A     -2.530462     6A     -1.555689
       7A     -1.546292     8A     -1.537050     9A     -1.533464
      10A     -0.926319    11A     -0.913851    12A     -0.893402
      13A     -0.877217    14A     -0.806573    15A     -0.802135
      16A     -0.781743    17A     -0.774467    18A     -0.720585
      19A     -0.711165    20A     -0.702996    21A     -0.696084

  @DF-RHF Final Energy:  -311.60992832517275

   => Energetics <=

    Nuclear Repulsion Energy =            166.6888824534733544
    One-Electron Energy =                -753.9395335961297633
    Two-Electron Energy =                 275.6407228174836064
    Total Energy =                       -311.6099283251727456
 Dipole X            :        -22.8432564           24.0281247            1.1848683
 Dipole Y            :         15.2705854          -15.9294086           -0.6588232
 Dipole Z            :         -4.6157482            4.7748201            0.1590720
 Magnitude           :                                                    1.3650146
  Basis Set: (AUG-CC-PVTZ AUX)
    Blend: AUG-CC-PVTZ-RI + DEF2-QZVPP-RI
	 Reference Energy          =    -311.6099283251727456 [Eh]
	 Singles Energy            =      -0.0000000000000000 [Eh]
	 Same-Spin Energy          =      -0.2765611421022072 [Eh]
	 Opposite-Spin Energy      =      -0.8807889459868552 [Eh]
	 Correlation Energy        =      -1.1573500880890624 [Eh]
	 Total Energy              =    -312.7672784132618062 [Eh]

	 ================> DF-SCS-MP2 Energies <==================
	-----------------------------------------------------------
	 SCS Same-Spin Scale       =       0.3333333333333333 [-]
	 SCS Opposite-Spin Scale   =       1.2000000000000000 [-]
	 SCS Same-Spin Energy      =      -0.0921870473674024 [Eh]
	 SCS Opposite-Spin Energy  =      -1.0569467351842261 [Eh]
	 SCS Correlation Energy    =      -1.1491337825516286 [Eh]
	 SCS Total Energy          =    -312.7590621077243895 [Eh]
	-----------------------------------------------------------

*** Psi4 exiting successfully. Buy a developer a beer!
