                               Psi4 1.8.2 release

  ==> Input File <==

--------------------------------------------------------------------------
MEMORY 60 GB

molecule dimer {
0 1
Gh(Li)     0.000000     0.000000     0.000000
Gh(O)      1.698581     0.435696     0.558593
Gh(H)      2.237527    -0.300337     0.974783
Gh(H)      2.088861     0.477432    -0.359968
Gh(O)     -0.602134     1.603987    -1.055512
Gh(H)     -0.019972     1.873754    -1.758661
Gh(H)     -1.470926     1.622158    -1.464541
O          0.090460    -1.221032    -1.273457
H          0.943707    -1.644678    -1.158743
H         -0.580198    -1.847887    -1.056551
Gh(O)     -1.504258    -0.347888     1.383059
Gh(H)     -1.261637    -0.488613     2.322452
Gh(H)     -1.997552    -1.132669     1.067802

units ang
no_reorient
no_com
symmetry c1
}

set {
basis        aug-cc-pVTZ
scf_type     df
}

energy("mp2")
--------------------------------------------------------------------------

    Molecular point group: c1

    Geometry (in Angstrom), charge = 0, multiplicity = 1:

       Center              X                  Y                   Z               Mass
    ------------   -----------------  -----------------  -----------------  -----------------
      Gh(LI)          0.000000000000     0.000000000000     0.000000000000     7.016003436600
      Gh(O)           1.698581000000     0.435696000000     0.558593000000    15.994914619570
      Gh(H)           2.237527000000    -0.300337000000     0.974783000000     1.007825032230
      Gh(H)           2.088861000000     0.477432000000    -0.359968000000     1.007825032230
      Gh(O)          -0.602134000000     1.603987000000    -1.055512000000    15.994914619570
      Gh(H)          -0.019972000000     1.873754000000    -1.758661000000     1.007825032230
      Gh(H)          -1.470926000000     1.622158000000    -1.464541000000     1.007825032230
         O            0.090460000000    -1.221032000000    -1.273457000000    15.994914619570
         H            0.943707000000    -1.644678000000    -1.158743000000     1.007825032230
         H           -0.580198000000    -1.847887000000    -1.056551000000     1.007825032230
      Gh(O)          -1.504258000000    -0.347888000000     1.383059000000    15.994914619570
      Gh(H)          -1.261637000000    -0.488613000000     2.322452000000     1.007825032230
      Gh(H)          -1.997552000000    -1.132669000000     1.067802000000     1.007825032230

  Charge       = 0
  Multiplicity = 1
  Basis Set: AUG-CC-PVTZ
    Blend: AUG-CC-PVTZ
  Basis Set: (AUG-CC-PVTZ AUX)
    Blend: AUG-CC-PVTZ-JKFIT + DEF2-UNIVERSAL-JKFIT

    Orbital Energies [Eh]
    ---------------------

    Doubly Occupied:

       1A    -20.564289     2A     -1.353973     3A     -0.727920
       4A     -0.578834     5A     -0.509761

  @DF-RHF Final Energy:   -76.06085848459641

   => Energetics <=

    Nuclear Repulsion Energy =              9.2434679174975560
    One-Electron Energy =                -123.1390955401772658
    Two-Electron Energy =                  37.8347691380833027
    Total Energy =                        -76.0608584845964089
 Dipole X            :         -1.9337775            2.0544895            0.1207119
 Dipole Y            :         24.3498943          -25.0593199           -0.7094256
 Dipole Z            :         23.6618633          -23.4381786            0.2236847
 Magnitude           :                                                    0.7535853
  Basis Set: (AUG-CC-PVTZ AUX)
    Blend: AUG-CC-PVTZ-RI + DEF2-QZVPP-RI
	 Reference Energy          =     -76.0608584845964089 [Eh]
	 Singles Energy            =      -0.0000000000000000 [Eh]
	 Same-Spin Energy          =      -0.0682948487931170 [Eh]
	 Opposite-Spin Energy      =      -0.2156723174691393 [Eh]
	 Correlation Energy        =      -0.2839671662622563 [Eh]
	 Total Energy              =     -76.3448256508586667 [Eh]

	 ================> DF-SCS-MP2 Energies <==================
	-----------------------------------------------------------
	 SCS Same-Spin Scale       =       0.3333333333333333 [-]
	 SCS Opposite-Spin Scale   =       1.2000000000000000 [-]
	 SCS Same-Spin Energy      =      -0.0227649495977057 [Eh]
	 SCS Opposite-Spin Energy  =      -0.2588067809629672 [Eh]
	 SCS Correlation Energy    =      -0.2815717305606729 [Eh]
	 SCS Total Energy          =     -76.3424302151570799 [Eh]
	-----------------------------------------------------------

*** Psi4 exiting successfully. Buy a developer a beer!
