                               Psi4 1.8.2 release

  ==> Input File <==

--------------------------------------------------------------------------
MEMORY 60 GB

molecule dimer {
0 1
Gh(Na)     0.000000     0.000000     0.000000
Gh(O)     -1.116986    -1.262600     1.452823
Gh(H)     -1.933314    -0.949816     1.831289
Gh(H)     -1.388892    -2.089831     1.067611
O         -2.064765    -0.369848    -1.354204
H         -2.208321     0.074992    -2.228213
H         -2.865148    -0.793867    -1.087041
Gh(O)     -0.752363     1.854057     1.354572
Gh(H)     -1.096528     1.642435     2.231559
Gh(H)     -1.447594     2.380144     0.877744
Gh(O)      2.350808     0.315241     0.892599
Gh(H)      3.010726     0.173134     0.141394
Gh(H)      2.495966     1.172138     1.167830
Gh(O)      1.084462     1.438589    -1.573635
Gh(H)      1.544269     0.800080    -2.144693
Gh(H)      1.595583     2.266747    -1.520243

units ang
no_reorient
no_com
symmetry c1
}

set {
basis        aug-cc-pVTZ
scf_type     df
}

energy("mp2")
--------------------------------------------------------------------------

    Molecular point group: c1

    Geometry (in Angstrom), charge = 0, multiplicity = 1:

       Center              X                  Y                   Z               Mass
    ------------   -----------------  -----------------  -----------------  -----------------
      Gh(NA)          0.000000000000     0.000000000000     0.000000000000    22.989769282000
      Gh(O)          -1.116986000000    -1.262600000000     1.452823000000    15.994914619570
      Gh(H)          -1.933314000000    -0.949816000000     1.831289000000     1.007825032230
      Gh(H)          -1.388892000000    -2.089831000000     1.067611000000     1.007825032230
         O           -2.064765000000    -0.369848000000    -1.354204000000    15.994914619570
         H           -2.208321000000     0.074992000000    -2.228213000000     1.007825032230
         H           -2.865148000000    -0.793867000000    -1.087041000000     1.007825032230
      Gh(O)          -0.752363000000     1.854057000000     1.354572000000    15.994914619570
      Gh(H)          -1.096528000000     1.642435000000     2.231559000000     1.007825032230
      Gh(H)          -1.447594000000     2.380144000000     0.877744000000     1.007825032230
      Gh(O)           2.350808000000     0.315241000000     0.892599000000    15.994914619570
      Gh(H)           3.010726000000     0.173134000000     0.141394000000     1.007825032230
      Gh(H)           2.495966000000     1.172138000000     1.167830000000     1.007825032230
      Gh(O)           1.084462000000     1.438589000000    -1.573635000000    15.994914619570
      Gh(H)           1.544269000000     0.800080000000    -2.144693000000     1.007825032230
      Gh(H)           1.595583000000     2.266747000000    -1.520243000000     1.007825032230

  Charge       = 0
  Multiplicity = 1
  Basis Set: AUG-CC-PVTZ
    Blend: AUG-CC-PVTZ
  Basis Set: (AUG-CC-PVTZ AUX)
    Blend: AUG-CC-PVTZ-JKFIT + DEF2-UNIVERSAL-JKFIT

    Orbital Energies [Eh]
    ---------------------

    Doubly Occupied:

       1A    -20.566614     2A     -1.345439     3A     -0.720731
       4A     -0.573711     5A     -0.508059

  @DF-RHF Final Energy:   -76.05843664599783

   => Energetics <=

    Nuclear Repulsion Energy =              9.0895847206972569
    One-Electron Energy =                -122.8669312162150646
    Two-Electron Energy =                  37.7189098495199744
    Total Energy =                        -76.0584366459978298
 Dipole X            :         40.1666386          -40.8021898           -0.6355513
 Dipole Y            :          6.9598066           -6.9497683            0.0100383
 Dipole Z            :         26.3357586          -26.7375195           -0.4017609
 Magnitude           :                                                    0.7519561
  Basis Set: (AUG-CC-PVTZ AUX)
    Blend: AUG-CC-PVTZ-RI + DEF2-QZVPP-RI
	 Reference Energy          =     -76.0584366459978298 [Eh]
	 Singles Energy            =      -0.0000000000000000 [Eh]
	 Same-Spin Energy          =      -0.0685034716205186 [Eh]
	 Opposite-Spin Energy      =      -0.2160304568942986 [Eh]
	 Correlation Energy        =      -0.2845339285148172 [Eh]
	 Total Energy              =     -76.3429705745126483 [Eh]

	 ================> DF-SCS-MP2 Energies <==================
	-----------------------------------------------------------
	 SCS Same-Spin Scale       =       0.3333333333333333 [-]
	 SCS Opposite-Spin Scale   =       1.2000000000000000 [-]
	 SCS Same-Spin Energy      =      -0.0228344905401729 [Eh]
	 SCS Opposite-Spin Energy  =      -0.2592365482731583 [Eh]
	 SCS Correlation Energy    =      -0.2820710388133311 [Eh]
	 SCS Total Energy          =     -76.3405076848111577 [Eh]
	-----------------------------------------------------------

*** Psi4 exiting successfully. Buy a developer a beer!
