                               Psi4 1.8.2 release

  ==> Input File <==

--------------------------------------------------------------------------
MEMORY 60 GB

molecule dimer {
1 1
Na         0.000000     0.000000     0.000000
O         -1.519224     0.743307    -1.517371
H         -2.170232     1.445420    -1.313542
H         -1.928734     0.240608    -2.180940
O          0.880839    -0.923193    -1.792672
H          0.384739    -1.662288    -2.202197
H          0.908594    -0.270491    -2.520157
O         -0.829751    -2.398045     0.046518
H         -0.436846    -2.980410     0.712108
H         -1.756796    -2.284077     0.333535
O          1.813124    -0.230890     1.363483
H          2.118748    -1.000546     0.923160
H          2.605605     0.291871     1.236262
O          0.328695     2.432253     0.024011
H          1.248695     2.702953    -0.044667
H         -0.191218     2.949578    -0.590188

units ang
no_reorient
no_com
symmetry c1
}

set {
basis        aug-cc-pVTZ
scf_type     df
}

energy("mp2")
--------------------------------------------------------------------------

    Molecular point group: c1

    Geometry (in Angstrom), charge = 1, multiplicity = 1:

       Center              X                  Y                   Z               Mass
    ------------   -----------------  -----------------  -----------------  -----------------
         NA           0.000000000000     0.000000000000     0.000000000000    22.989769282000
         O           -1.519224000000     0.743307000000    -1.517371000000    15.994914619570
         H           -2.170232000000     1.445420000000    -1.313542000000     1.007825032230
         H           -1.928734000000     0.240608000000    -2.180940000000     1.007825032230
         O            0.880839000000    -0.923193000000    -1.792672000000    15.994914619570
         H            0.384739000000    -1.662288000000    -2.202197000000     1.007825032230
         H            0.908594000000    -0.270491000000    -2.520157000000     1.007825032230
         O           -0.829751000000    -2.398045000000     0.046518000000    15.994914619570
         H           -0.436846000000    -2.980410000000     0.712108000000     1.007825032230
         H           -1.756796000000    -2.284077000000     0.333535000000     1.007825032230
         O            1.813124000000    -0.230890000000     1.363483000000    15.994914619570
         H            2.118748000000    -1.000546000000     0.923160000000     1.007825032230
         H            2.605605000000     0.291871000000     1.236262000000     1.007825032230
         O            0.328695000000     2.432253000000     0.024011000000    15.994914619570
         H            1.248695000000     2.702953000000    -0.044667000000     1.007825032230
         H           -0.191218000000     2.949578000000    -0.590188000000     1.007825032230

  Charge       = 1
  Multiplicity = 1
  Basis Set: AUG-CC-PVTZ
    Blend: AUG-CC-PVTZ
  Basis Set: (AUG-CC-PVTZ AUX)
    Blend: AUG-CC-PVTZ-JKFIT + DEF2-UNIVERSAL-JKFIT

    Orbital Energies [Eh]
    ---------------------

    Doubly Occupied:

       1A    -40.546019     2A    -20.735514     3A    -20.725717
       4A    -20.723052     5A    -20.721147     6A    -20.716106
       7A     -2.871308     8A     -1.598378     9A     -1.597636
      10A     -1.595205    11A     -1.530117    12A     -1.520561
      13A     -1.505567    14A     -1.502806    15A     -1.500665
      16A     -0.895624    17A     -0.875510    18A     -0.868046
      19A     -0.862154    20A     -0.858754    21A     -0.776911
      22A     -0.765454    23A     -0.757865    24A     -0.742479
      25A     -0.736580    26A     -0.688925    27A     -0.675774
      28A     -0.672686    29A     -0.668530    30A     -0.662960

  @DF-RHF Final Energy:  -542.08657001309155

   => Energetics <=

    Nuclear Repulsion Energy =            311.5103330926559693
    One-Electron Energy =               -1365.3977000869008407
    Two-Electron Energy =                 511.8007969811533826
    Total Energy =                       -542.0865700130916593
 Dipole X            :        -12.0329233           11.6634256           -0.3694977
 Dipole Y            :          6.8384521           -6.7650797            0.0733724
 Dipole Z            :         37.5934135          -39.0320550           -1.4386415
 Magnitude           :                                                    1.4871454
  Basis Set: (AUG-CC-PVTZ AUX)
    Blend: AUG-CC-PVTZ-RI + DEF2-QZVPP-RI
	 Reference Energy          =    -542.0865700130915457 [Eh]
	 Singles Energy            =      -0.0000000000000000 [Eh]
	 Same-Spin Energy          =      -0.3517908349364019 [Eh]
	 Opposite-Spin Energy      =      -1.0994294036776500 [Eh]
	 Correlation Energy        =      -1.4512202386140518 [Eh]
	 Total Energy              =    -543.5377902517055873 [Eh]

	 ================> DF-SCS-MP2 Energies <==================
	-----------------------------------------------------------
	 SCS Same-Spin Scale       =       0.3333333333333333 [-]
	 SCS Opposite-Spin Scale   =       1.2000000000000000 [-]
	 SCS Same-Spin Energy      =      -0.1172636116454673 [Eh]
	 SCS Opposite-Spin Energy  =      -1.3193152844131799 [Eh]
	 SCS Correlation Energy    =      -1.4365788960586472 [Eh]
	 SCS Total Energy          =    -543.5231489091502226 [Eh]
	-----------------------------------------------------------

*** Psi4 exiting successfully. Buy a developer a beer!
