                               Psi4 1.8.2 release

  ==> Input File <==

--------------------------------------------------------------------------
MEMORY 60 GB

molecule dimer {
0 1
Gh(Na)     0.000000     0.000000     0.000000
Gh(O)      0.327213    -1.859611     1.348713
Gh(H)      0.542964    -2.554233     0.688897
Gh(H)     -0.548316    -2.057300     1.663678
Gh(O)      1.960777     1.106108    -0.764745
Gh(H)      1.831324     2.060066    -0.784795
Gh(H)      2.497879     1.060595    -1.621372
Gh(O)     -0.358398    -1.218556    -1.863096
Gh(H)      0.174529    -1.439270    -2.616413
Gh(H)     -0.633326    -2.005493    -1.343861
O         -1.731597     1.753884    -0.356645
H         -1.112098     2.484718    -0.459952
H         -1.915209     1.784048     0.600745
Gh(O)      0.225207     1.568908     1.853126
Gh(H)      0.455797     0.843306     2.428642
Gh(H)      0.938072     2.204615     1.866753

units ang
no_reorient
no_com
symmetry c1
}

set {
basis        aug-cc-pVTZ
scf_type     df
}

energy("mp2")
--------------------------------------------------------------------------

    Molecular point group: c1

    Geometry (in Angstrom), charge = 0, multiplicity = 1:

       Center              X                  Y                   Z               Mass
    ------------   -----------------  -----------------  -----------------  -----------------
      Gh(NA)          0.000000000000     0.000000000000     0.000000000000    22.989769282000
      Gh(O)           0.327213000000    -1.859611000000     1.348713000000    15.994914619570
      Gh(H)           0.542964000000    -2.554233000000     0.688897000000     1.007825032230
      Gh(H)          -0.548316000000    -2.057300000000     1.663678000000     1.007825032230
      Gh(O)           1.960777000000     1.106108000000    -0.764745000000    15.994914619570
      Gh(H)           1.831324000000     2.060066000000    -0.784795000000     1.007825032230
      Gh(H)           2.497879000000     1.060595000000    -1.621372000000     1.007825032230
      Gh(O)          -0.358398000000    -1.218556000000    -1.863096000000    15.994914619570
      Gh(H)           0.174529000000    -1.439270000000    -2.616413000000     1.007825032230
      Gh(H)          -0.633326000000    -2.005493000000    -1.343861000000     1.007825032230
         O           -1.731597000000     1.753884000000    -0.356645000000    15.994914619570
         H           -1.112098000000     2.484718000000    -0.459952000000     1.007825032230
         H           -1.915209000000     1.784048000000     0.600745000000     1.007825032230
      Gh(O)           0.225207000000     1.568908000000     1.853126000000    15.994914619570
      Gh(H)           0.455797000000     0.843306000000     2.428642000000     1.007825032230
      Gh(H)           0.938072000000     2.204615000000     1.866753000000     1.007825032230

  Charge       = 0
  Multiplicity = 1
  Basis Set: AUG-CC-PVTZ
    Blend: AUG-CC-PVTZ
  Basis Set: (AUG-CC-PVTZ AUX)
    Blend: AUG-CC-PVTZ-JKFIT + DEF2-UNIVERSAL-JKFIT

    Orbital Energies [Eh]
    ---------------------

    Doubly Occupied:

       1A    -20.570339     2A     -1.349266     3A     -0.705628
       4A     -0.587958     5A     -0.510173

  @DF-RHF Final Energy:   -76.05927214771087

   => Energetics <=

    Nuclear Repulsion Energy =              9.0857658774002630
    One-Electron Energy =                -122.8433433637879375
    Two-Electron Energy =                  37.6983053386767892
    Total Energy =                        -76.0592721477108853
 Dipole X            :         32.1851324          -31.8987338            0.2863986
 Dipole Y            :        -34.0824143           34.5816820            0.4992677
 Dipole Z            :          5.6831724           -5.1256308            0.5575416
 Magnitude           :                                                    0.8013395
  Basis Set: (AUG-CC-PVTZ AUX)
    Blend: AUG-CC-PVTZ-RI + DEF2-QZVPP-RI
	 Reference Energy          =     -76.0592721477108711 [Eh]
	 Singles Energy            =      -0.0000000000000000 [Eh]
	 Same-Spin Energy          =      -0.0686973615999096 [Eh]
	 Opposite-Spin Energy      =      -0.2167336917636615 [Eh]
	 Correlation Energy        =      -0.2854310533635711 [Eh]
	 Total Energy              =     -76.3447032010744380 [Eh]

	 ================> DF-SCS-MP2 Energies <==================
	-----------------------------------------------------------
	 SCS Same-Spin Scale       =       0.3333333333333333 [-]
	 SCS Opposite-Spin Scale   =       1.2000000000000000 [-]
	 SCS Same-Spin Energy      =      -0.0228991205333032 [Eh]
	 SCS Opposite-Spin Energy  =      -0.2600804301163938 [Eh]
	 SCS Correlation Energy    =      -0.2829795506496970 [Eh]
	 SCS Total Energy          =     -76.3422516983605703 [Eh]
	-----------------------------------------------------------

*** Psi4 exiting successfully. Buy a developer a beer!
