                               Psi4 1.8.2 release

  ==> Input File <==

--------------------------------------------------------------------------
MEMORY 60 GB

molecule dimer {
1 1
Na         0.000000     0.000000     0.000000
O         -1.136205     2.109216     0.011475
H         -1.817514     2.445570     0.580069
H         -0.451115     2.773422    -0.131302
O          1.252024    -2.158597    -0.042907
H          1.513019    -2.709178     0.698471
H          1.692694    -2.571460    -0.772312
O          2.180151     1.061963    -0.494664
H          2.109145     1.159492    -1.466466
H          2.569159     1.827540    -0.098947
O         -0.175210     0.603986    -2.316960
H         -0.687306    -0.098022    -2.722072
H         -0.718872     1.408419    -2.299209
O         -0.000383    -0.188447     2.289591
H          0.693352    -0.570890     2.866500
H         -0.819570    -0.668426     2.496017

units ang
no_reorient
no_com
symmetry c1
}

set {
basis        aug-cc-pVTZ
scf_type     df
}

energy("mp2")
--------------------------------------------------------------------------

    Molecular point group: c1

    Geometry (in Angstrom), charge = 1, multiplicity = 1:

       Center              X                  Y                   Z               Mass
    ------------   -----------------  -----------------  -----------------  -----------------
         NA           0.000000000000     0.000000000000     0.000000000000    22.989769282000
         O           -1.136205000000     2.109216000000     0.011475000000    15.994914619570
         H           -1.817514000000     2.445570000000     0.580069000000     1.007825032230
         H           -0.451115000000     2.773422000000    -0.131302000000     1.007825032230
         O            1.252024000000    -2.158597000000    -0.042907000000    15.994914619570
         H            1.513019000000    -2.709178000000     0.698471000000     1.007825032230
         H            1.692694000000    -2.571460000000    -0.772312000000     1.007825032230
         O            2.180151000000     1.061963000000    -0.494664000000    15.994914619570
         H            2.109145000000     1.159492000000    -1.466466000000     1.007825032230
         H            2.569159000000     1.827540000000    -0.098947000000     1.007825032230
         O           -0.175210000000     0.603986000000    -2.316960000000    15.994914619570
         H           -0.687306000000    -0.098022000000    -2.722072000000     1.007825032230
         H           -0.718872000000     1.408419000000    -2.299209000000     1.007825032230
         O           -0.000383000000    -0.188447000000     2.289591000000    15.994914619570
         H            0.693352000000    -0.570890000000     2.866500000000     1.007825032230
         H           -0.819570000000    -0.668426000000     2.496017000000     1.007825032230

  Charge       = 1
  Multiplicity = 1
  Basis Set: AUG-CC-PVTZ
    Blend: AUG-CC-PVTZ
  Basis Set: (AUG-CC-PVTZ AUX)
    Blend: AUG-CC-PVTZ-JKFIT + DEF2-UNIVERSAL-JKFIT

    Orbital Energies [Eh]
    ---------------------

    Doubly Occupied:

       1A    -40.556231     2A    -20.726178     3A    -20.724733
       4A    -20.720451     5A    -20.711761     6A    -20.701457
       7A     -2.878254     8A     -1.603630     9A     -1.602855
      10A     -1.602190    11A     -1.514313    12A     -1.505228
      13A     -1.503879    14A     -1.502674    15A     -1.485887
      16A     -0.895452    17A     -0.876504    18A     -0.870781
      19A     -0.866621    20A     -0.862114    21A     -0.754682
      22A     -0.748257    23A     -0.745580    24A     -0.740291
      25A     -0.716743    26A     -0.678115    27A     -0.671835
      28A     -0.668675    29A     -0.659196    30A     -0.648803

  @DF-RHF Final Energy:  -542.09656276568683

   => Energetics <=

    Nuclear Repulsion Energy =            304.4538085347426204
    One-Electron Energy =               -1351.6139902726504260
    Two-Electron Energy =                 505.0636189722210361
    Total Energy =                       -542.0965627656867127
 Dipole X            :        -39.7433170           39.7711912            0.0278742
 Dipole Y            :        -27.0144423           27.2525625            0.2381202
 Dipole Z            :         10.1722431           -9.9720300            0.2002131
 Magnitude           :                                                    0.3123516
  Basis Set: (AUG-CC-PVTZ AUX)
    Blend: AUG-CC-PVTZ-RI + DEF2-QZVPP-RI
	 Reference Energy          =    -542.0965627656868264 [Eh]
	 Singles Energy            =      -0.0000000000000000 [Eh]
	 Same-Spin Energy          =      -0.3508192686167118 [Eh]
	 Opposite-Spin Energy      =      -1.0973397771110713 [Eh]
	 Correlation Energy        =      -1.4481590457277831 [Eh]
	 Total Energy              =    -543.5447218114146608 [Eh]

	 ================> DF-SCS-MP2 Energies <==================
	-----------------------------------------------------------
	 SCS Same-Spin Scale       =       0.3333333333333333 [-]
	 SCS Opposite-Spin Scale   =       1.2000000000000000 [-]
	 SCS Same-Spin Energy      =      -0.1169397562055706 [Eh]
	 SCS Opposite-Spin Energy  =      -1.3168077325332856 [Eh]
	 SCS Correlation Energy    =      -1.4337474887388562 [Eh]
	 SCS Total Energy          =    -543.5303102544256717 [Eh]
	-----------------------------------------------------------

*** Psi4 exiting successfully. Buy a developer a beer!
