                               Psi4 1.9 release

  ==> Input File <==

--------------------------------------------------------------------------
MEMORY 60 GB

molecule dimer {
1 1
Na     0.000000     0.000000     0.000000
--
0 1
O     -1.270892     0.775336    -1.734881
H     -2.041556     0.267356    -1.809439
H     -1.389474     1.715105    -2.154391
O     -1.538328     1.148730     1.663206
H     -2.479361     0.999225     1.788695
H     -1.153620     0.858041     2.489959
O      1.119723    -1.679292    -1.361821
H      1.074447    -1.430682    -2.285905
H      1.954304    -2.132372    -1.289916
O      1.802531    -0.151360     1.513496
H      1.956804    -0.794728     2.265743
H      2.401941    -0.491777     0.846105
O     -1.831106    -1.657480    -0.070603
H     -2.766494    -1.428010    -0.112170
H     -1.501432    -2.003291    -0.932357

units ang
no_reorient
no_com
symmetry c1
}

set {
basis        aug-cc-pVTZ
scf_type     df
}

energy("mp2", bsse_type="cp")
--------------------------------------------------------------------------

                               Psi4 1.9 release
    Molecular point group: c1
  Charge       = 0
  Multiplicity = 1
  Basis Set: AUG-CC-PVTZ
    Blend: AUG-CC-PVTZ
  Basis Set: (AUG-CC-PVTZ AUX)
    Blend: AUG-CC-PVTZ-JKFIT + DEF2-UNIVERSAL-JKFIT
  @DF-RHF Final Energy:  -380.27066537788528
    Total Energy =                       -380.2706653778852797
 Dipole X            :         33.1898945          -33.4273976           -0.2375030
 Dipole Y            :         31.2168846          -32.0377761           -0.8208915
 Dipole Z            :          1.3101514           -2.1136587           -0.8035073
 Magnitude           :                                                    1.1729853
  Basis Set: (AUG-CC-PVTZ AUX)
    Blend: AUG-CC-PVTZ-RI + DEF2-QZVPP-RI
	 Reference Energy          =    -380.2706653778852797 [Eh]
	 Singles Energy            =      -0.0000000000000000 [Eh]
	 Same-Spin Energy          =      -0.3463993026360475 [Eh]
	 Opposite-Spin Energy      =      -1.0866626737862528 [Eh]
	 Correlation Energy        =      -1.4330619764223003 [Eh]
	 Total Energy              =    -381.7037273543076026 [Eh]
	 SCS Total Energy          =    -381.6901270206407730 [Eh]
                               Psi4 1.9 release
    Molecular point group: c1
  Multiplicity = 1
  Basis Set: AUG-CC-PVTZ
    Blend: AUG-CC-PVTZ
  Basis Set: (AUG-CC-PVTZ AUX)
    Blend: AUG-CC-PVTZ-JKFIT + DEF2-UNIVERSAL-JKFIT
  @DF-RHF Final Energy:  -161.67608976068141
    Total Energy =                       -161.6760897606814069
  Basis Set: (AUG-CC-PVTZ AUX)
	 Singles Energy            =      -0.0000000000000000 [Eh]
	 Same-Spin Energy          =      -0.0060433866579225 [Eh]
	 Opposite-Spin Energy      =      -0.0187131271857525 [Eh]
	 Correlation Energy        =      -0.0247565138436750 [Eh]
	 Total Energy              =    -161.7008462745250768 [Eh]
	 SCS Total Energy          =    -161.7005599755236176 [Eh]
                               Psi4 1.9 release
    Molecular point group: c1

    Geometry (in Bohr), charge = 1, multiplicity = 1:

       Center              X                  Y                   Z               Mass
    ------------   -----------------  -----------------  -----------------  -----------------
         NA           0.000000000000     0.000000000000     0.000000000000    22.989769282000
         O           -2.401637815035     1.465172695208    -3.278449950260    15.994914619570
         H           -3.857981709785     0.505229617998    -3.419344150722     1.007825032230
         H           -2.625725318444     3.241078726403    -4.071208957151     1.007825032230
         O           -2.907018611123     2.170785092097     3.143003830218    15.994914619570
         H           -4.685313256141     1.888261587711     3.380143671976     1.007825032230
         H           -2.180025852851     1.621462494414     4.705340573619     1.007825032230
         O            2.115969806376    -3.173401964672    -2.573468721897    15.994914619570
         H            2.030410566320    -2.703597152622    -4.319734398815     1.007825032230
         H            3.693099325887    -4.029599077595    -2.437587964846     1.007825032230
         O            3.406289922648    -0.286028946349     2.860092931976    15.994914619570
         H            3.697823641200    -1.501818264233     4.281633740673     1.007825032230
         H            4.539010659508    -0.929323844799     1.598906723380     1.007825032230
         O           -3.460288846683    -3.132183258424    -0.133420333636    15.994914619570
         H           -5.227915987722    -2.698547804415    -0.211970579493     1.007825032230
         H           -2.837295275998    -3.785671339595    -1.761899381153     1.007825032230

  Charge       = 1
  Multiplicity = 1
  Basis Set: AUG-CC-PVTZ
    Blend: AUG-CC-PVTZ
  Basis Set: (AUG-CC-PVTZ AUX)
    Blend: AUG-CC-PVTZ-JKFIT + DEF2-UNIVERSAL-JKFIT

    Orbital Energies [Eh]
    ---------------------

    Doubly Occupied:

       1A    -40.561550     2A    -20.738119     3A    -20.730442
       4A    -20.728955     5A    -20.719494     6A    -20.706415
       7A     -2.883554     8A     -1.609106     9A     -1.608046
      10A     -1.607586    11A     -1.528963    12A     -1.507536
      13A     -1.505485    14A     -1.495939    15A     -1.493760
      16A     -0.891289    17A     -0.884509    18A     -0.876577
      19A     -0.860980    20A     -0.854689    21A     -0.771532
      22A     -0.755424    23A     -0.746629    24A     -0.733494
      25A     -0.728069    26A     -0.689195    27A     -0.677544
      28A     -0.673446    29A     -0.664672    30A     -0.651452

  @DF-RHF Final Energy:  -542.08001194526321

   => Energetics <=

    Nuclear Repulsion Energy =            303.4805994323876348
    One-Electron Energy =               -1349.3523059232597916
    Two-Electron Energy =                 503.7916945456089479
    Total Energy =                       -542.0800119452632089
 Dipole X            :         33.0006264          -33.4273976           -0.4267712
 Dipole Y            :         31.0424736          -32.0377761           -0.9953025
 Dipole Z            :          1.2689468           -2.1136587           -0.8447118
 Magnitude           :                                                    1.3734259
  Basis Set: (AUG-CC-PVTZ AUX)
    Blend: AUG-CC-PVTZ-RI + DEF2-QZVPP-RI
	 Reference Energy          =    -542.0800119452632089 [Eh]
	 Singles Energy            =      -0.0000000000000000 [Eh]
	 Same-Spin Energy          =      -0.3513681852395668 [Eh]
	 Opposite-Spin Energy      =      -1.0994655906901514 [Eh]
	 Correlation Energy        =      -1.4508337759297181 [Eh]
	 Total Energy              =    -543.5308457211929181 [Eh]

	 ================> DF-SCS-MP2 Energies <==================
	-----------------------------------------------------------
	 SCS Same-Spin Scale       =       0.3333333333333333 [-]
	 SCS Opposite-Spin Scale   =       1.2000000000000000 [-]
	 SCS Same-Spin Energy      =      -0.1171227284131889 [Eh]
	 SCS Opposite-Spin Energy  =      -1.3193587088281815 [Eh]
	 SCS Correlation Energy    =      -1.4364814372413703 [Eh]
	 SCS Total Energy          =    -543.5164933825045637 [Eh]
	-----------------------------------------------------------

*** Psi4 exiting successfully. Buy a developer a beer!
