                               Psi4 1.8.2 release

  ==> Input File <==

--------------------------------------------------------------------------
MEMORY 60 GB

molecule dimer {
1 1
Na         0.000000     0.000000     0.000000
O         -0.846206     1.202595     1.854346
H         -1.394373     1.995479     2.024959
H         -0.648149     0.790331     2.691139
O         -1.309742     1.323778    -1.628410
H         -1.163522     2.267977    -1.422263
H         -1.147540     1.263131    -2.577035
O          1.237480    -1.823391     0.446021
H          0.963790    -2.734554     0.597322
H          2.174011    -1.658736     0.605497
O         -1.574568    -1.883367    -0.384367
H         -1.498784    -2.289933    -1.277612
H         -2.507560    -1.716692    -0.387422

units ang
no_reorient
no_com
symmetry c1
}

set {
basis        aug-cc-pVTZ
scf_type     df
}

energy("mp2")
--------------------------------------------------------------------------

    Molecular point group: c1

    Geometry (in Angstrom), charge = 1, multiplicity = 1:

       Center              X                  Y                   Z               Mass
    ------------   -----------------  -----------------  -----------------  -----------------
         NA           0.000000000000     0.000000000000     0.000000000000    22.989769282000
         O           -0.846206000000     1.202595000000     1.854346000000    15.994914619570
         H           -1.394373000000     1.995479000000     2.024959000000     1.007825032230
         H           -0.648149000000     0.790331000000     2.691139000000     1.007825032230
         O           -1.309742000000     1.323778000000    -1.628410000000    15.994914619570
         H           -1.163522000000     2.267977000000    -1.422263000000     1.007825032230
         H           -1.147540000000     1.263131000000    -2.577035000000     1.007825032230
         O            1.237480000000    -1.823391000000     0.446021000000    15.994914619570
         H            0.963790000000    -2.734554000000     0.597322000000     1.007825032230
         H            2.174011000000    -1.658736000000     0.605497000000     1.007825032230
         O           -1.574568000000    -1.883367000000    -0.384367000000    15.994914619570
         H           -1.498784000000    -2.289933000000    -1.277612000000     1.007825032230
         H           -2.507560000000    -1.716692000000    -0.387422000000     1.007825032230

  Charge       = 1
  Multiplicity = 1
  Basis Set: AUG-CC-PVTZ
    Blend: AUG-CC-PVTZ
  Basis Set: (AUG-CC-PVTZ AUX)
    Blend: AUG-CC-PVTZ-JKFIT + DEF2-UNIVERSAL-JKFIT

    Orbital Energies [Eh]
    ---------------------

    Doubly Occupied:

       1A    -40.578769     2A    -20.730843     3A    -20.729047
       4A    -20.726741     5A    -20.718863     6A     -2.900245
       7A     -1.624874     8A     -1.624656     9A     -1.624301
      10A     -1.511904    11A     -1.510554    12A     -1.509785
      13A     -1.503820    14A     -0.897591    15A     -0.883959
      16A     -0.871474    17A     -0.850275    18A     -0.763728
      19A     -0.756341    20A     -0.751076    21A     -0.739489
      22A     -0.676675    23A     -0.676331    24A     -0.675177
      25A     -0.665128

  @DF-RHF Final Energy:  -466.02288547143712

   => Energetics <=

    Nuclear Repulsion Energy =            213.3366192911525161
    One-Electron Energy =               -1065.7157063270597064
    Two-Electron Energy =                 386.3562015644700978
    Total Energy =                       -466.0228854714371209
 Dipole X            :         47.1693688          -47.5576319           -0.3882631
 Dipole Y            :         21.8470920          -21.7811288            0.0659631
 Dipole Z            :         -4.9541549            4.8288266           -0.1253283
 Magnitude           :                                                    0.4132875
  Basis Set: (AUG-CC-PVTZ AUX)
    Blend: AUG-CC-PVTZ-RI + DEF2-QZVPP-RI
	 Reference Energy          =    -466.0228854714371209 [Eh]
	 Singles Energy            =      -0.0000000000000000 [Eh]
	 Same-Spin Energy          =      -0.2799045989314443 [Eh]
	 Opposite-Spin Energy      =      -0.8778290870570911 [Eh]
	 Correlation Energy        =      -1.1577336859885352 [Eh]
	 Total Energy              =    -467.1806191574256673 [Eh]

	 ================> DF-SCS-MP2 Energies <==================
	-----------------------------------------------------------
	 SCS Same-Spin Scale       =       0.3333333333333333 [-]
	 SCS Opposite-Spin Scale   =       1.2000000000000000 [-]
	 SCS Same-Spin Energy      =      -0.0933015329771481 [Eh]
	 SCS Opposite-Spin Energy  =      -1.0533949044685091 [Eh]
	 SCS Correlation Energy    =      -1.1466964374456572 [Eh]
	 SCS Total Energy          =    -467.1695819088827761 [Eh]
	-----------------------------------------------------------

*** Psi4 exiting successfully. Buy a developer a beer!
