                               Psi4 1.8.2 release

  ==> Input File <==

--------------------------------------------------------------------------
MEMORY 60 GB

molecule dimer {
0 1
Gh(Na)     0.000000     0.000000     0.000000
Gh(O)      1.661844     0.842701    -1.497041
Gh(H)      2.528080     0.377121    -1.307093
Gh(H)      1.848781     1.779490    -1.584275
O         -0.087779     2.077226     1.056665
H          0.723586     2.252445     1.568366
H         -0.229253     2.684807     0.350873
Gh(O)     -0.986073    -2.138878    -0.877046
Gh(H)     -0.792585    -1.599887    -1.687093
Gh(H)     -0.537496    -2.949143    -1.090109
Gh(O)     -1.993529     0.705204    -1.045757
Gh(H)     -2.712929     0.142744    -1.464515
Gh(H)     -2.466013     1.376847    -0.624703
Gh(O)      2.026165    -1.165386     0.465272
Gh(H)      2.085392    -1.934949     1.021382
Gh(H)      2.008320    -1.517727    -0.446427

units ang
no_reorient
no_com
symmetry c1
}

set {
basis        aug-cc-pVTZ
scf_type     df
}

energy("mp2")
--------------------------------------------------------------------------

    Molecular point group: c1

    Geometry (in Angstrom), charge = 0, multiplicity = 1:

       Center              X                  Y                   Z               Mass
    ------------   -----------------  -----------------  -----------------  -----------------
      Gh(NA)          0.000000000000     0.000000000000     0.000000000000    22.989769282000
      Gh(O)           1.661844000000     0.842701000000    -1.497041000000    15.994914619570
      Gh(H)           2.528080000000     0.377121000000    -1.307093000000     1.007825032230
      Gh(H)           1.848781000000     1.779490000000    -1.584275000000     1.007825032230
         O           -0.087779000000     2.077226000000     1.056665000000    15.994914619570
         H            0.723586000000     2.252445000000     1.568366000000     1.007825032230
         H           -0.229253000000     2.684807000000     0.350873000000     1.007825032230
      Gh(O)          -0.986073000000    -2.138878000000    -0.877046000000    15.994914619570
      Gh(H)          -0.792585000000    -1.599887000000    -1.687093000000     1.007825032230
      Gh(H)          -0.537496000000    -2.949143000000    -1.090109000000     1.007825032230
      Gh(O)          -1.993529000000     0.705204000000    -1.045757000000    15.994914619570
      Gh(H)          -2.712929000000     0.142744000000    -1.464515000000     1.007825032230
      Gh(H)          -2.466013000000     1.376847000000    -0.624703000000     1.007825032230
      Gh(O)           2.026165000000    -1.165386000000     0.465272000000    15.994914619570
      Gh(H)           2.085392000000    -1.934949000000     1.021382000000     1.007825032230
      Gh(H)           2.008320000000    -1.517727000000    -0.446427000000     1.007825032230

  Charge       = 0
  Multiplicity = 1
  Basis Set: AUG-CC-PVTZ
    Blend: AUG-CC-PVTZ
  Basis Set: (AUG-CC-PVTZ AUX)
    Blend: AUG-CC-PVTZ-JKFIT + DEF2-UNIVERSAL-JKFIT

    Orbital Energies [Eh]
    ---------------------

    Doubly Occupied:

       1A    -20.562842     2A     -1.346722     3A     -0.733768
       4A     -0.566767     5A     -0.507431

  @DF-RHF Final Energy:   -76.05852309539605

   => Energetics <=

    Nuclear Repulsion Energy =              9.1652875014968416
    One-Electron Energy =                -123.0125585136872814
    Two-Electron Energy =                  37.7887479167943923
    Total Energy =                        -76.0585230953960547
 Dipole X            :          0.8487175           -0.3928722            0.4558454
 Dipole Y            :        -40.1962396           40.7331600            0.5369205
 Dipole Z            :        -19.7370223           19.6012957           -0.1357266
 Magnitude           :                                                    0.7172868
  Basis Set: (AUG-CC-PVTZ AUX)
    Blend: AUG-CC-PVTZ-RI + DEF2-QZVPP-RI
	 Reference Energy          =     -76.0585230953960547 [Eh]
	 Singles Energy            =      -0.0000000000000000 [Eh]
	 Same-Spin Energy          =      -0.0683639884246239 [Eh]
	 Opposite-Spin Energy      =      -0.2156232463775500 [Eh]
	 Correlation Energy        =      -0.2839872348021739 [Eh]
	 Total Energy              =     -76.3425103301982233 [Eh]

	 ================> DF-SCS-MP2 Energies <==================
	-----------------------------------------------------------
	 SCS Same-Spin Scale       =       0.3333333333333333 [-]
	 SCS Opposite-Spin Scale   =       1.2000000000000000 [-]
	 SCS Same-Spin Energy      =      -0.0227879961415413 [Eh]
	 SCS Opposite-Spin Energy  =      -0.2587478956530600 [Eh]
	 SCS Correlation Energy    =      -0.2815358917946013 [Eh]
	 SCS Total Energy          =     -76.3400589871906590 [Eh]
	-----------------------------------------------------------

*** Psi4 exiting successfully. Buy a developer a beer!
