                               Psi4 1.8.2 release

  ==> Input File <==

--------------------------------------------------------------------------
MEMORY 60 GB

molecule dimer {
1 1
Na         0.000000     0.000000     0.000000
O         -0.782764     1.574336     1.489851
H         -0.365882     2.444567     1.403941
H         -1.011175     1.409415     2.372406
O         -0.098756     1.868143    -1.484671
H          0.699059     2.415994    -1.669660
H         -0.606397     1.831447    -2.328393
O          1.230954    -0.321593     2.079717
H          1.596389    -1.191434     1.961752
H          2.015878     0.284373     2.134339
O         -1.145709    -1.300220    -1.924777
H         -1.877147    -0.797909    -2.151236
H         -1.485771    -2.184237    -1.927249
O          1.838755    -0.607862    -1.272790
H          1.384497    -0.352534    -2.065372
H          2.683776    -0.133099    -1.228283

units ang
no_reorient
no_com
symmetry c1
}

set {
basis        aug-cc-pVTZ
scf_type     df
}

energy("mp2")
--------------------------------------------------------------------------

    Molecular point group: c1

    Geometry (in Angstrom), charge = 1, multiplicity = 1:

       Center              X                  Y                   Z               Mass
    ------------   -----------------  -----------------  -----------------  -----------------
         NA           0.000000000000     0.000000000000     0.000000000000    22.989769282000
         O           -0.782764000000     1.574336000000     1.489851000000    15.994914619570
         H           -0.365882000000     2.444567000000     1.403941000000     1.007825032230
         H           -1.011175000000     1.409415000000     2.372406000000     1.007825032230
         O           -0.098756000000     1.868143000000    -1.484671000000    15.994914619570
         H            0.699059000000     2.415994000000    -1.669660000000     1.007825032230
         H           -0.606397000000     1.831447000000    -2.328393000000     1.007825032230
         O            1.230954000000    -0.321593000000     2.079717000000    15.994914619570
         H            1.596389000000    -1.191434000000     1.961752000000     1.007825032230
         H            2.015878000000     0.284373000000     2.134339000000     1.007825032230
         O           -1.145709000000    -1.300220000000    -1.924777000000    15.994914619570
         H           -1.877147000000    -0.797909000000    -2.151236000000     1.007825032230
         H           -1.485771000000    -2.184237000000    -1.927249000000     1.007825032230
         O            1.838755000000    -0.607862000000    -1.272790000000    15.994914619570
         H            1.384497000000    -0.352534000000    -2.065372000000     1.007825032230
         H            2.683776000000    -0.133099000000    -1.228283000000     1.007825032230

  Charge       = 1
  Multiplicity = 1
  Basis Set: AUG-CC-PVTZ
    Blend: AUG-CC-PVTZ
  Basis Set: (AUG-CC-PVTZ AUX)
    Blend: AUG-CC-PVTZ-JKFIT + DEF2-UNIVERSAL-JKFIT

    Orbital Energies [Eh]
    ---------------------

    Doubly Occupied:

       1A    -40.557770     2A    -20.737111     3A    -20.721058
       4A    -20.718920     5A    -20.716988     6A    -20.703926
       7A     -2.880398     8A     -1.605818     9A     -1.605143
      10A     -1.604631    11A     -1.528254    12A     -1.509953
      13A     -1.505985    14A     -1.501369    15A     -1.496100
      16A     -0.888336    17A     -0.882265    18A     -0.880203
      19A     -0.873532    20A     -0.861465    21A     -0.763310
      22A     -0.757426    23A     -0.742864    24A     -0.740119
      25A     -0.727825    26A     -0.688381    27A     -0.675880
      28A     -0.667730    29A     -0.661904    30A     -0.652376

  @DF-RHF Final Energy:  -542.08688083263451

   => Energetics <=

    Nuclear Repulsion Energy =            305.6930914331917393
    One-Electron Energy =               -1353.8458540326269031
    Two-Electron Energy =                 506.0658817668006009
    Total Energy =                       -542.0868808326345061
 Dipole X            :        -20.8337460           21.4919818            0.6582358
 Dipole Y            :        -24.4121059           25.3771605            0.9650546
 Dipole Z            :         22.4867027          -23.4309315           -0.9442289
 Magnitude           :                                                    1.5020562
  Basis Set: (AUG-CC-PVTZ AUX)
    Blend: AUG-CC-PVTZ-RI + DEF2-QZVPP-RI
	 Reference Energy          =    -542.0868808326345061 [Eh]
	 Singles Energy            =      -0.0000000000000000 [Eh]
	 Same-Spin Energy          =      -0.3504340271609578 [Eh]
	 Opposite-Spin Energy      =      -1.0962729490028138 [Eh]
	 Correlation Energy        =      -1.4467069761637716 [Eh]
	 Total Energy              =    -543.5335878087983019 [Eh]

	 ================> DF-SCS-MP2 Energies <==================
	-----------------------------------------------------------
	 SCS Same-Spin Scale       =       0.3333333333333333 [-]
	 SCS Opposite-Spin Scale   =       1.2000000000000000 [-]
	 SCS Same-Spin Energy      =      -0.1168113423869859 [Eh]
	 SCS Opposite-Spin Energy  =      -1.3155275388033765 [Eh]
	 SCS Correlation Energy    =      -1.4323388811903623 [Eh]
	 SCS Total Energy          =    -543.5192197138248957 [Eh]
	-----------------------------------------------------------

*** Psi4 exiting successfully. Buy a developer a beer!
