                               Psi4 1.8.2 release

  ==> Input File <==

--------------------------------------------------------------------------
MEMORY 60 GB

molecule dimer {
1 1
Na         0.000000     0.000000     0.000000
O         -1.550334     1.816641    -0.647719
H         -1.763595     2.148064    -1.549173
H         -2.345886     1.993166    -0.095342
O          1.776229    -0.620344    -1.543284
H          1.957125    -1.432281    -2.104550
H          2.456253     0.027568    -1.657251
O         -0.110460    -0.599504     2.332443
H         -0.274930    -0.167045     3.165026
H         -0.837619    -1.226720     2.297426
O         -1.487710    -1.471897    -1.190235
H         -2.323235    -1.734375    -0.749536
H         -1.811237    -1.091178    -2.013706

units ang
no_reorient
no_com
symmetry c1
}

set {
basis        aug-cc-pVTZ
scf_type     df
}

energy("mp2")
--------------------------------------------------------------------------

    Molecular point group: c1

    Geometry (in Angstrom), charge = 1, multiplicity = 1:

       Center              X                  Y                   Z               Mass
    ------------   -----------------  -----------------  -----------------  -----------------
         NA           0.000000000000     0.000000000000     0.000000000000    22.989769282000
         O           -1.550334000000     1.816641000000    -0.647719000000    15.994914619570
         H           -1.763595000000     2.148064000000    -1.549173000000     1.007825032230
         H           -2.345886000000     1.993166000000    -0.095342000000     1.007825032230
         O            1.776229000000    -0.620344000000    -1.543284000000    15.994914619570
         H            1.957125000000    -1.432281000000    -2.104550000000     1.007825032230
         H            2.456253000000     0.027568000000    -1.657251000000     1.007825032230
         O           -0.110460000000    -0.599504000000     2.332443000000    15.994914619570
         H           -0.274930000000    -0.167045000000     3.165026000000     1.007825032230
         H           -0.837619000000    -1.226720000000     2.297426000000     1.007825032230
         O           -1.487710000000    -1.471897000000    -1.190235000000    15.994914619570
         H           -2.323235000000    -1.734375000000    -0.749536000000     1.007825032230
         H           -1.811237000000    -1.091178000000    -2.013706000000     1.007825032230

  Charge       = 1
  Multiplicity = 1
  Basis Set: AUG-CC-PVTZ
    Blend: AUG-CC-PVTZ
  Basis Set: (AUG-CC-PVTZ AUX)
    Blend: AUG-CC-PVTZ-JKFIT + DEF2-UNIVERSAL-JKFIT

    Orbital Energies [Eh]
    ---------------------

    Doubly Occupied:

       1A    -40.586597     2A    -20.734854     3A    -20.732835
       4A    -20.732298     5A    -20.721100     6A     -2.906332
       7A     -1.631237     8A     -1.630131     9A     -1.629882
      10A     -1.522725    11A     -1.512760    12A     -1.505425
      13A     -1.497630    14A     -0.878224    15A     -0.875179
      16A     -0.872032    17A     -0.867600    18A     -0.767629
      19A     -0.761726    20A     -0.754574    21A     -0.737730
      22A     -0.686798    23A     -0.680918    24A     -0.668356
      25A     -0.665317

  @DF-RHF Final Energy:  -466.01975983807341

   => Energetics <=

    Nuclear Repulsion Energy =            207.9878203145937619
    One-Electron Energy =               -1054.8953745326195985
    Two-Electron Energy =                 380.8877943799523678
    Total Energy =                       -466.0197598380734121
 Dipole X            :         28.5204906          -30.0869419           -1.5664513
 Dipole Y            :         16.1376188          -16.0317429            0.1058759
 Dipole Z            :         20.4571359          -20.9711714           -0.5140355
 Magnitude           :                                                    1.6520327
  Basis Set: (AUG-CC-PVTZ AUX)
    Blend: AUG-CC-PVTZ-RI + DEF2-QZVPP-RI
	 Reference Energy          =    -466.0197598380734121 [Eh]
	 Singles Energy            =      -0.0000000000000000 [Eh]
	 Same-Spin Energy          =      -0.2792513838112664 [Eh]
	 Opposite-Spin Energy      =      -0.8770442387539888 [Eh]
	 Correlation Energy        =      -1.1562956225652552 [Eh]
	 Total Energy              =    -467.1760554606386791 [Eh]

	 ================> DF-SCS-MP2 Energies <==================
	-----------------------------------------------------------
	 SCS Same-Spin Scale       =       0.3333333333333333 [-]
	 SCS Opposite-Spin Scale   =       1.2000000000000000 [-]
	 SCS Same-Spin Energy      =      -0.0930837946037554 [Eh]
	 SCS Opposite-Spin Energy  =      -1.0524530865047865 [Eh]
	 SCS Correlation Energy    =      -1.1455368811085420 [Eh]
	 SCS Total Energy          =    -467.1652967191819812 [Eh]
	-----------------------------------------------------------

*** Psi4 exiting successfully. Buy a developer a beer!
