                               Psi4 1.8.2 release

  ==> Input File <==

--------------------------------------------------------------------------
MEMORY 60 GB

molecule dimer {
0 1
Gh(Na)     0.000000     0.000000     0.000000
Gh(O)      0.985243     1.361756    -1.542488
Gh(H)      1.874246     1.350733    -1.934909
Gh(H)      0.414988     1.260066    -2.324670
Gh(O)      0.823978     0.878247     2.115655
Gh(H)      1.298081     1.751934     2.375790
Gh(H)      0.257828     0.586640     2.820213
O         -0.226418    -1.408438    -1.797917
H         -0.917865    -2.089083    -1.585986
H          0.448556    -1.874981    -2.327105
Gh(O)     -1.974562     0.901395    -0.277079
Gh(H)     -2.014013     1.682929     0.320102
Gh(H)     -2.637138     0.327502     0.068322

units ang
no_reorient
no_com
symmetry c1
}

set {
basis        aug-cc-pVTZ
scf_type     df
}

energy("mp2")
--------------------------------------------------------------------------

    Molecular point group: c1

    Geometry (in Angstrom), charge = 0, multiplicity = 1:

       Center              X                  Y                   Z               Mass
    ------------   -----------------  -----------------  -----------------  -----------------
      Gh(NA)          0.000000000000     0.000000000000     0.000000000000    22.989769282000
      Gh(O)           0.985243000000     1.361756000000    -1.542488000000    15.994914619570
      Gh(H)           1.874246000000     1.350733000000    -1.934909000000     1.007825032230
      Gh(H)           0.414988000000     1.260066000000    -2.324670000000     1.007825032230
      Gh(O)           0.823978000000     0.878247000000     2.115655000000    15.994914619570
      Gh(H)           1.298081000000     1.751934000000     2.375790000000     1.007825032230
      Gh(H)           0.257828000000     0.586640000000     2.820213000000     1.007825032230
         O           -0.226418000000    -1.408438000000    -1.797917000000    15.994914619570
         H           -0.917865000000    -2.089083000000    -1.585986000000     1.007825032230
         H            0.448556000000    -1.874981000000    -2.327105000000     1.007825032230
      Gh(O)          -1.974562000000     0.901395000000    -0.277079000000    15.994914619570
      Gh(H)          -2.014013000000     1.682929000000     0.320102000000     1.007825032230
      Gh(H)          -2.637138000000     0.327502000000     0.068322000000     1.007825032230

  Charge       = 0
  Multiplicity = 1
  Basis Set: AUG-CC-PVTZ
    Blend: AUG-CC-PVTZ
  Basis Set: (AUG-CC-PVTZ AUX)
    Blend: AUG-CC-PVTZ-JKFIT + DEF2-UNIVERSAL-JKFIT

    Orbital Energies [Eh]
    ---------------------

    Doubly Occupied:

       1A    -20.571219     2A     -1.339019     3A     -0.704969
       4A     -0.577390     5A     -0.507761

  @DF-RHF Final Energy:   -76.05740030018906

   => Energetics <=

    Nuclear Repulsion Energy =              8.9358652533532457
    One-Electron Energy =                -122.5858097607463435
    Two-Electron Energy =                  37.5925442072040354
    Total Energy =                        -76.0574003001890731
 Dipole X            :          4.3013844           -4.3098096           -0.0084251
 Dipole Y            :         28.0316258          -28.7834920           -0.7518661
 Dipole Z            :         34.3656459          -34.5752361           -0.2095902
 Magnitude           :                                                    0.7805778
  Basis Set: (AUG-CC-PVTZ AUX)
    Blend: AUG-CC-PVTZ-RI + DEF2-QZVPP-RI
	 Reference Energy          =     -76.0574003001890588 [Eh]
	 Singles Energy            =      -0.0000000000000000 [Eh]
	 Same-Spin Energy          =      -0.0688661208241768 [Eh]
	 Opposite-Spin Energy      =      -0.2172431312450087 [Eh]
	 Correlation Energy        =      -0.2861092520691855 [Eh]
	 Total Energy              =     -76.3435095522582401 [Eh]

	 ================> DF-SCS-MP2 Energies <==================
	-----------------------------------------------------------
	 SCS Same-Spin Scale       =       0.3333333333333333 [-]
	 SCS Opposite-Spin Scale   =       1.2000000000000000 [-]
	 SCS Same-Spin Energy      =      -0.0229553736080589 [Eh]
	 SCS Opposite-Spin Energy  =      -0.2606917574940104 [Eh]
	 SCS Correlation Energy    =      -0.2836471311020693 [Eh]
	 SCS Total Energy          =     -76.3410474312911305 [Eh]
	-----------------------------------------------------------

*** Psi4 exiting successfully. Buy a developer a beer!
