                               Psi4 1.8.2 release

  ==> Input File <==

--------------------------------------------------------------------------
MEMORY 60 GB

molecule dimer {
1 1
Na         0.000000     0.000000     0.000000
O          0.112621    -1.386806    -1.972606
H          0.672583    -1.550070    -2.775900
H         -0.603129    -2.048594    -1.903750
O          1.852574    -1.386479     0.816134
H          2.242350    -2.087796     0.203988
H          1.341615    -1.750473     1.542276
O         -2.022339     1.221625    -0.636373
H         -2.927026     0.757137    -0.600158
H         -1.792091     1.337729    -1.566912
O         -1.416620    -1.275424     1.492934
H         -2.160042    -1.185167     2.079025
H         -0.840556    -1.926141     1.953126
O          2.144001     1.442874    -0.647730
H          2.575039     1.174574    -1.498240
H          2.815913     1.315215     0.053847
O          0.138862     1.360945     1.935363
H          0.721431     2.052917     2.221916
H         -0.531806     1.357180     2.629171

units ang
no_reorient
no_com
symmetry c1
}

set {
basis        aug-cc-pVTZ
scf_type     df
}

energy("mp2")
--------------------------------------------------------------------------

    Molecular point group: c1

    Geometry (in Angstrom), charge = 1, multiplicity = 1:

       Center              X                  Y                   Z               Mass
    ------------   -----------------  -----------------  -----------------  -----------------
         NA           0.000000000000     0.000000000000     0.000000000000    22.989769282000
         O            0.112621000000    -1.386806000000    -1.972606000000    15.994914619570
         H            0.672583000000    -1.550070000000    -2.775900000000     1.007825032230
         H           -0.603129000000    -2.048594000000    -1.903750000000     1.007825032230
         O            1.852574000000    -1.386479000000     0.816134000000    15.994914619570
         H            2.242350000000    -2.087796000000     0.203988000000     1.007825032230
         H            1.341615000000    -1.750473000000     1.542276000000     1.007825032230
         O           -2.022339000000     1.221625000000    -0.636373000000    15.994914619570
         H           -2.927026000000     0.757137000000    -0.600158000000     1.007825032230
         H           -1.792091000000     1.337729000000    -1.566912000000     1.007825032230
         O           -1.416620000000    -1.275424000000     1.492934000000    15.994914619570
         H           -2.160042000000    -1.185167000000     2.079025000000     1.007825032230
         H           -0.840556000000    -1.926141000000     1.953126000000     1.007825032230
         O            2.144001000000     1.442874000000    -0.647730000000    15.994914619570
         H            2.575039000000     1.174574000000    -1.498240000000     1.007825032230
         H            2.815913000000     1.315215000000     0.053847000000     1.007825032230
         O            0.138862000000     1.360945000000     1.935363000000    15.994914619570
         H            0.721431000000     2.052917000000     2.221916000000     1.007825032230
         H           -0.531806000000     1.357180000000     2.629171000000     1.007825032230

  Charge       = 1
  Multiplicity = 1
  Basis Set: AUG-CC-PVTZ
    Blend: AUG-CC-PVTZ
  Basis Set: (AUG-CC-PVTZ AUX)
    Blend: AUG-CC-PVTZ-JKFIT + DEF2-UNIVERSAL-JKFIT

    Orbital Energies [Eh]
    ---------------------

    Doubly Occupied:

       1A    -40.533930     2A    -20.728056     3A    -20.722701
       4A    -20.713053     5A    -20.704447     6A    -20.697939
       7A    -20.692955     8A     -2.855327     9A     -1.580839
      10A     -1.580069    11A     -1.579145    12A     -1.511427
      13A     -1.492733    14A     -1.488109    15A     -1.483689
      16A     -1.471188    17A     -1.462264    18A     -0.878115
      19A     -0.870540    20A     -0.862533    21A     -0.846821
      22A     -0.839827    23A     -0.828937    24A     -0.758296
      25A     -0.737920    26A     -0.734777    27A     -0.715520
      28A     -0.711626    29A     -0.703719    30A     -0.673532
      31A     -0.669946    32A     -0.653295    33A     -0.645258
      34A     -0.644545    35A     -0.632663

  @DF-RHF Final Energy:  -618.14823097282249

   => Energetics <=

    Nuclear Repulsion Energy =            399.9858622210617227
    One-Electron Energy =               -1646.8566946535208899
    Two-Electron Energy =                 628.7226014596366213
    Total Energy =                       -618.1482309728224891
 Dipole X            :        -15.1676676           15.0933805           -0.0742871
 Dipole Y            :          3.4975524           -5.1771107           -1.6795583
 Dipole Z            :        -19.0704751           19.3511073            0.2806323
 Magnitude           :                                                    1.7044616
  Basis Set: (AUG-CC-PVTZ AUX)
    Blend: AUG-CC-PVTZ-RI + DEF2-QZVPP-RI
	 Reference Energy          =    -618.1482309728224891 [Eh]
	 Singles Energy            =      -0.0000000000000000 [Eh]
	 Same-Spin Energy          =      -0.4226050335166260 [Eh]
	 Opposite-Spin Energy      =      -1.3216476197969749 [Eh]
	 Correlation Energy        =      -1.7442526533136009 [Eh]
	 Total Energy              =    -619.8924836261361406 [Eh]

	 ================> DF-SCS-MP2 Energies <==================
	-----------------------------------------------------------
	 SCS Same-Spin Scale       =       0.3333333333333333 [-]
	 SCS Opposite-Spin Scale   =       1.2000000000000000 [-]
	 SCS Same-Spin Energy      =      -0.1408683445055420 [Eh]
	 SCS Opposite-Spin Energy  =      -1.5859771437563699 [Eh]
	 SCS Correlation Energy    =      -1.7268454882619120 [Eh]
	 SCS Total Energy          =    -619.8750764610844044 [Eh]
	-----------------------------------------------------------

*** Psi4 exiting successfully. Buy a developer a beer!
