                               Psi4 1.8.2 release

  ==> Input File <==

--------------------------------------------------------------------------
MEMORY 60 GB

molecule dimer {
0 1
Gh(Na)     0.000000     0.000000     0.000000
Gh(O)     -0.332121    -2.281891     0.576606
Gh(H)     -1.173755    -2.765721     0.225709
Gh(H)      0.345779    -2.960927     0.521459
Gh(O)      2.135977     0.253593     1.268585
Gh(H)      2.395913    -0.668918     1.468574
Gh(H)      2.696168     0.571416     0.528307
O         -2.315517     0.356728    -0.409186
H         -3.138798    -0.072402    -0.267720
H         -2.580394     1.283071    -0.200079
Gh(O)      0.868281    -0.723066    -1.877874
Gh(H)      0.164617    -1.195673    -2.317550
Gh(H)      1.489308    -1.410794    -1.674628

units ang
no_reorient
no_com
symmetry c1
}

set {
basis        aug-cc-pVTZ
scf_type     df
}

energy("mp2")
--------------------------------------------------------------------------

    Molecular point group: c1

    Geometry (in Angstrom), charge = 0, multiplicity = 1:

       Center              X                  Y                   Z               Mass
    ------------   -----------------  -----------------  -----------------  -----------------
      Gh(NA)          0.000000000000     0.000000000000     0.000000000000    22.989769282000
      Gh(O)          -0.332121000000    -2.281891000000     0.576606000000    15.994914619570
      Gh(H)          -1.173755000000    -2.765721000000     0.225709000000     1.007825032230
      Gh(H)           0.345779000000    -2.960927000000     0.521459000000     1.007825032230
      Gh(O)           2.135977000000     0.253593000000     1.268585000000    15.994914619570
      Gh(H)           2.395913000000    -0.668918000000     1.468574000000     1.007825032230
      Gh(H)           2.696168000000     0.571416000000     0.528307000000     1.007825032230
         O           -2.315517000000     0.356728000000    -0.409186000000    15.994914619570
         H           -3.138798000000    -0.072402000000    -0.267720000000     1.007825032230
         H           -2.580394000000     1.283071000000    -0.200079000000     1.007825032230
      Gh(O)           0.868281000000    -0.723066000000    -1.877874000000    15.994914619570
      Gh(H)           0.164617000000    -1.195673000000    -2.317550000000     1.007825032230
      Gh(H)           1.489308000000    -1.410794000000    -1.674628000000     1.007825032230

  Charge       = 0
  Multiplicity = 1
  Basis Set: AUG-CC-PVTZ
    Blend: AUG-CC-PVTZ
  Basis Set: (AUG-CC-PVTZ AUX)
    Blend: AUG-CC-PVTZ-JKFIT + DEF2-UNIVERSAL-JKFIT

    Orbital Energies [Eh]
    ---------------------

    Doubly Occupied:

       1A    -20.570029     2A     -1.355116     3A     -0.704734
       4A     -0.593853     5A     -0.511422

  @DF-RHF Final Energy:   -76.05824002480860

   => Energetics <=

    Nuclear Repulsion Energy =              9.1623820186652694
    One-Electron Energy =                -122.9709346050968009
    Two-Electron Energy =                  37.7503125616229340
    Total Energy =                        -76.0582400248085975
 Dipole X            :         45.0987290          -45.8132503           -0.7145213
 Dipole Y            :         -7.3644919            7.6807786            0.3162867
 Dipole Z            :          7.2984792           -7.0700078            0.2284715
 Magnitude           :                                                    0.8141113
  Basis Set: (AUG-CC-PVTZ AUX)
    Blend: AUG-CC-PVTZ-RI + DEF2-QZVPP-RI
	 Reference Energy          =     -76.0582400248085975 [Eh]
	 Singles Energy            =      -0.0000000000000000 [Eh]
	 Same-Spin Energy          =      -0.0686107484623601 [Eh]
	 Opposite-Spin Energy      =      -0.2163214430247634 [Eh]
	 Correlation Energy        =      -0.2849321914871235 [Eh]
	 Total Energy              =     -76.3431722162957271 [Eh]

	 ================> DF-SCS-MP2 Energies <==================
	-----------------------------------------------------------
	 SCS Same-Spin Scale       =       0.3333333333333333 [-]
	 SCS Opposite-Spin Scale   =       1.2000000000000000 [-]
	 SCS Same-Spin Energy      =      -0.0228702494874534 [Eh]
	 SCS Opposite-Spin Energy  =      -0.2595857316297160 [Eh]
	 SCS Correlation Energy    =      -0.2824559811171694 [Eh]
	 SCS Total Energy          =     -76.3406960059257642 [Eh]
	-----------------------------------------------------------

*** Psi4 exiting successfully. Buy a developer a beer!
