                               Psi4 1.8.2 release

  ==> Input File <==

--------------------------------------------------------------------------
MEMORY 60 GB

molecule dimer {
0 1
Gh(Na)     0.000000     0.000000     0.000000
O          0.209842    -0.922257     1.980819
H         -0.293424    -1.759493     2.013630
H          1.137281    -1.096220     2.303432
Gh(O)     -0.913097     1.589898    -1.328350
Gh(H)     -0.417774     2.414856    -1.349717
Gh(H)     -1.803269     1.800960    -0.984765

units ang
no_reorient
no_com
symmetry c1
}

set {
basis        aug-cc-pVTZ
scf_type     df
}

energy("mp2")
--------------------------------------------------------------------------

    Molecular point group: c1

    Geometry (in Angstrom), charge = 0, multiplicity = 1:

       Center              X                  Y                   Z               Mass
    ------------   -----------------  -----------------  -----------------  -----------------
      Gh(NA)          0.000000000000     0.000000000000     0.000000000000    22.989769282000
         O            0.209842000000    -0.922257000000     1.980819000000    15.994914619570
         H           -0.293424000000    -1.759493000000     2.013630000000     1.007825032230
         H            1.137281000000    -1.096220000000     2.303432000000     1.007825032230
      Gh(O)          -0.913097000000     1.589898000000    -1.328350000000    15.994914619570
      Gh(H)          -0.417774000000     2.414856000000    -1.349717000000     1.007825032230
      Gh(H)          -1.803269000000     1.800960000000    -0.984765000000     1.007825032230

  Charge       = 0
  Multiplicity = 1
  Basis Set: AUG-CC-PVTZ
    Blend: AUG-CC-PVTZ
  Basis Set: (AUG-CC-PVTZ AUX)
    Blend: AUG-CC-PVTZ-JKFIT + DEF2-UNIVERSAL-JKFIT

    Orbital Energies [Eh]
    ---------------------

    Doubly Occupied:

       1A    -20.570248     2A     -1.335874     3A     -0.708792
       4A     -0.571270     5A     -0.506649

  @DF-RHF Final Energy:   -76.05652383007850

   => Energetics <=

    Nuclear Repulsion Energy =              8.9064674844251854
    One-Electron Energy =                -122.5403168092128254
    Two-Electron Energy =                  37.5773254947091289
    Total Energy =                        -76.0565238300785040
 Dipole X            :         -4.4895038            4.7670099            0.2775061
 Dipole Y            :         18.6698073          -19.3390206           -0.6692133
 Dipole Z            :        -37.8691760           38.1037082            0.2345322
 Magnitude           :                                                    0.7614863
  Basis Set: (AUG-CC-PVTZ AUX)
    Blend: AUG-CC-PVTZ-RI + DEF2-QZVPP-RI
	 Reference Energy          =     -76.0565238300785040 [Eh]
	 Singles Energy            =      -0.0000000000000000 [Eh]
	 Same-Spin Energy          =      -0.0688551209664851 [Eh]
	 Opposite-Spin Energy      =      -0.2170919560799307 [Eh]
	 Correlation Energy        =      -0.2859470770464159 [Eh]
	 Total Energy              =     -76.3424709071249197 [Eh]

	 ================> DF-SCS-MP2 Energies <==================
	-----------------------------------------------------------
	 SCS Same-Spin Scale       =       0.3333333333333333 [-]
	 SCS Opposite-Spin Scale   =       1.2000000000000000 [-]
	 SCS Same-Spin Energy      =      -0.0229517069888284 [Eh]
	 SCS Opposite-Spin Energy  =      -0.2605103472959169 [Eh]
	 SCS Correlation Energy    =      -0.2834620542847452 [Eh]
	 SCS Total Energy          =     -76.3399858843632444 [Eh]
	-----------------------------------------------------------

*** Psi4 exiting successfully. Buy a developer a beer!
