                               Psi4 1.8.2 release

  ==> Input File <==

--------------------------------------------------------------------------
MEMORY 60 GB

molecule dimer {
0 1
Gh(Na)     0.000000     0.000000     0.000000
Gh(O)      1.436661     1.902962    -0.211771
Gh(H)      2.350805     1.847534     0.091780
Gh(H)      1.026974     2.533356     0.386801
Gh(O)     -1.323065    -1.521620    -1.098658
Gh(H)     -2.179765    -1.636529    -1.427199
Gh(H)     -0.814186    -2.298524    -1.350965
O         -1.869489     1.230228     0.654969
H         -2.527117     1.848262     0.238872
H         -2.357574     0.443019     0.966796
Gh(O)      0.132845    -0.887295     1.960114
Gh(H)     -0.489936    -1.193447     2.627722
Gh(H)      0.980462    -1.159278     2.361285
Gh(O)      1.844118    -1.561191    -0.276992
Gh(H)      2.698911    -1.163388     0.115895
Gh(H)      1.690859    -2.432842     0.069830

units ang
no_reorient
no_com
symmetry c1
}

set {
basis        aug-cc-pVTZ
scf_type     df
}

energy("mp2")
--------------------------------------------------------------------------

    Molecular point group: c1

    Geometry (in Angstrom), charge = 0, multiplicity = 1:

       Center              X                  Y                   Z               Mass
    ------------   -----------------  -----------------  -----------------  -----------------
      Gh(NA)          0.000000000000     0.000000000000     0.000000000000    22.989769282000
      Gh(O)           1.436661000000     1.902962000000    -0.211771000000    15.994914619570
      Gh(H)           2.350805000000     1.847534000000     0.091780000000     1.007825032230
      Gh(H)           1.026974000000     2.533356000000     0.386801000000     1.007825032230
      Gh(O)          -1.323065000000    -1.521620000000    -1.098658000000    15.994914619570
      Gh(H)          -2.179765000000    -1.636529000000    -1.427199000000     1.007825032230
      Gh(H)          -0.814186000000    -2.298524000000    -1.350965000000     1.007825032230
         O           -1.869489000000     1.230228000000     0.654969000000    15.994914619570
         H           -2.527117000000     1.848262000000     0.238872000000     1.007825032230
         H           -2.357574000000     0.443019000000     0.966796000000     1.007825032230
      Gh(O)           0.132845000000    -0.887295000000     1.960114000000    15.994914619570
      Gh(H)          -0.489936000000    -1.193447000000     2.627722000000     1.007825032230
      Gh(H)           0.980462000000    -1.159278000000     2.361285000000     1.007825032230
      Gh(O)           1.844118000000    -1.561191000000    -0.276992000000    15.994914619570
      Gh(H)           2.698911000000    -1.163388000000     0.115895000000     1.007825032230
      Gh(H)           1.690859000000    -2.432842000000     0.069830000000     1.007825032230

  Charge       = 0
  Multiplicity = 1
  Basis Set: AUG-CC-PVTZ
    Blend: AUG-CC-PVTZ
  Basis Set: (AUG-CC-PVTZ AUX)
    Blend: AUG-CC-PVTZ-JKFIT + DEF2-UNIVERSAL-JKFIT

    Orbital Energies [Eh]
    ---------------------

    Doubly Occupied:

       1A    -20.570364     2A     -1.337249     3A     -0.708205
       4A     -0.573269     5A     -0.507056

  @DF-RHF Final Energy:   -76.05707236287347

   => Energetics <=

    Nuclear Repulsion Energy =              8.9240774172769601
    One-Electron Energy =                -122.5700096263047101
    Two-Electron Energy =                  37.5888598461542784
    Total Energy =                        -76.0570723628734697
 Dipole X            :         36.7377634          -37.4933058           -0.7555424
 Dipole Y            :        -23.0420335           22.9282455           -0.1137880
 Dipole Z            :        -12.2475366           12.1800786           -0.0674580
 Magnitude           :                                                    0.7670350
  Basis Set: (AUG-CC-PVTZ AUX)
    Blend: AUG-CC-PVTZ-RI + DEF2-QZVPP-RI
	 Reference Energy          =     -76.0570723628734697 [Eh]
	 Singles Energy            =      -0.0000000000000000 [Eh]
	 Same-Spin Energy          =      -0.0688564679496986 [Eh]
	 Opposite-Spin Energy      =      -0.2172343993679443 [Eh]
	 Correlation Energy        =      -0.2860908673176429 [Eh]
	 Total Energy              =     -76.3431632301911094 [Eh]

	 ================> DF-SCS-MP2 Energies <==================
	-----------------------------------------------------------
	 SCS Same-Spin Scale       =       0.3333333333333333 [-]
	 SCS Opposite-Spin Scale   =       1.2000000000000000 [-]
	 SCS Same-Spin Energy      =      -0.0229521559832329 [Eh]
	 SCS Opposite-Spin Energy  =      -0.2606812792415332 [Eh]
	 SCS Correlation Energy    =      -0.2836334352247660 [Eh]
	 SCS Total Energy          =     -76.3407057980982415 [Eh]
	-----------------------------------------------------------

*** Psi4 exiting successfully. Buy a developer a beer!
