                               Psi4 1.8.2 release

  ==> Input File <==

--------------------------------------------------------------------------
MEMORY 60 GB

molecule dimer {
1 1
Na         0.000000     0.000000     0.000000
Gh(O)      1.123334     2.081258    -0.572008
Gh(H)      1.216698     2.687495     0.190794
Gh(H)      1.959598     2.117506    -1.056213
Gh(O)      2.258056    -1.030970     0.237516
Gh(H)      2.691734    -0.383332     0.814519
Gh(H)      2.334528    -0.786860    -0.703473
Gh(O)     -0.907363    -1.944297     0.044354
Gh(H)     -1.273537    -2.411135    -0.753502
Gh(H)     -1.634033    -1.924246     0.641980
Gh(O)     -2.039574     0.663792    -0.777922
Gh(H)     -1.939320     1.285531    -1.453140
Gh(H)     -2.627457    -0.060953    -1.090527

units ang
no_reorient
no_com
symmetry c1
}

set {
basis        aug-cc-pVTZ
scf_type     df
}

energy("mp2")
--------------------------------------------------------------------------

    Molecular point group: c1

    Geometry (in Angstrom), charge = 1, multiplicity = 1:

       Center              X                  Y                   Z               Mass
    ------------   -----------------  -----------------  -----------------  -----------------
         NA           0.000000000000     0.000000000000     0.000000000000    22.989769282000
      Gh(O)           1.123334000000     2.081258000000    -0.572008000000    15.994914619570
      Gh(H)           1.216698000000     2.687495000000     0.190794000000     1.007825032230
      Gh(H)           1.959598000000     2.117506000000    -1.056213000000     1.007825032230
      Gh(O)           2.258056000000    -1.030970000000     0.237516000000    15.994914619570
      Gh(H)           2.691734000000    -0.383332000000     0.814519000000     1.007825032230
      Gh(H)           2.334528000000    -0.786860000000    -0.703473000000     1.007825032230
      Gh(O)          -0.907363000000    -1.944297000000     0.044354000000    15.994914619570
      Gh(H)          -1.273537000000    -2.411135000000    -0.753502000000     1.007825032230
      Gh(H)          -1.634033000000    -1.924246000000     0.641980000000     1.007825032230
      Gh(O)          -2.039574000000     0.663792000000    -0.777922000000    15.994914619570
      Gh(H)          -1.939320000000     1.285531000000    -1.453140000000     1.007825032230
      Gh(H)          -2.627457000000    -0.060953000000    -1.090527000000     1.007825032230

  Charge       = 1
  Multiplicity = 1
  Basis Set: AUG-CC-PVTZ
    Blend: AUG-CC-PVTZ
  Basis Set: (AUG-CC-PVTZ AUX)
    Blend: AUG-CC-PVTZ-JKFIT + DEF2-UNIVERSAL-JKFIT

    Orbital Energies [Eh]
    ---------------------

    Doubly Occupied:

       1A    -40.760644     2A     -3.073905     3A     -1.797280
       4A     -1.797266     5A     -1.797148

  @DF-RHF Final Energy:  -161.67608255731616

   => Energetics <=

    Nuclear Repulsion Energy =              0.0000000000000000
    One-Electron Energy =                -224.8996798277959783
    Two-Electron Energy =                  63.2235972704798144
    Total Energy =                       -161.6760825573161640
 Dipole X            :          0.0000870            0.0000000            0.0000870
 Dipole Y            :         -0.0000568            0.0000000           -0.0000568
 Dipole Z            :         -0.0001859            0.0000000           -0.0001859
 Magnitude           :                                                    0.0002130
  Basis Set: (AUG-CC-PVTZ AUX)
    Blend: AUG-CC-PVTZ-RI + DEF2-QZVPP-RI
	 Reference Energy          =    -161.6760825573161640 [Eh]
	 Singles Energy            =      -0.0000000000000000 [Eh]
	 Same-Spin Energy          =      -0.0056819866035981 [Eh]
	 Opposite-Spin Energy      =      -0.0178792427626352 [Eh]
	 Correlation Energy        =      -0.0235612293662333 [Eh]
	 Total Energy              =    -161.6996437866824010 [Eh]

	 ================> DF-SCS-MP2 Energies <==================
	-----------------------------------------------------------
	 SCS Same-Spin Scale       =       0.3333333333333333 [-]
	 SCS Opposite-Spin Scale   =       1.2000000000000000 [-]
	 SCS Same-Spin Energy      =      -0.0018939955345327 [Eh]
	 SCS Opposite-Spin Energy  =      -0.0214550913151622 [Eh]
	 SCS Correlation Energy    =      -0.0233490868496950 [Eh]
	 SCS Total Energy          =    -161.6994316441658555 [Eh]
	-----------------------------------------------------------

*** Psi4 exiting successfully. Buy a developer a beer!
