                               Psi4 1.8.2 release

  ==> Input File <==

--------------------------------------------------------------------------
MEMORY 60 GB

molecule dimer {
0 1
Gh(Na)     0.000000     0.000000     0.000000
Gh(O)      0.897942     0.232779    -2.242681
Gh(H)      0.375770     0.945152    -2.637263
Gh(H)      1.742548     0.701814    -2.136948
Gh(O)     -0.526370    -2.247938    -0.113789
Gh(H)     -0.067939    -2.929889     0.403156
Gh(H)     -1.121253    -2.676460    -0.712395
Gh(O)      0.965071     2.227927    -0.066810
Gh(H)      1.977096     2.201242     0.110202
Gh(H)      0.828364     2.723446    -0.874262
O         -0.282618     0.653366     2.269494
H         -1.091358     0.346471     2.688083
H          0.398640     0.607206     2.959686

units ang
no_reorient
no_com
symmetry c1
}

set {
basis        aug-cc-pVTZ
scf_type     df
}

energy("mp2")
--------------------------------------------------------------------------

    Molecular point group: c1

    Geometry (in Angstrom), charge = 0, multiplicity = 1:

       Center              X                  Y                   Z               Mass
    ------------   -----------------  -----------------  -----------------  -----------------
      Gh(NA)          0.000000000000     0.000000000000     0.000000000000    22.989769282000
      Gh(O)           0.897942000000     0.232779000000    -2.242681000000    15.994914619570
      Gh(H)           0.375770000000     0.945152000000    -2.637263000000     1.007825032230
      Gh(H)           1.742548000000     0.701814000000    -2.136948000000     1.007825032230
      Gh(O)          -0.526370000000    -2.247938000000    -0.113789000000    15.994914619570
      Gh(H)          -0.067939000000    -2.929889000000     0.403156000000     1.007825032230
      Gh(H)          -1.121253000000    -2.676460000000    -0.712395000000     1.007825032230
      Gh(O)           0.965071000000     2.227927000000    -0.066810000000    15.994914619570
      Gh(H)           1.977096000000     2.201242000000     0.110202000000     1.007825032230
      Gh(H)           0.828364000000     2.723446000000    -0.874262000000     1.007825032230
         O           -0.282618000000     0.653366000000     2.269494000000    15.994914619570
         H           -1.091358000000     0.346471000000     2.688083000000     1.007825032230
         H            0.398640000000     0.607206000000     2.959686000000     1.007825032230

  Charge       = 0
  Multiplicity = 1
  Basis Set: AUG-CC-PVTZ
    Blend: AUG-CC-PVTZ
  Basis Set: (AUG-CC-PVTZ AUX)
    Blend: AUG-CC-PVTZ-JKFIT + DEF2-UNIVERSAL-JKFIT

    Orbital Energies [Eh]
    ---------------------

    Doubly Occupied:

       1A    -20.568112     2A     -1.348421     3A     -0.714690
       4A     -0.581437     5A     -0.509333

  @DF-RHF Final Energy:   -76.05998627633804

   => Energetics <=

    Nuclear Repulsion Energy =              9.1100850367178516
    One-Electron Energy =                -122.8961560677734610
    Two-Electron Energy =                  37.7260847547175828
    Total Energy =                        -76.0599862763380372
 Dipole X            :          5.4953889           -5.5816122           -0.0862234
 Dipole Y            :        -11.9138165           11.6796507           -0.2341657
 Dipole Z            :        -44.2475281           44.9825135            0.7349853
 Magnitude           :                                                    0.7761904
  Basis Set: (AUG-CC-PVTZ AUX)
    Blend: AUG-CC-PVTZ-RI + DEF2-QZVPP-RI
	 Reference Energy          =     -76.0599862763380372 [Eh]
	 Singles Energy            =      -0.0000000000000000 [Eh]
	 Same-Spin Energy          =      -0.0685332397106919 [Eh]
	 Opposite-Spin Energy      =      -0.2161339919660276 [Eh]
	 Correlation Energy        =      -0.2846672316767195 [Eh]
	 Total Energy              =     -76.3446535080147584 [Eh]

	 ================> DF-SCS-MP2 Energies <==================
	-----------------------------------------------------------
	 SCS Same-Spin Scale       =       0.3333333333333333 [-]
	 SCS Opposite-Spin Scale   =       1.2000000000000000 [-]
	 SCS Same-Spin Energy      =      -0.0228444132368973 [Eh]
	 SCS Opposite-Spin Energy  =      -0.2593607903592332 [Eh]
	 SCS Correlation Energy    =      -0.2822052035961304 [Eh]
	 SCS Total Energy          =     -76.3421914799341721 [Eh]
	-----------------------------------------------------------

*** Psi4 exiting successfully. Buy a developer a beer!
