                               Psi4 1.8.2 release

  ==> Input File <==

--------------------------------------------------------------------------
MEMORY 60 GB

molecule dimer {
1 1
Na         0.000000     0.000000     0.000000
Gh(O)     -1.982434     0.371909     1.103721
Gh(H)     -1.999968    -0.133509     1.915544
Gh(H)     -2.677161    -0.029523     0.520499
Gh(O)     -0.506861     1.576105    -1.534582
Gh(H)     -1.312414     2.123471    -1.457035
Gh(H)      0.255777     2.156557    -1.829559
Gh(O)      1.680895    -0.267523    -1.814314
Gh(H)      1.826160     0.587119    -2.126473
Gh(H)      2.577908    -0.601219    -1.659205
Gh(O)      1.269075    -0.963815     1.515438
Gh(H)      1.588209    -1.762903     1.072335
Gh(H)      1.939449    -0.207875     1.425336

units ang
no_reorient
no_com
symmetry c1
}

set {
basis        aug-cc-pVTZ
scf_type     df
}

energy("mp2")
--------------------------------------------------------------------------

    Molecular point group: c1

    Geometry (in Angstrom), charge = 1, multiplicity = 1:

       Center              X                  Y                   Z               Mass
    ------------   -----------------  -----------------  -----------------  -----------------
         NA           0.000000000000     0.000000000000     0.000000000000    22.989769282000
      Gh(O)          -1.982434000000     0.371909000000     1.103721000000    15.994914619570
      Gh(H)          -1.999968000000    -0.133509000000     1.915544000000     1.007825032230
      Gh(H)          -2.677161000000    -0.029523000000     0.520499000000     1.007825032230
      Gh(O)          -0.506861000000     1.576105000000    -1.534582000000    15.994914619570
      Gh(H)          -1.312414000000     2.123471000000    -1.457035000000     1.007825032230
      Gh(H)           0.255777000000     2.156557000000    -1.829559000000     1.007825032230
      Gh(O)           1.680895000000    -0.267523000000    -1.814314000000    15.994914619570
      Gh(H)           1.826160000000     0.587119000000    -2.126473000000     1.007825032230
      Gh(H)           2.577908000000    -0.601219000000    -1.659205000000     1.007825032230
      Gh(O)           1.269075000000    -0.963815000000     1.515438000000    15.994914619570
      Gh(H)           1.588209000000    -1.762903000000     1.072335000000     1.007825032230
      Gh(H)           1.939449000000    -0.207875000000     1.425336000000     1.007825032230

  Charge       = 1
  Multiplicity = 1
  Basis Set: AUG-CC-PVTZ
    Blend: AUG-CC-PVTZ
  Basis Set: (AUG-CC-PVTZ AUX)
    Blend: AUG-CC-PVTZ-JKFIT + DEF2-UNIVERSAL-JKFIT

    Orbital Energies [Eh]
    ---------------------

    Doubly Occupied:

       1A    -40.760566     2A     -3.073865     3A     -1.797241
       4A     -1.797224     5A     -1.797123

  @DF-RHF Final Energy:  -161.67608456732850

   => Energetics <=

    Nuclear Repulsion Energy =              0.0000000000000000
    One-Electron Energy =                -224.9001325087890848
    Two-Electron Energy =                  63.2240479414605758
    Total Energy =                       -161.6760845673285019
 Dipole X            :          0.0000783            0.0000000            0.0000783
 Dipole Y            :          0.0000272            0.0000000            0.0000272
 Dipole Z            :          0.0000351            0.0000000            0.0000351
 Magnitude           :                                                    0.0000900
  Basis Set: (AUG-CC-PVTZ AUX)
    Blend: AUG-CC-PVTZ-RI + DEF2-QZVPP-RI
	 Reference Energy          =    -161.6760845673285019 [Eh]
	 Singles Energy            =      -0.0000000000000000 [Eh]
	 Same-Spin Energy          =      -0.0055720670843959 [Eh]
	 Opposite-Spin Energy      =      -0.0175643940566002 [Eh]
	 Correlation Energy        =      -0.0231364611409961 [Eh]
	 Total Energy              =    -161.6992210284695091 [Eh]

	 ================> DF-SCS-MP2 Energies <==================
	-----------------------------------------------------------
	 SCS Same-Spin Scale       =       0.3333333333333333 [-]
	 SCS Opposite-Spin Scale   =       1.2000000000000000 [-]
	 SCS Same-Spin Energy      =      -0.0018573556947986 [Eh]
	 SCS Opposite-Spin Energy  =      -0.0210772728679202 [Eh]
	 SCS Correlation Energy    =      -0.0229346285627188 [Eh]
	 SCS Total Energy          =    -161.6990191958912249 [Eh]
	-----------------------------------------------------------

*** Psi4 exiting successfully. Buy a developer a beer!
