                               Psi4 1.8.2 release

  ==> Input File <==

--------------------------------------------------------------------------
MEMORY 60 GB

molecule dimer {
0 1
Gh(Na)     0.000000     0.000000     0.000000
Gh(O)      0.947812     1.899105     0.977031
Gh(H)      1.807821     2.044401     0.657786
Gh(H)      0.588989     2.792278     0.908818
Gh(O)     -1.444642    -1.016969     1.456953
Gh(H)     -1.254934    -1.253499     2.356975
Gh(H)     -2.235372    -0.425228     1.524061
Gh(O)      0.226467    -2.132852    -0.671381
Gh(H)     -0.562565    -2.437496    -1.216545
Gh(H)      0.659167    -2.880779    -0.216328
Gh(O)     -1.530553     1.646078    -1.126636
Gh(H)     -0.996697     2.420031    -1.296472
Gh(H)     -2.107683     1.693328    -1.872568
O          1.383865     0.646444    -1.792448
H          1.257365     1.030067    -2.661942
H          2.278809     0.740204    -1.509904

units ang
no_reorient
no_com
symmetry c1
}

set {
basis        aug-cc-pVTZ
scf_type     df
}

energy("mp2")
--------------------------------------------------------------------------

    Molecular point group: c1

    Geometry (in Angstrom), charge = 0, multiplicity = 1:

       Center              X                  Y                   Z               Mass
    ------------   -----------------  -----------------  -----------------  -----------------
      Gh(NA)          0.000000000000     0.000000000000     0.000000000000    22.989769282000
      Gh(O)           0.947812000000     1.899105000000     0.977031000000    15.994914619570
      Gh(H)           1.807821000000     2.044401000000     0.657786000000     1.007825032230
      Gh(H)           0.588989000000     2.792278000000     0.908818000000     1.007825032230
      Gh(O)          -1.444642000000    -1.016969000000     1.456953000000    15.994914619570
      Gh(H)          -1.254934000000    -1.253499000000     2.356975000000     1.007825032230
      Gh(H)          -2.235372000000    -0.425228000000     1.524061000000     1.007825032230
      Gh(O)           0.226467000000    -2.132852000000    -0.671381000000    15.994914619570
      Gh(H)          -0.562565000000    -2.437496000000    -1.216545000000     1.007825032230
      Gh(H)           0.659167000000    -2.880779000000    -0.216328000000     1.007825032230
      Gh(O)          -1.530553000000     1.646078000000    -1.126636000000    15.994914619570
      Gh(H)          -0.996697000000     2.420031000000    -1.296472000000     1.007825032230
      Gh(H)          -2.107683000000     1.693328000000    -1.872568000000     1.007825032230
         O            1.383865000000     0.646444000000    -1.792448000000    15.994914619570
         H            1.257365000000     1.030067000000    -2.661942000000     1.007825032230
         H            2.278809000000     0.740204000000    -1.509904000000     1.007825032230

  Charge       = 0
  Multiplicity = 1
  Basis Set: AUG-CC-PVTZ
    Blend: AUG-CC-PVTZ
  Basis Set: (AUG-CC-PVTZ AUX)
    Blend: AUG-CC-PVTZ-JKFIT + DEF2-UNIVERSAL-JKFIT

    Orbital Energies [Eh]
    ---------------------

    Doubly Occupied:

       1A    -20.562956     2A     -1.352270     3A     -0.733278
       4A     -0.573568     5A     -0.508933

  @DF-RHF Final Energy:   -76.06036348167657

   => Energetics <=

    Nuclear Repulsion Energy =              9.2419119179870712
    One-Electron Energy =                -123.1425377853617107
    Two-Electron Energy =                  37.8402623856980682
    Total Energy =                        -76.0603634816765748
 Dipole X            :        -27.0785767           27.6034071            0.5248304
 Dipole Y            :        -12.7933320           13.1181443            0.3248123
 Dipole Z            :         34.5833301          -34.9815329           -0.3982028
 Magnitude           :                                                    0.7345172
  Basis Set: (AUG-CC-PVTZ AUX)
    Blend: AUG-CC-PVTZ-RI + DEF2-QZVPP-RI
	 Reference Energy          =     -76.0603634816765748 [Eh]
	 Singles Energy            =      -0.0000000000000000 [Eh]
	 Same-Spin Energy          =      -0.0682330130020955 [Eh]
	 Opposite-Spin Energy      =      -0.2152653802273535 [Eh]
	 Correlation Energy        =      -0.2834983932294490 [Eh]
	 Total Energy              =     -76.3438618749060254 [Eh]

	 ================> DF-SCS-MP2 Energies <==================
	-----------------------------------------------------------
	 SCS Same-Spin Scale       =       0.3333333333333333 [-]
	 SCS Opposite-Spin Scale   =       1.2000000000000000 [-]
	 SCS Same-Spin Energy      =      -0.0227443376673652 [Eh]
	 SCS Opposite-Spin Energy  =      -0.2583184562728242 [Eh]
	 SCS Correlation Energy    =      -0.2810627939401893 [Eh]
	 SCS Total Energy          =     -76.3414262756167687 [Eh]
	-----------------------------------------------------------

*** Psi4 exiting successfully. Buy a developer a beer!
