                               Psi4 1.8.2 release

  ==> Input File <==

--------------------------------------------------------------------------
MEMORY 60 GB

molecule dimer {
0 1
Gh(Na)     0.000000     0.000000     0.000000
Gh(O)     -1.892773     1.077634     1.090154
Gh(H)     -1.602965     1.973592     1.238232
Gh(H)     -1.975019     0.754811     1.992439
O          1.192296     1.455171     1.151359
H          1.688184     2.107167     0.722719
H          1.351737     1.611920     2.118416
Gh(O)      0.911499     0.687294    -2.163820
Gh(H)      0.543602     0.147142    -2.897860
Gh(H)      1.861899     0.935014    -2.358198
Gh(O)     -1.234329    -1.488967    -0.941371
Gh(H)     -1.944835    -1.893957    -0.501962
Gh(H)     -1.591545    -1.251163    -1.785640

units ang
no_reorient
no_com
symmetry c1
}

set {
basis        aug-cc-pVTZ
scf_type     df
}

energy("mp2")
--------------------------------------------------------------------------

    Molecular point group: c1

    Geometry (in Angstrom), charge = 0, multiplicity = 1:

       Center              X                  Y                   Z               Mass
    ------------   -----------------  -----------------  -----------------  -----------------
      Gh(NA)          0.000000000000     0.000000000000     0.000000000000    22.989769282000
      Gh(O)          -1.892773000000     1.077634000000     1.090154000000    15.994914619570
      Gh(H)          -1.602965000000     1.973592000000     1.238232000000     1.007825032230
      Gh(H)          -1.975019000000     0.754811000000     1.992439000000     1.007825032230
         O            1.192296000000     1.455171000000     1.151359000000    15.994914619570
         H            1.688184000000     2.107167000000     0.722719000000     1.007825032230
         H            1.351737000000     1.611920000000     2.118416000000     1.007825032230
      Gh(O)           0.911499000000     0.687294000000    -2.163820000000    15.994914619570
      Gh(H)           0.543602000000     0.147142000000    -2.897860000000     1.007825032230
      Gh(H)           1.861899000000     0.935014000000    -2.358198000000     1.007825032230
      Gh(O)          -1.234329000000    -1.488967000000    -0.941371000000    15.994914619570
      Gh(H)          -1.944835000000    -1.893957000000    -0.501962000000     1.007825032230
      Gh(H)          -1.591545000000    -1.251163000000    -1.785640000000     1.007825032230

  Charge       = 0
  Multiplicity = 1
  Basis Set: AUG-CC-PVTZ
    Blend: AUG-CC-PVTZ
  Basis Set: (AUG-CC-PVTZ AUX)
    Blend: AUG-CC-PVTZ-JKFIT + DEF2-UNIVERSAL-JKFIT

    Orbital Energies [Eh]
    ---------------------

    Doubly Occupied:

       1A    -20.566863     2A     -1.353769     3A     -0.717794
       4A     -0.583788     5A     -0.510224

  @DF-RHF Final Energy:   -76.05834441569358

   => Energetics <=

    Nuclear Repulsion Energy =              9.1926059965733522
    One-Electron Energy =                -123.0370228083188380
    Two-Electron Energy =                  37.7860723960518996
    Total Energy =                        -76.0583444156935968
 Dipole X            :        -23.3309026           23.7695213            0.4386187
 Dipole Y            :        -28.4852675           29.0270531            0.5417856
 Dipole Z            :        -22.4275992           22.7749925            0.3473933
 Magnitude           :                                                    0.7788454
  Basis Set: (AUG-CC-PVTZ AUX)
    Blend: AUG-CC-PVTZ-RI + DEF2-QZVPP-RI
	 Reference Energy          =     -76.0583444156935826 [Eh]
	 Singles Energy            =      -0.0000000000000000 [Eh]
	 Same-Spin Energy          =      -0.0684070527227655 [Eh]
	 Opposite-Spin Energy      =      -0.2158988918064860 [Eh]
	 Correlation Energy        =      -0.2843059445292515 [Eh]
	 Total Energy              =     -76.3426503602228337 [Eh]

	 ================> DF-SCS-MP2 Energies <==================
	-----------------------------------------------------------
	 SCS Same-Spin Scale       =       0.3333333333333333 [-]
	 SCS Opposite-Spin Scale   =       1.2000000000000000 [-]
	 SCS Same-Spin Energy      =      -0.0228023509075885 [Eh]
	 SCS Opposite-Spin Energy  =      -0.2590786701677832 [Eh]
	 SCS Correlation Energy    =      -0.2818810210753717 [Eh]
	 SCS Total Energy          =     -76.3402254367689608 [Eh]
	-----------------------------------------------------------

*** Psi4 exiting successfully. Buy a developer a beer!
