                               Psi4 1.8.2 release

  ==> Input File <==

--------------------------------------------------------------------------
MEMORY 60 GB

molecule dimer {
1 1
Na         0.000000     0.000000     0.000000
Gh(O)     -0.193331     2.133012     0.051126
Gh(H)      0.653992     2.486181    -0.227094
Gh(H)     -0.472516     2.846712     0.650011
Gh(O)      0.288803    -2.322357    -0.174914
Gh(H)     -0.642727    -2.354494    -0.182470
Gh(H)      0.543217    -2.550000    -1.066325
Gh(O)     -0.773660    -0.489796     2.272680
Gh(H)     -0.543862     0.115681     2.979151
Gh(H)     -0.362466    -1.237847     2.655977
Gh(O)     -1.896119    -0.066378    -1.470424
Gh(H)     -2.170950     0.762265    -1.877462
Gh(H)     -2.621122    -0.681651    -1.551543
Gh(O)      1.464272     0.251391    -1.866281
Gh(H)      2.258159     0.208517    -1.354089
Gh(H)      1.592895    -0.381460    -2.532995

units ang
no_reorient
no_com
symmetry c1
}

set {
basis        aug-cc-pVTZ
scf_type     df
}

energy("mp2")
--------------------------------------------------------------------------

    Molecular point group: c1

    Geometry (in Angstrom), charge = 1, multiplicity = 1:

       Center              X                  Y                   Z               Mass
    ------------   -----------------  -----------------  -----------------  -----------------
         NA           0.000000000000     0.000000000000     0.000000000000    22.989769282000
      Gh(O)          -0.193331000000     2.133012000000     0.051126000000    15.994914619570
      Gh(H)           0.653992000000     2.486181000000    -0.227094000000     1.007825032230
      Gh(H)          -0.472516000000     2.846712000000     0.650011000000     1.007825032230
      Gh(O)           0.288803000000    -2.322357000000    -0.174914000000    15.994914619570
      Gh(H)          -0.642727000000    -2.354494000000    -0.182470000000     1.007825032230
      Gh(H)           0.543217000000    -2.550000000000    -1.066325000000     1.007825032230
      Gh(O)          -0.773660000000    -0.489796000000     2.272680000000    15.994914619570
      Gh(H)          -0.543862000000     0.115681000000     2.979151000000     1.007825032230
      Gh(H)          -0.362466000000    -1.237847000000     2.655977000000     1.007825032230
      Gh(O)          -1.896119000000    -0.066378000000    -1.470424000000    15.994914619570
      Gh(H)          -2.170950000000     0.762265000000    -1.877462000000     1.007825032230
      Gh(H)          -2.621122000000    -0.681651000000    -1.551543000000     1.007825032230
      Gh(O)           1.464272000000     0.251391000000    -1.866281000000    15.994914619570
      Gh(H)           2.258159000000     0.208517000000    -1.354089000000     1.007825032230
      Gh(H)           1.592895000000    -0.381460000000    -2.532995000000     1.007825032230

  Charge       = 1
  Multiplicity = 1
  Basis Set: AUG-CC-PVTZ
    Blend: AUG-CC-PVTZ
  Basis Set: (AUG-CC-PVTZ AUX)
    Blend: AUG-CC-PVTZ-JKFIT + DEF2-UNIVERSAL-JKFIT

    Orbital Energies [Eh]
    ---------------------

    Doubly Occupied:

       1A    -40.760477     2A     -3.073816     3A     -1.797188
       4A     -1.797153     5A     -1.797125

  @DF-RHF Final Energy:  -161.67609349264836

   => Energetics <=

    Nuclear Repulsion Energy =              0.0000000000000000
    One-Electron Energy =                -224.9006686708188738
    Two-Electron Energy =                  63.2245751781705110
    Total Energy =                       -161.6760934926483628
 Dipole X            :          0.0000958            0.0000000            0.0000958
 Dipole Y            :         -0.0000807            0.0000000           -0.0000807
 Dipole Z            :         -0.0000052            0.0000000           -0.0000052
 Magnitude           :                                                    0.0001254
  Basis Set: (AUG-CC-PVTZ AUX)
    Blend: AUG-CC-PVTZ-RI + DEF2-QZVPP-RI
	 Reference Energy          =    -161.6760934926483628 [Eh]
	 Singles Energy            =      -0.0000000000000000 [Eh]
	 Same-Spin Energy          =      -0.0064644893934546 [Eh]
	 Opposite-Spin Energy      =      -0.0198218306276646 [Eh]
	 Correlation Energy        =      -0.0262863200211192 [Eh]
	 Total Energy              =    -161.7023798126694771 [Eh]

	 ================> DF-SCS-MP2 Energies <==================
	-----------------------------------------------------------
	 SCS Same-Spin Scale       =       0.3333333333333333 [-]
	 SCS Opposite-Spin Scale   =       1.2000000000000000 [-]
	 SCS Same-Spin Energy      =      -0.0021548297978182 [Eh]
	 SCS Opposite-Spin Energy  =      -0.0237861967531975 [Eh]
	 SCS Correlation Energy    =      -0.0259410265510157 [Eh]
	 SCS Total Energy          =    -161.7020345191993727 [Eh]
	-----------------------------------------------------------

*** Psi4 exiting successfully. Buy a developer a beer!
