                               Psi4 1.8.2 release

  ==> Input File <==

--------------------------------------------------------------------------
MEMORY 60 GB

molecule dimer {
1 1
Na         0.000000     0.000000     0.000000
O         -1.035469    -1.877733    -1.037852
H         -1.914073    -1.912738    -1.481150
H         -1.270202    -2.328220    -0.196405
O         -0.623731    -1.237449     2.063589
H          0.123574    -1.772288     1.889788
H         -0.388852    -0.873164     2.865156
O          0.653367     1.518737     1.808040
H          0.766860     2.445606     1.720125
H          0.812468     1.282621     2.725264
O          2.312222    -0.475036    -0.468273
H          2.269566    -1.391884    -0.857949
H          2.939618    -0.534606     0.294558
O         -0.258050     2.061129    -1.410113
H         -0.293113     2.841031    -0.763467
H          0.138236     2.436837    -2.226861

units ang
no_reorient
no_com
symmetry c1
}

set {
basis        aug-cc-pVTZ
scf_type     df
}

energy("mp2")
--------------------------------------------------------------------------

    Molecular point group: c1

    Geometry (in Angstrom), charge = 1, multiplicity = 1:

       Center              X                  Y                   Z               Mass
    ------------   -----------------  -----------------  -----------------  -----------------
         NA           0.000000000000     0.000000000000     0.000000000000    22.989769282000
         O           -1.035469000000    -1.877733000000    -1.037852000000    15.994914619570
         H           -1.914073000000    -1.912738000000    -1.481150000000     1.007825032230
         H           -1.270202000000    -2.328220000000    -0.196405000000     1.007825032230
         O           -0.623731000000    -1.237449000000     2.063589000000    15.994914619570
         H            0.123574000000    -1.772288000000     1.889788000000     1.007825032230
         H           -0.388852000000    -0.873164000000     2.865156000000     1.007825032230
         O            0.653367000000     1.518737000000     1.808040000000    15.994914619570
         H            0.766860000000     2.445606000000     1.720125000000     1.007825032230
         H            0.812468000000     1.282621000000     2.725264000000     1.007825032230
         O            2.312222000000    -0.475036000000    -0.468273000000    15.994914619570
         H            2.269566000000    -1.391884000000    -0.857949000000     1.007825032230
         H            2.939618000000    -0.534606000000     0.294558000000     1.007825032230
         O           -0.258050000000     2.061129000000    -1.410113000000    15.994914619570
         H           -0.293113000000     2.841031000000    -0.763467000000     1.007825032230
         H            0.138236000000     2.436837000000    -2.226861000000     1.007825032230

  Charge       = 1
  Multiplicity = 1
  Basis Set: AUG-CC-PVTZ
    Blend: AUG-CC-PVTZ
  Basis Set: (AUG-CC-PVTZ AUX)
    Blend: AUG-CC-PVTZ-JKFIT + DEF2-UNIVERSAL-JKFIT

    Orbital Energies [Eh]
    ---------------------

    Doubly Occupied:

       1A    -40.567963     2A    -20.732150     3A    -20.730564
       4A    -20.727807     5A    -20.727658     6A    -20.719212
       7A     -2.888826     8A     -1.613978     9A     -1.612931
      10A     -1.612866    11A     -1.547674    12A     -1.524181
      13A     -1.501478    14A     -1.492879    15A     -1.481208
      16A     -0.905564    17A     -0.896239    18A     -0.857164
      19A     -0.849342    20A     -0.843113    21A     -0.774852
      22A     -0.762623    23A     -0.754761    24A     -0.739075
      25A     -0.732742    26A     -0.690950    27A     -0.680197
      28A     -0.671108    29A     -0.668023    30A     -0.656449

  @DF-RHF Final Energy:  -542.07779530519770

   => Energetics <=

    Nuclear Repulsion Energy =            298.3776883806181672
    One-Electron Energy =               -1338.9838114311146455
    Two-Electron Energy =                 498.5283277452988386
    Total Energy =                       -542.0777953051976965
 Dipole X            :        -21.0462355           21.8656317            0.8193962
 Dipole Y            :         -0.0046968            0.2085861            0.2038893
 Dipole Z            :        -20.5296198           21.9438531            1.4142333
 Magnitude           :                                                    1.6471299
  Basis Set: (AUG-CC-PVTZ AUX)
    Blend: AUG-CC-PVTZ-RI + DEF2-QZVPP-RI
	 Reference Energy          =    -542.0777953051976965 [Eh]
	 Singles Energy            =      -0.0000000000000000 [Eh]
	 Same-Spin Energy          =      -0.3508400900041568 [Eh]
	 Opposite-Spin Energy      =      -1.0990313376006020 [Eh]
	 Correlation Energy        =      -1.4498714276047588 [Eh]
	 Total Energy              =    -543.5276667328024587 [Eh]

	 ================> DF-SCS-MP2 Energies <==================
	-----------------------------------------------------------
	 SCS Same-Spin Scale       =       0.3333333333333333 [-]
	 SCS Opposite-Spin Scale   =       1.2000000000000000 [-]
	 SCS Same-Spin Energy      =      -0.1169466966680523 [Eh]
	 SCS Opposite-Spin Energy  =      -1.3188376051207225 [Eh]
	 SCS Correlation Energy    =      -1.4357843017887748 [Eh]
	 SCS Total Energy          =    -543.5135796069864682 [Eh]
	-----------------------------------------------------------

*** Psi4 exiting successfully. Buy a developer a beer!
