                               Psi4 1.8.2 release

  ==> Input File <==

--------------------------------------------------------------------------
MEMORY 60 GB

molecule dimer {
1 1
Na         0.000000     0.000000     0.000000
O          0.750555     2.441534    -0.170757
H          0.148617     2.870969    -0.807058
H          0.358211     2.667139     0.740228
O          1.251321     0.152119     2.082513
H          1.280918    -0.781132     2.220682
H          0.570564     0.591799     2.711229
O         -0.302086    -0.400122    -2.302121
H         -0.982672    -0.980944    -2.721235
H          0.585698    -0.559537    -2.600255
O         -1.803909     0.577099     1.492035
H         -2.609777     1.083098     1.230541
H         -1.668404     0.630768     2.471206
O          0.447066    -2.192510    -0.124007
H          0.847688    -2.383423    -0.929975
H         -0.452703    -2.381137    -0.326958

units ang
no_reorient
no_com
symmetry c1
}

set {
basis        aug-cc-pVTZ
scf_type     df
}

energy("mp2")
--------------------------------------------------------------------------

    Molecular point group: c1

    Geometry (in Angstrom), charge = 1, multiplicity = 1:

       Center              X                  Y                   Z               Mass
    ------------   -----------------  -----------------  -----------------  -----------------
         NA           0.000000000000     0.000000000000     0.000000000000    22.989769282000
         O            0.750555000000     2.441534000000    -0.170757000000    15.994914619570
         H            0.148617000000     2.870969000000    -0.807058000000     1.007825032230
         H            0.358211000000     2.667139000000     0.740228000000     1.007825032230
         O            1.251321000000     0.152119000000     2.082513000000    15.994914619570
         H            1.280918000000    -0.781132000000     2.220682000000     1.007825032230
         H            0.570564000000     0.591799000000     2.711229000000     1.007825032230
         O           -0.302086000000    -0.400122000000    -2.302121000000    15.994914619570
         H           -0.982672000000    -0.980944000000    -2.721235000000     1.007825032230
         H            0.585698000000    -0.559537000000    -2.600255000000     1.007825032230
         O           -1.803909000000     0.577099000000     1.492035000000    15.994914619570
         H           -2.609777000000     1.083098000000     1.230541000000     1.007825032230
         H           -1.668404000000     0.630768000000     2.471206000000     1.007825032230
         O            0.447066000000    -2.192510000000    -0.124007000000    15.994914619570
         H            0.847688000000    -2.383423000000    -0.929975000000     1.007825032230
         H           -0.452703000000    -2.381137000000    -0.326958000000     1.007825032230

  Charge       = 1
  Multiplicity = 1
  Basis Set: AUG-CC-PVTZ
    Blend: AUG-CC-PVTZ
  Basis Set: (AUG-CC-PVTZ AUX)
    Blend: AUG-CC-PVTZ-JKFIT + DEF2-UNIVERSAL-JKFIT

    Orbital Energies [Eh]
    ---------------------

    Doubly Occupied:

       1A    -40.567415     2A    -20.748488     3A    -20.740737
       4A    -20.734749     5A    -20.720592     6A    -20.716475
       7A     -2.890965     8A     -1.617637     9A     -1.615720
      10A     -1.615171    11A     -1.546792    12A     -1.521722
      13A     -1.516540    14A     -1.492593    15A     -1.479307
      16A     -0.909554    17A     -0.898701    18A     -0.894516
      19A     -0.867967    20A     -0.839509    21A     -0.780224
      22A     -0.763091    23A     -0.754126    24A     -0.727629
      25A     -0.719823    26A     -0.712284    27A     -0.691639
      28A     -0.674961    29A     -0.665028    30A     -0.654173

  @DF-RHF Final Energy:  -542.05911852402176

   => Energetics <=

    Nuclear Repulsion Energy =            304.6653856635789452
    One-Electron Energy =               -1351.2927404644988201
    Two-Electron Energy =                 504.5682362768980624
    Total Energy =                       -542.0591185240218692
 Dipole X            :         -3.2980272            1.5528182           -1.7452090
 Dipole Y            :        -10.4752666           10.1715643           -0.3037024
 Dipole Z            :        -18.5646661           18.5376634           -0.0270027
 Magnitude           :                                                    1.7716430
  Basis Set: (AUG-CC-PVTZ AUX)
    Blend: AUG-CC-PVTZ-RI + DEF2-QZVPP-RI
	 Reference Energy          =    -542.0591185240217555 [Eh]
	 Singles Energy            =      -0.0000000000000000 [Eh]
	 Same-Spin Energy          =      -0.3519735020130704 [Eh]
	 Opposite-Spin Energy      =      -1.1011728532670282 [Eh]
	 Correlation Energy        =      -1.4531463552800985 [Eh]
	 Total Energy              =    -543.5122648793018243 [Eh]

	 ================> DF-SCS-MP2 Energies <==================
	-----------------------------------------------------------
	 SCS Same-Spin Scale       =       0.3333333333333333 [-]
	 SCS Opposite-Spin Scale   =       1.2000000000000000 [-]
	 SCS Same-Spin Energy      =      -0.1173245006710235 [Eh]
	 SCS Opposite-Spin Energy  =      -1.3214074239204339 [Eh]
	 SCS Correlation Energy    =      -1.4387319245914574 [Eh]
	 SCS Total Energy          =    -543.4978504486132351 [Eh]
	-----------------------------------------------------------

*** Psi4 exiting successfully. Buy a developer a beer!
