                               Psi4 1.8.2 release

  ==> Input File <==

--------------------------------------------------------------------------
MEMORY 60 GB

molecule dimer {
1 1
Na         0.000000     0.000000     0.000000
O          1.436661     1.902962    -0.211771
H          2.350805     1.847534     0.091780
H          1.026974     2.533356     0.386801
O         -1.323065    -1.521620    -1.098658
H         -2.179765    -1.636529    -1.427199
H         -0.814186    -2.298524    -1.350965
O         -1.869489     1.230228     0.654969
H         -2.527117     1.848262     0.238872
H         -2.357574     0.443019     0.966796
O          0.132845    -0.887295     1.960114
H         -0.489936    -1.193447     2.627722
H          0.980462    -1.159278     2.361285
O          1.844118    -1.561191    -0.276992
H          2.698911    -1.163388     0.115895
H          1.690859    -2.432842     0.069830

units ang
no_reorient
no_com
symmetry c1
}

set {
basis        aug-cc-pVTZ
scf_type     df
}

energy("mp2")
--------------------------------------------------------------------------

    Molecular point group: c1

    Geometry (in Angstrom), charge = 1, multiplicity = 1:

       Center              X                  Y                   Z               Mass
    ------------   -----------------  -----------------  -----------------  -----------------
         NA           0.000000000000     0.000000000000     0.000000000000    22.989769282000
         O            1.436661000000     1.902962000000    -0.211771000000    15.994914619570
         H            2.350805000000     1.847534000000     0.091780000000     1.007825032230
         H            1.026974000000     2.533356000000     0.386801000000     1.007825032230
         O           -1.323065000000    -1.521620000000    -1.098658000000    15.994914619570
         H           -2.179765000000    -1.636529000000    -1.427199000000     1.007825032230
         H           -0.814186000000    -2.298524000000    -1.350965000000     1.007825032230
         O           -1.869489000000     1.230228000000     0.654969000000    15.994914619570
         H           -2.527117000000     1.848262000000     0.238872000000     1.007825032230
         H           -2.357574000000     0.443019000000     0.966796000000     1.007825032230
         O            0.132845000000    -0.887295000000     1.960114000000    15.994914619570
         H           -0.489936000000    -1.193447000000     2.627722000000     1.007825032230
         H            0.980462000000    -1.159278000000     2.361285000000     1.007825032230
         O            1.844118000000    -1.561191000000    -0.276992000000    15.994914619570
         H            2.698911000000    -1.163388000000     0.115895000000     1.007825032230
         H            1.690859000000    -2.432842000000     0.069830000000     1.007825032230

  Charge       = 1
  Multiplicity = 1
  Basis Set: AUG-CC-PVTZ
    Blend: AUG-CC-PVTZ
  Basis Set: (AUG-CC-PVTZ AUX)
    Blend: AUG-CC-PVTZ-JKFIT + DEF2-UNIVERSAL-JKFIT

    Orbital Energies [Eh]
    ---------------------

    Doubly Occupied:

       1A    -40.536606     2A    -20.735194     3A    -20.725286
       4A    -20.722112     5A    -20.719054     6A    -20.716421
       7A     -2.861951     8A     -1.589491     9A     -1.587516
      10A     -1.586991    11A     -1.519647    12A     -1.517024
      13A     -1.501570    14A     -1.496591    15A     -1.492640
      16A     -0.890159    17A     -0.875906    18A     -0.872947
      19A     -0.863983    20A     -0.862181    21A     -0.778860
      22A     -0.755410    23A     -0.742754    24A     -0.736675
      25A     -0.732970    26A     -0.689132    27A     -0.671272
      28A     -0.667342    29A     -0.665194    30A     -0.660890

  @DF-RHF Final Energy:  -542.08628152174151

   => Energetics <=

    Nuclear Repulsion Energy =            310.2816849256566911
    One-Electron Energy =               -1363.1883934501679505
    Two-Electron Energy =                 510.8204270027698044
    Total Energy =                       -542.0862815217415118
 Dipole X            :         -4.1423049            4.0591185           -0.0831864
 Dipole Y            :         17.6117968          -18.7218285           -1.1100318
 Dipole Z            :        -21.8202833           23.2476243            1.4273410
 Magnitude           :                                                    1.8100809
  Basis Set: (AUG-CC-PVTZ AUX)
    Blend: AUG-CC-PVTZ-RI + DEF2-QZVPP-RI
	 Reference Energy          =    -542.0862815217415118 [Eh]
	 Singles Energy            =      -0.0000000000000000 [Eh]
	 Same-Spin Energy          =      -0.3519621741932244 [Eh]
	 Opposite-Spin Energy      =      -1.1006120422279255 [Eh]
	 Correlation Energy        =      -1.4525742164211499 [Eh]
	 Total Energy              =    -543.5388557381626242 [Eh]

	 ================> DF-SCS-MP2 Energies <==================
	-----------------------------------------------------------
	 SCS Same-Spin Scale       =       0.3333333333333333 [-]
	 SCS Opposite-Spin Scale   =       1.2000000000000000 [-]
	 SCS Same-Spin Energy      =      -0.1173207247310748 [Eh]
	 SCS Opposite-Spin Energy  =      -1.3207344506735106 [Eh]
	 SCS Correlation Energy    =      -1.4380551754045854 [Eh]
	 SCS Total Energy          =    -543.5243366971460546 [Eh]
	-----------------------------------------------------------

*** Psi4 exiting successfully. Buy a developer a beer!
