                               Psi4 1.8.2 release

  ==> Input File <==

--------------------------------------------------------------------------
MEMORY 60 GB

molecule dimer {
1 1
Na         0.000000     0.000000     0.000000
Gh(O)     -0.332121    -2.281891     0.576606
Gh(H)     -1.173755    -2.765721     0.225709
Gh(H)      0.345779    -2.960927     0.521459
Gh(O)      2.135977     0.253593     1.268585
Gh(H)      2.395913    -0.668918     1.468574
Gh(H)      2.696168     0.571416     0.528307
Gh(O)     -2.315517     0.356728    -0.409186
Gh(H)     -3.138798    -0.072402    -0.267720
Gh(H)     -2.580394     1.283071    -0.200079
Gh(O)      0.868281    -0.723066    -1.877874
Gh(H)      0.164617    -1.195673    -2.317550
Gh(H)      1.489308    -1.410794    -1.674628

units ang
no_reorient
no_com
symmetry c1
}

set {
basis        aug-cc-pVTZ
scf_type     df
}

energy("mp2")
--------------------------------------------------------------------------

    Molecular point group: c1

    Geometry (in Angstrom), charge = 1, multiplicity = 1:

       Center              X                  Y                   Z               Mass
    ------------   -----------------  -----------------  -----------------  -----------------
         NA           0.000000000000     0.000000000000     0.000000000000    22.989769282000
      Gh(O)          -0.332121000000    -2.281891000000     0.576606000000    15.994914619570
      Gh(H)          -1.173755000000    -2.765721000000     0.225709000000     1.007825032230
      Gh(H)           0.345779000000    -2.960927000000     0.521459000000     1.007825032230
      Gh(O)           2.135977000000     0.253593000000     1.268585000000    15.994914619570
      Gh(H)           2.395913000000    -0.668918000000     1.468574000000     1.007825032230
      Gh(H)           2.696168000000     0.571416000000     0.528307000000     1.007825032230
      Gh(O)          -2.315517000000     0.356728000000    -0.409186000000    15.994914619570
      Gh(H)          -3.138798000000    -0.072402000000    -0.267720000000     1.007825032230
      Gh(H)          -2.580394000000     1.283071000000    -0.200079000000     1.007825032230
      Gh(O)           0.868281000000    -0.723066000000    -1.877874000000    15.994914619570
      Gh(H)           0.164617000000    -1.195673000000    -2.317550000000     1.007825032230
      Gh(H)           1.489308000000    -1.410794000000    -1.674628000000     1.007825032230

  Charge       = 1
  Multiplicity = 1
  Basis Set: AUG-CC-PVTZ
    Blend: AUG-CC-PVTZ
  Basis Set: (AUG-CC-PVTZ AUX)
    Blend: AUG-CC-PVTZ-JKFIT + DEF2-UNIVERSAL-JKFIT

    Orbital Energies [Eh]
    ---------------------

    Doubly Occupied:

       1A    -40.760506     2A     -3.073845     3A     -1.797208
       4A     -1.797183     5A     -1.797145

  @DF-RHF Final Energy:  -161.67608624159226

   => Energetics <=

    Nuclear Repulsion Energy =              0.0000000000000000
    One-Electron Energy =                -224.9003962993898540
    Two-Electron Energy =                  63.2243100577975952
    Total Energy =                       -161.6760862415922588
 Dipole X            :          0.0000294            0.0000000            0.0000294
 Dipole Y            :         -0.0000902            0.0000000           -0.0000902
 Dipole Z            :         -0.0000053            0.0000000           -0.0000053
 Magnitude           :                                                    0.0000950
  Basis Set: (AUG-CC-PVTZ AUX)
    Blend: AUG-CC-PVTZ-RI + DEF2-QZVPP-RI
	 Reference Energy          =    -161.6760862415922588 [Eh]
	 Singles Energy            =      -0.0000000000000000 [Eh]
	 Same-Spin Energy          =      -0.0055297136558907 [Eh]
	 Opposite-Spin Energy      =      -0.0172949991694504 [Eh]
	 Correlation Energy        =      -0.0228247128253410 [Eh]
	 Total Energy              =    -161.6989109544176131 [Eh]

	 ================> DF-SCS-MP2 Energies <==================
	-----------------------------------------------------------
	 SCS Same-Spin Scale       =       0.3333333333333333 [-]
	 SCS Opposite-Spin Scale   =       1.2000000000000000 [-]
	 SCS Same-Spin Energy      =      -0.0018432378852969 [Eh]
	 SCS Opposite-Spin Energy  =      -0.0207539990033404 [Eh]
	 SCS Correlation Energy    =      -0.0225972368886373 [Eh]
	 SCS Total Energy          =    -161.6986834784808877 [Eh]
	-----------------------------------------------------------

*** Psi4 exiting successfully. Buy a developer a beer!
