                               Psi4 1.8.2 release

  ==> Input File <==

--------------------------------------------------------------------------
MEMORY 60 GB

molecule dimer {
0 1
Gh(Na)     0.000000     0.000000     0.000000
Gh(O)      0.766127     0.515039     1.981709
Gh(H)      1.319922    -0.208424     2.371871
Gh(H)      0.227460     0.853158     2.684082
Gh(O)      1.024406     2.176228    -1.057194
Gh(H)      1.536833     2.576739    -0.331655
Gh(H)      0.165288     2.624778    -1.158303
Gh(O)     -0.492044    -0.696903    -2.430464
Gh(H)      0.340264    -0.313786    -2.821962
Gh(H)     -0.852891    -1.398862    -2.972918
O         -2.210786     0.705829     0.674056
H         -2.694782     0.461413     1.505258
H         -2.606634     1.473977     0.320053

units ang
no_reorient
no_com
symmetry c1
}

set {
basis        aug-cc-pVTZ
scf_type     df
}

energy("mp2")
--------------------------------------------------------------------------

    Molecular point group: c1

    Geometry (in Angstrom), charge = 0, multiplicity = 1:

       Center              X                  Y                   Z               Mass
    ------------   -----------------  -----------------  -----------------  -----------------
      Gh(NA)          0.000000000000     0.000000000000     0.000000000000    22.989769282000
      Gh(O)           0.766127000000     0.515039000000     1.981709000000    15.994914619570
      Gh(H)           1.319922000000    -0.208424000000     2.371871000000     1.007825032230
      Gh(H)           0.227460000000     0.853158000000     2.684082000000     1.007825032230
      Gh(O)           1.024406000000     2.176228000000    -1.057194000000    15.994914619570
      Gh(H)           1.536833000000     2.576739000000    -0.331655000000     1.007825032230
      Gh(H)           0.165288000000     2.624778000000    -1.158303000000     1.007825032230
      Gh(O)          -0.492044000000    -0.696903000000    -2.430464000000    15.994914619570
      Gh(H)           0.340264000000    -0.313786000000    -2.821962000000     1.007825032230
      Gh(H)          -0.852891000000    -1.398862000000    -2.972918000000     1.007825032230
         O           -2.210786000000     0.705829000000     0.674056000000    15.994914619570
         H           -2.694782000000     0.461413000000     1.505258000000     1.007825032230
         H           -2.606634000000     1.473977000000     0.320053000000     1.007825032230

  Charge       = 0
  Multiplicity = 1
  Basis Set: AUG-CC-PVTZ
    Blend: AUG-CC-PVTZ
  Basis Set: (AUG-CC-PVTZ AUX)
    Blend: AUG-CC-PVTZ-JKFIT + DEF2-UNIVERSAL-JKFIT

    Orbital Energies [Eh]
    ---------------------

    Doubly Occupied:

       1A    -20.566185     2A     -1.348678     3A     -0.721787
       4A     -0.576213     5A     -0.508760

  @DF-RHF Final Energy:   -76.05841802552449

   => Energetics <=

    Nuclear Repulsion Energy =              9.1380215305529262
    One-Electron Energy =                -122.9496296024124717
    Two-Electron Energy =                  37.7531900463350638
    Total Energy =                        -76.0584180255244888
 Dipole X            :         42.8509964          -43.4404648           -0.5894684
 Dipole Y            :        -13.9710052           14.3279451            0.3569399
 Dipole Z            :        -13.3265410           13.6395877            0.3130468
 Magnitude           :                                                    0.7568866
  Basis Set: (AUG-CC-PVTZ AUX)
    Blend: AUG-CC-PVTZ-RI + DEF2-QZVPP-RI
	 Reference Energy          =     -76.0584180255244888 [Eh]
	 Singles Energy            =      -0.0000000000000000 [Eh]
	 Same-Spin Energy          =      -0.0684245998244676 [Eh]
	 Opposite-Spin Energy      =      -0.2157870785374477 [Eh]
	 Correlation Energy        =      -0.2842116783619153 [Eh]
	 Total Energy              =     -76.3426297038864021 [Eh]

	 ================> DF-SCS-MP2 Energies <==================
	-----------------------------------------------------------
	 SCS Same-Spin Scale       =       0.3333333333333333 [-]
	 SCS Opposite-Spin Scale   =       1.2000000000000000 [-]
	 SCS Same-Spin Energy      =      -0.0228081999414892 [Eh]
	 SCS Opposite-Spin Energy  =      -0.2589444942449373 [Eh]
	 SCS Correlation Energy    =      -0.2817526941864265 [Eh]
	 SCS Total Energy          =     -76.3401707197109118 [Eh]
	-----------------------------------------------------------

*** Psi4 exiting successfully. Buy a developer a beer!
