                               Psi4 1.8.2 release

  ==> Input File <==

--------------------------------------------------------------------------
MEMORY 60 GB

molecule dimer {
0 1
Gh(Na)     0.000000     0.000000     0.000000
Gh(O)      0.659986    -2.040507     0.606036
Gh(H)      0.158925    -2.823573     0.524427
Gh(H)      1.510866    -2.288362     0.337845
O          2.115452     0.634802     0.818018
H          2.351575     1.571131     0.886082
H          2.064804     0.316408     1.680790
Gh(O)     -2.136022     0.705726    -0.204914
Gh(H)     -2.636726     0.821809    -1.022408
Gh(H)     -2.660104     0.011381     0.299743

units ang
no_reorient
no_com
symmetry c1
}

set {
basis        aug-cc-pVTZ
scf_type     df
}

energy("mp2")
--------------------------------------------------------------------------

    Molecular point group: c1

    Geometry (in Angstrom), charge = 0, multiplicity = 1:

       Center              X                  Y                   Z               Mass
    ------------   -----------------  -----------------  -----------------  -----------------
      Gh(NA)          0.000000000000     0.000000000000     0.000000000000    22.989769282000
      Gh(O)           0.659986000000    -2.040507000000     0.606036000000    15.994914619570
      Gh(H)           0.158925000000    -2.823573000000     0.524427000000     1.007825032230
      Gh(H)           1.510866000000    -2.288362000000     0.337845000000     1.007825032230
         O            2.115452000000     0.634802000000     0.818018000000    15.994914619570
         H            2.351575000000     1.571131000000     0.886082000000     1.007825032230
         H            2.064804000000     0.316408000000     1.680790000000     1.007825032230
      Gh(O)          -2.136022000000     0.705726000000    -0.204914000000    15.994914619570
      Gh(H)          -2.636726000000     0.821809000000    -1.022408000000     1.007825032230
      Gh(H)          -2.660104000000     0.011381000000     0.299743000000     1.007825032230

  Charge       = 0
  Multiplicity = 1
  Basis Set: AUG-CC-PVTZ
    Blend: AUG-CC-PVTZ
  Basis Set: (AUG-CC-PVTZ AUX)
    Blend: AUG-CC-PVTZ-JKFIT + DEF2-UNIVERSAL-JKFIT

    Orbital Energies [Eh]
    ---------------------

    Doubly Occupied:

       1A    -20.563783     2A     -1.359361     3A     -0.728595
       4A     -0.583448     5A     -0.510919

  @DF-RHF Final Energy:   -76.06006887225664

   => Energetics <=

    Nuclear Repulsion Energy =              9.3193669558139600
    One-Electron Energy =                -123.2666561993318481
    Two-Electron Energy =                  37.8872203712612503
    Total Energy =                        -76.0600688722566360
 Dipole X            :        -40.2028845           40.3267461            0.1238616
 Dipole Y            :        -12.7535917           13.1637472            0.4101555
 Dipole Z            :        -16.5856202           17.2173250            0.6317048
 Magnitude           :                                                    0.7632956
  Basis Set: (AUG-CC-PVTZ AUX)
    Blend: AUG-CC-PVTZ-RI + DEF2-QZVPP-RI
	 Reference Energy          =     -76.0600688722566360 [Eh]
	 Singles Energy            =      -0.0000000000000000 [Eh]
	 Same-Spin Energy          =      -0.0681397587228022 [Eh]
	 Opposite-Spin Energy      =      -0.2149408438006546 [Eh]
	 Correlation Energy        =      -0.2830806025234568 [Eh]
	 Total Energy              =     -76.3431494747800912 [Eh]

	 ================> DF-SCS-MP2 Energies <==================
	-----------------------------------------------------------
	 SCS Same-Spin Scale       =       0.3333333333333333 [-]
	 SCS Opposite-Spin Scale   =       1.2000000000000000 [-]
	 SCS Same-Spin Energy      =      -0.0227132529076007 [Eh]
	 SCS Opposite-Spin Energy  =      -0.2579290125607855 [Eh]
	 SCS Correlation Energy    =      -0.2806422654683862 [Eh]
	 SCS Total Energy          =     -76.3407111377250231 [Eh]
	-----------------------------------------------------------

*** Psi4 exiting successfully. Buy a developer a beer!
