                               Psi4 1.8.2 release

  ==> Input File <==

--------------------------------------------------------------------------
MEMORY 60 GB

molecule dimer {
0 1
Gh(Na)     0.000000     0.000000     0.000000
Gh(O)      0.056153    -1.593017    -1.588907
Gh(H)     -0.422819    -1.289136    -2.393865
Gh(H)     -0.138369    -2.503753    -1.378373
O          1.408983    -1.281787     1.277252
H          0.964298    -1.922010     1.792464
H          1.991702    -0.868205     1.920136
Gh(O)     -1.809137     1.083746    -1.258510
Gh(H)     -1.679558     1.887221    -1.716686
Gh(H)     -2.630287     1.152332    -0.772428
Gh(O)      1.718985     1.693094    -0.096897
Gh(H)      2.245607     1.434703     0.635177
Gh(H)      1.263609     2.472586     0.090106
Gh(O)     -1.030025     1.048290     2.059206
Gh(H)     -0.379602     1.376428     2.604273
Gh(H)     -1.526575     0.492561     2.662498

units ang
no_reorient
no_com
symmetry c1
}

set {
basis        aug-cc-pVTZ
scf_type     df
}

energy("mp2")
--------------------------------------------------------------------------

    Molecular point group: c1

    Geometry (in Angstrom), charge = 0, multiplicity = 1:

       Center              X                  Y                   Z               Mass
    ------------   -----------------  -----------------  -----------------  -----------------
      Gh(NA)          0.000000000000     0.000000000000     0.000000000000    22.989769282000
      Gh(O)           0.056153000000    -1.593017000000    -1.588907000000    15.994914619570
      Gh(H)          -0.422819000000    -1.289136000000    -2.393865000000     1.007825032230
      Gh(H)          -0.138369000000    -2.503753000000    -1.378373000000     1.007825032230
         O            1.408983000000    -1.281787000000     1.277252000000    15.994914619570
         H            0.964298000000    -1.922010000000     1.792464000000     1.007825032230
         H            1.991702000000    -0.868205000000     1.920136000000     1.007825032230
      Gh(O)          -1.809137000000     1.083746000000    -1.258510000000    15.994914619570
      Gh(H)          -1.679558000000     1.887221000000    -1.716686000000     1.007825032230
      Gh(H)          -2.630287000000     1.152332000000    -0.772428000000     1.007825032230
      Gh(O)           1.718985000000     1.693094000000    -0.096897000000    15.994914619570
      Gh(H)           2.245607000000     1.434703000000     0.635177000000     1.007825032230
      Gh(H)           1.263609000000     2.472586000000     0.090106000000     1.007825032230
      Gh(O)          -1.030025000000     1.048290000000     2.059206000000    15.994914619570
      Gh(H)          -0.379602000000     1.376428000000     2.604273000000     1.007825032230
      Gh(H)          -1.526575000000     0.492561000000     2.662498000000     1.007825032230

  Charge       = 0
  Multiplicity = 1
  Basis Set: AUG-CC-PVTZ
    Blend: AUG-CC-PVTZ
  Basis Set: (AUG-CC-PVTZ AUX)
    Blend: AUG-CC-PVTZ-JKFIT + DEF2-UNIVERSAL-JKFIT

    Orbital Energies [Eh]
    ---------------------

    Doubly Occupied:

       1A    -20.566124     2A     -1.360186     3A     -0.718725
       4A     -0.590780     5A     -0.511737

  @DF-RHF Final Energy:   -76.06049336324003

   => Energetics <=

    Nuclear Repulsion Energy =              9.2932044022117797
    One-Electron Energy =                -123.2122895511962923
    Two-Electron Energy =                  37.8585917857444869
    Total Energy =                        -76.0604933632400275
 Dipole X            :        -26.7982620           26.8867663            0.0885043
 Dipole Y            :         24.4962124          -24.6505532           -0.1543408
 Dipole Z            :        -25.5555269           26.3250490            0.7695221
 Magnitude           :                                                    0.7898217
  Basis Set: (AUG-CC-PVTZ AUX)
    Blend: AUG-CC-PVTZ-RI + DEF2-QZVPP-RI
	 Reference Energy          =     -76.0604933632400275 [Eh]
	 Singles Energy            =      -0.0000000000000000 [Eh]
	 Same-Spin Energy          =      -0.0682949994400407 [Eh]
	 Opposite-Spin Energy      =      -0.2155309717858024 [Eh]
	 Correlation Energy        =      -0.2838259712258431 [Eh]
	 Total Energy              =     -76.3443193344658653 [Eh]

	 ================> DF-SCS-MP2 Energies <==================
	-----------------------------------------------------------
	 SCS Same-Spin Scale       =       0.3333333333333333 [-]
	 SCS Opposite-Spin Scale   =       1.2000000000000000 [-]
	 SCS Same-Spin Energy      =      -0.0227649998133469 [Eh]
	 SCS Opposite-Spin Energy  =      -0.2586371661429629 [Eh]
	 SCS Correlation Energy    =      -0.2814021659563098 [Eh]
	 SCS Total Energy          =     -76.3418955291963357 [Eh]
	-----------------------------------------------------------

*** Psi4 exiting successfully. Buy a developer a beer!
