                               Psi4 1.9 release

  ==> Input File <==

--------------------------------------------------------------------------
MEMORY 60 GB

molecule dimer {
1 1
Na     0.000000     0.000000     0.000000
--
0 1
O      0.209842    -0.922257     1.980819
H     -0.293424    -1.759493     2.013630
H      1.137281    -1.096220     2.303432
O     -0.913097     1.589898    -1.328350
H     -0.417774     2.414856    -1.349717
H     -1.803269     1.800960    -0.984765

units ang
no_reorient
no_com
symmetry c1
}

set {
basis        aug-cc-pVTZ
scf_type     df
}

energy("mp2", bsse_type="cp")
--------------------------------------------------------------------------

                               Psi4 1.9 release
    Molecular point group: c1
  Charge       = 0
  Multiplicity = 1
  Basis Set: AUG-CC-PVTZ
    Blend: AUG-CC-PVTZ
  Basis Set: (AUG-CC-PVTZ AUX)
    Blend: AUG-CC-PVTZ-JKFIT + DEF2-UNIVERSAL-JKFIT
  @DF-RHF Final Energy:  -152.11482789341548
    Total Energy =                       -152.1148278934154803
 Dipole X            :         13.2556632          -13.2341791            0.0214840
 Dipole Y            :        -12.6485818           12.6634913            0.0149095
 Dipole Z            :        -13.1620525           13.6104349            0.4483825
 Magnitude           :                                                    0.4491444
  Basis Set: (AUG-CC-PVTZ AUX)
    Blend: AUG-CC-PVTZ-RI + DEF2-QZVPP-RI
	 Reference Energy          =    -152.1148278934154803 [Eh]
	 Singles Energy            =      -0.0000000000000000 [Eh]
	 Same-Spin Energy          =      -0.1375065968976388 [Eh]
	 Opposite-Spin Energy      =      -0.4334172550357162 [Eh]
	 Correlation Energy        =      -0.5709238519333550 [Eh]
	 Total Energy              =    -152.6857517453488242 [Eh]
	 SCS Total Energy          =    -152.6807641317575417 [Eh]
                               Psi4 1.9 release
    Molecular point group: c1
  Multiplicity = 1
  Basis Set: AUG-CC-PVTZ
    Blend: AUG-CC-PVTZ
  Basis Set: (AUG-CC-PVTZ AUX)
    Blend: AUG-CC-PVTZ-JKFIT + DEF2-UNIVERSAL-JKFIT
  @DF-RHF Final Energy:  -161.67606067080260
    Total Energy =                       -161.6760606708025989
  Basis Set: (AUG-CC-PVTZ AUX)
	 Singles Energy            =      -0.0000000000000000 [Eh]
	 Same-Spin Energy          =      -0.0037952010156343 [Eh]
	 Opposite-Spin Energy      =      -0.0130589440462911 [Eh]
	 Correlation Energy        =      -0.0168541450619254 [Eh]
	 Total Energy              =    -161.6929148158645262 [Eh]
	 SCS Total Energy          =    -161.6929964706633598 [Eh]
                               Psi4 1.9 release
    Molecular point group: c1

    Geometry (in Bohr), charge = 1, multiplicity = 1:

       Center              X                  Y                   Z               Mass
    ------------   -----------------  -----------------  -----------------  -----------------
         NA           0.000000000000     0.000000000000     0.000000000000    22.989769282000
         O            0.396543909618    -1.742813147286     3.743205414103    15.994914619570
         H           -0.554490998636    -3.324959889660     3.805209218006     1.007825032230
         H            2.149149617687    -2.071555573249     4.352855628616     1.007825032230
         O           -1.725503255977     3.004471787413    -2.510217698752    15.994914619570
         H           -0.789478442337     4.563416472419    -2.550595476875     1.007825032230
         H           -3.407684540528     3.403321162905    -1.860936147936     1.007825032230

  Charge       = 1
  Multiplicity = 1
  Basis Set: AUG-CC-PVTZ
    Blend: AUG-CC-PVTZ
  Basis Set: (AUG-CC-PVTZ AUX)
    Blend: AUG-CC-PVTZ-JKFIT + DEF2-UNIVERSAL-JKFIT

    Orbital Energies [Eh]
    ---------------------

    Doubly Occupied:

       1A    -40.646506     2A    -20.771378     3A    -20.763688
       4A     -2.968295     5A     -1.692942     6A     -1.692644
       7A     -1.692099     8A     -1.545128     9A     -1.541830
      10A     -0.912942    11A     -0.912681    12A     -0.791049
      13A     -0.786752    14A     -0.718636    15A     -0.713283

  @DF-RHF Final Energy:  -313.85495441950616

   => Energetics <=

    Nuclear Repulsion Energy =             80.0654838322139852
    One-Electron Energy =                -591.5411686913223548
    Two-Electron Energy =                 197.6207304396021982
    Total Energy =                       -313.8549544195061571
 Dipole X            :         13.1756372          -13.2341791           -0.0585420
 Dipole Y            :        -12.5698035           12.6634913            0.0936878
 Dipole Z            :        -13.0376803           13.6104349            0.5727546
 Magnitude           :                                                    0.5833116
  Basis Set: (AUG-CC-PVTZ AUX)
    Blend: AUG-CC-PVTZ-RI + DEF2-QZVPP-RI
	 Reference Energy          =    -313.8549544195061571 [Eh]
	 Singles Energy            =      -0.0000000000000000 [Eh]
	 Same-Spin Energy          =      -0.1407231973403871 [Eh]
	 Opposite-Spin Energy      =      -0.4433270793193563 [Eh]
	 Correlation Energy        =      -0.5840502766597434 [Eh]
	 Total Energy              =    -314.4390046961659095 [Eh]

	 ================> DF-SCS-MP2 Energies <==================
	-----------------------------------------------------------
	 SCS Same-Spin Scale       =       0.3333333333333333 [-]
	 SCS Opposite-Spin Scale   =       1.2000000000000000 [-]
	 SCS Same-Spin Energy      =      -0.0469077324467957 [Eh]
	 SCS Opposite-Spin Energy  =      -0.5319924951832276 [Eh]
	 SCS Correlation Energy    =      -0.5789002276300232 [Eh]
	 SCS Total Energy          =    -314.4338546471361724 [Eh]
	-----------------------------------------------------------

*** Psi4 exiting successfully. Buy a developer a beer!
