                               Psi4 1.8.2 release

  ==> Input File <==

--------------------------------------------------------------------------
MEMORY 60 GB

molecule dimer {
0 1
Gh(Na)     0.000000     0.000000     0.000000
O         -0.835240     0.473484     2.119495
H         -0.454693     1.245275     2.586267
H         -1.132360    -0.183285     2.785897
Gh(O)      0.033539    -2.290098    -0.664363
Gh(H)     -0.004054    -2.576443     0.261397
Gh(H)      0.855844    -2.546782    -1.166561
Gh(O)      1.583864     1.928752    -0.019939
Gh(H)      1.499354     1.829133    -1.014737
Gh(H)      1.387146     2.888641     0.263931

units ang
no_reorient
no_com
symmetry c1
}

set {
basis        aug-cc-pVTZ
scf_type     df
}

energy("mp2")
--------------------------------------------------------------------------

    Molecular point group: c1

    Geometry (in Angstrom), charge = 0, multiplicity = 1:

       Center              X                  Y                   Z               Mass
    ------------   -----------------  -----------------  -----------------  -----------------
      Gh(NA)          0.000000000000     0.000000000000     0.000000000000    22.989769282000
         O           -0.835240000000     0.473484000000     2.119495000000    15.994914619570
         H           -0.454693000000     1.245275000000     2.586267000000     1.007825032230
         H           -1.132360000000    -0.183285000000     2.785897000000     1.007825032230
      Gh(O)           0.033539000000    -2.290098000000    -0.664363000000    15.994914619570
      Gh(H)          -0.004054000000    -2.576443000000     0.261397000000     1.007825032230
      Gh(H)           0.855844000000    -2.546782000000    -1.166561000000     1.007825032230
      Gh(O)           1.583864000000     1.928752000000    -0.019939000000    15.994914619570
      Gh(H)           1.499354000000     1.829133000000    -1.014737000000     1.007825032230
      Gh(H)           1.387146000000     2.888641000000     0.263931000000     1.007825032230

  Charge       = 0
  Multiplicity = 1
  Basis Set: AUG-CC-PVTZ
    Blend: AUG-CC-PVTZ
  Basis Set: (AUG-CC-PVTZ AUX)
    Blend: AUG-CC-PVTZ-JKFIT + DEF2-UNIVERSAL-JKFIT

    Orbital Energies [Eh]
    ---------------------

    Doubly Occupied:

       1A    -20.569067     2A     -1.339042     3A     -0.712896
       4A     -0.572308     5A     -0.507131

  @DF-RHF Final Energy:   -76.05781845793386

   => Energetics <=

    Nuclear Repulsion Energy =              8.9688402626419688
    One-Electron Energy =                -122.6524246069633790
    Two-Electron Energy =                  37.6257658863875548
    Total Energy =                        -76.0578184579338625
 Dipole X            :         15.6814701          -15.6260943            0.0553758
 Dipole Y            :         -9.0880461            9.1649109            0.0768648
 Dipole Z            :        -41.4416567           42.1940393            0.7523826
 Magnitude           :                                                    0.7583233
  Basis Set: (AUG-CC-PVTZ AUX)
    Blend: AUG-CC-PVTZ-RI + DEF2-QZVPP-RI
	 Reference Energy          =     -76.0578184579338625 [Eh]
	 Singles Energy            =      -0.0000000000000000 [Eh]
	 Same-Spin Energy          =      -0.0687231337628161 [Eh]
	 Opposite-Spin Energy      =      -0.2166310293216787 [Eh]
	 Correlation Energy        =      -0.2853541630844948 [Eh]
	 Total Energy              =     -76.3431726210183541 [Eh]

	 ================> DF-SCS-MP2 Energies <==================
	-----------------------------------------------------------
	 SCS Same-Spin Scale       =       0.3333333333333333 [-]
	 SCS Opposite-Spin Scale   =       1.2000000000000000 [-]
	 SCS Same-Spin Energy      =      -0.0229077112542720 [Eh]
	 SCS Opposite-Spin Energy  =      -0.2599572351860144 [Eh]
	 SCS Correlation Energy    =      -0.2828649464402865 [Eh]
	 SCS Total Energy          =     -76.3406834043741469 [Eh]
	-----------------------------------------------------------

*** Psi4 exiting successfully. Buy a developer a beer!
