                               Psi4 1.8.2 release

  ==> Input File <==

--------------------------------------------------------------------------
MEMORY 60 GB

molecule dimer {
0 1
Gh(Na)     0.000000     0.000000     0.000000
Gh(O)      0.696918    -1.921312     0.995276
Gh(H)      0.017441    -2.540067     1.231161
Gh(H)      1.089320    -1.653426     1.863350
O         -0.113164     1.265055     1.982920
H         -0.330778     2.212308     2.012355
H          0.411205     1.113647     2.756034
Gh(O)     -0.095172     2.270223    -1.051898
Gh(H)      0.755125     2.726212    -0.865472
Gh(H)     -0.442846     2.607254    -1.863955
Gh(O)     -0.540610    -1.206576    -2.092771
Gh(H)     -0.009866    -2.038275    -1.946300
Gh(H)     -1.328298    -1.540327    -2.427343

units ang
no_reorient
no_com
symmetry c1
}

set {
basis        aug-cc-pVTZ
scf_type     df
}

energy("mp2")
--------------------------------------------------------------------------

    Molecular point group: c1

    Geometry (in Angstrom), charge = 0, multiplicity = 1:

       Center              X                  Y                   Z               Mass
    ------------   -----------------  -----------------  -----------------  -----------------
      Gh(NA)          0.000000000000     0.000000000000     0.000000000000    22.989769282000
      Gh(O)           0.696918000000    -1.921312000000     0.995276000000    15.994914619570
      Gh(H)           0.017441000000    -2.540067000000     1.231161000000     1.007825032230
      Gh(H)           1.089320000000    -1.653426000000     1.863350000000     1.007825032230
         O           -0.113164000000     1.265055000000     1.982920000000    15.994914619570
         H           -0.330778000000     2.212308000000     2.012355000000     1.007825032230
         H            0.411205000000     1.113647000000     2.756034000000     1.007825032230
      Gh(O)          -0.095172000000     2.270223000000    -1.051898000000    15.994914619570
      Gh(H)           0.755125000000     2.726212000000    -0.865472000000     1.007825032230
      Gh(H)          -0.442846000000     2.607254000000    -1.863955000000     1.007825032230
      Gh(O)          -0.540610000000    -1.206576000000    -2.092771000000    15.994914619570
      Gh(H)          -0.009866000000    -2.038275000000    -1.946300000000     1.007825032230
      Gh(H)          -1.328298000000    -1.540327000000    -2.427343000000     1.007825032230

  Charge       = 0
  Multiplicity = 1
  Basis Set: AUG-CC-PVTZ
    Blend: AUG-CC-PVTZ
  Basis Set: (AUG-CC-PVTZ AUX)
    Blend: AUG-CC-PVTZ-JKFIT + DEF2-UNIVERSAL-JKFIT

    Orbital Energies [Eh]
    ---------------------

    Doubly Occupied:

       1A    -20.567242     2A     -1.352369     3A     -0.717150
       4A     -0.583880     5A     -0.510064

  @DF-RHF Final Energy:   -76.06024121993400

   => Energetics <=

    Nuclear Repulsion Energy =              9.1751992904256809
    One-Electron Energy =                -123.0094669438023516
    Two-Electron Energy =                  37.7740264334426712
    Total Energy =                        -76.0602412199339994
 Dipole X            :          1.7647058           -1.5588067            0.2058991
 Dipole Y            :        -24.8842385           25.4100039            0.5257655
 Dipole Z            :        -38.4525076           38.9883551            0.5358475
 Magnitude           :                                                    0.7784319
  Basis Set: (AUG-CC-PVTZ AUX)
    Blend: AUG-CC-PVTZ-RI + DEF2-QZVPP-RI
	 Reference Energy          =     -76.0602412199339994 [Eh]
	 Singles Energy            =      -0.0000000000000000 [Eh]
	 Same-Spin Energy          =      -0.0684221615764526 [Eh]
	 Opposite-Spin Energy      =      -0.2157958189088151 [Eh]
	 Correlation Energy        =      -0.2842179804852677 [Eh]
	 Total Energy              =     -76.3444592004192657 [Eh]

	 ================> DF-SCS-MP2 Energies <==================
	-----------------------------------------------------------
	 SCS Same-Spin Scale       =       0.3333333333333333 [-]
	 SCS Opposite-Spin Scale   =       1.2000000000000000 [-]
	 SCS Same-Spin Energy      =      -0.0228073871921509 [Eh]
	 SCS Opposite-Spin Energy  =      -0.2589549826905782 [Eh]
	 SCS Correlation Energy    =      -0.2817623698827290 [Eh]
	 SCS Total Energy          =     -76.3420035898167271 [Eh]
	-----------------------------------------------------------

*** Psi4 exiting successfully. Buy a developer a beer!
