                               Psi4 1.8.2 release

  ==> Input File <==

--------------------------------------------------------------------------
MEMORY 60 GB

molecule dimer {
1 1
Na         0.000000     0.000000     0.000000
O          2.286825     0.018738     1.162364
H          2.422507    -0.937629     1.320021
H          3.154241     0.354742     0.916157
O         -1.940000    -0.872605    -1.363045
H         -1.549085    -0.576304    -2.160318
H         -1.845344    -1.858086    -1.342483
O         -0.655173     1.813118     1.423743
H         -0.115660     2.337774     1.998990
H         -1.523922     1.648894     1.868316
O          0.732611    -2.100991    -1.445357
H          1.373649    -1.504174    -1.763716
H          1.227791    -2.880539    -1.203486
O          0.580925     2.071104    -1.522124
H          1.295984     2.707142    -1.331350
H          0.539691     1.997408    -2.447503
O         -0.668604    -1.590147     1.552221
H         -1.165794    -0.844968     2.001000
H         -1.282074    -2.299719     1.373430

units ang
no_reorient
no_com
symmetry c1
}

set {
basis        aug-cc-pVTZ
scf_type     df
}

energy("mp2")
--------------------------------------------------------------------------

    Molecular point group: c1

    Geometry (in Angstrom), charge = 1, multiplicity = 1:

       Center              X                  Y                   Z               Mass
    ------------   -----------------  -----------------  -----------------  -----------------
         NA           0.000000000000     0.000000000000     0.000000000000    22.989769282000
         O            2.286825000000     0.018738000000     1.162364000000    15.994914619570
         H            2.422507000000    -0.937629000000     1.320021000000     1.007825032230
         H            3.154241000000     0.354742000000     0.916157000000     1.007825032230
         O           -1.940000000000    -0.872605000000    -1.363045000000    15.994914619570
         H           -1.549085000000    -0.576304000000    -2.160318000000     1.007825032230
         H           -1.845344000000    -1.858086000000    -1.342483000000     1.007825032230
         O           -0.655173000000     1.813118000000     1.423743000000    15.994914619570
         H           -0.115660000000     2.337774000000     1.998990000000     1.007825032230
         H           -1.523922000000     1.648894000000     1.868316000000     1.007825032230
         O            0.732611000000    -2.100991000000    -1.445357000000    15.994914619570
         H            1.373649000000    -1.504174000000    -1.763716000000     1.007825032230
         H            1.227791000000    -2.880539000000    -1.203486000000     1.007825032230
         O            0.580925000000     2.071104000000    -1.522124000000    15.994914619570
         H            1.295984000000     2.707142000000    -1.331350000000     1.007825032230
         H            0.539691000000     1.997408000000    -2.447503000000     1.007825032230
         O           -0.668604000000    -1.590147000000     1.552221000000    15.994914619570
         H           -1.165794000000    -0.844968000000     2.001000000000     1.007825032230
         H           -1.282074000000    -2.299719000000     1.373430000000     1.007825032230

  Charge       = 1
  Multiplicity = 1
  Basis Set: AUG-CC-PVTZ
    Blend: AUG-CC-PVTZ
  Basis Set: (AUG-CC-PVTZ AUX)
    Blend: AUG-CC-PVTZ-JKFIT + DEF2-UNIVERSAL-JKFIT

    Orbital Energies [Eh]
    ---------------------

    Doubly Occupied:

       1A    -40.556948     2A    -20.719127     3A    -20.718686
       4A    -20.715676     5A    -20.714429     6A    -20.709632
       7A    -20.699613     8A     -2.877656     9A     -1.603580
      10A     -1.601645    11A     -1.600968    12A     -1.518311
      13A     -1.500959    14A     -1.496644    15A     -1.494688
      16A     -1.494309    17A     -1.485354    18A     -0.882996
      19A     -0.873246    20A     -0.868611    21A     -0.865085
      22A     -0.858558    23A     -0.854577    24A     -0.755050
      25A     -0.745785    26A     -0.736397    27A     -0.731352
      28A     -0.726420    29A     -0.715431    30A     -0.675093
      31A     -0.666487    32A     -0.660955    33A     -0.659493
      34A     -0.654902    35A     -0.645177

  @DF-RHF Final Energy:  -618.15095050237460

   => Energetics <=

    Nuclear Repulsion Energy =            395.9006700481979237
    One-Electron Energy =               -1637.9355549509127741
    Two-Electron Energy =                 623.8839344003401948
    Total Energy =                       -618.1509505023745987
 Dipole X            :         -8.5560973            9.8731689            1.3170716
 Dipole Y            :         13.1397716          -13.4959005           -0.3561290
 Dipole Z            :          4.1542791           -4.3624819           -0.2082028
 Magnitude           :                                                    1.3801645
  Basis Set: (AUG-CC-PVTZ AUX)
    Blend: AUG-CC-PVTZ-RI + DEF2-QZVPP-RI
	 Reference Energy          =    -618.1509505023745987 [Eh]
	 Singles Energy            =      -0.0000000000000000 [Eh]
	 Same-Spin Energy          =      -0.4205802743255189 [Eh]
	 Opposite-Spin Energy      =      -1.3161621863829964 [Eh]
	 Correlation Energy        =      -1.7367424607085153 [Eh]
	 Total Energy              =    -619.8876929630831683 [Eh]

	 ================> DF-SCS-MP2 Energies <==================
	-----------------------------------------------------------
	 SCS Same-Spin Scale       =       0.3333333333333333 [-]
	 SCS Opposite-Spin Scale   =       1.2000000000000000 [-]
	 SCS Same-Spin Energy      =      -0.1401934247751730 [Eh]
	 SCS Opposite-Spin Energy  =      -1.5793946236595957 [Eh]
	 SCS Correlation Energy    =      -1.7195880484347688 [Eh]
	 SCS Total Energy          =    -619.8705385508093286 [Eh]
	-----------------------------------------------------------

*** Psi4 exiting successfully. Buy a developer a beer!
