                               Psi4 1.9 release

  ==> Input File <==

--------------------------------------------------------------------------
MEMORY 60 GB

molecule dimer {
1 1
Na     0.000000     0.000000     0.000000
--
0 1
O      0.659986    -2.040507     0.606036
H      0.158925    -2.823573     0.524427
H      1.510866    -2.288362     0.337845
O      2.115452     0.634802     0.818018
H      2.351575     1.571131     0.886082
H      2.064804     0.316408     1.680790
O     -2.136022     0.705726    -0.204914
H     -2.636726     0.821809    -1.022408
H     -2.660104     0.011381     0.299743

units ang
no_reorient
no_com
symmetry c1
}

set {
basis        aug-cc-pVTZ
scf_type     df
}

energy("mp2", bsse_type="cp")
--------------------------------------------------------------------------

                               Psi4 1.9 release
    Molecular point group: c1
  Charge       = 0
  Multiplicity = 1
  Basis Set: AUG-CC-PVTZ
    Blend: AUG-CC-PVTZ
  Basis Set: (AUG-CC-PVTZ AUX)
    Blend: AUG-CC-PVTZ-JKFIT + DEF2-UNIVERSAL-JKFIT
  @DF-RHF Final Energy:  -228.17393830299224
    Total Energy =                       -228.1739383029922408
 Dipole X            :        -11.4721054           11.1582054           -0.3139000
 Dipole Y            :         14.4604501          -15.1008733           -0.6404231
 Dipole Z            :        -23.3852221           23.5452297            0.1600076
 Magnitude           :                                                    0.7309429
  Basis Set: (AUG-CC-PVTZ AUX)
    Blend: AUG-CC-PVTZ-RI + DEF2-QZVPP-RI
	 Reference Energy          =    -228.1739383029922408 [Eh]
	 Singles Energy            =      -0.0000000000000000 [Eh]
	 Same-Spin Energy          =      -0.2057537657863574 [Eh]
	 Opposite-Spin Energy      =      -0.6475293774570900 [Eh]
	 Correlation Energy        =      -0.8532831432434475 [Eh]
	 Total Energy              =    -229.0272214462356999 [Eh]
	 SCS Total Energy          =    -229.0195581445362052 [Eh]
                               Psi4 1.9 release
    Molecular point group: c1
  Multiplicity = 1
  Basis Set: AUG-CC-PVTZ
    Blend: AUG-CC-PVTZ
  Basis Set: (AUG-CC-PVTZ AUX)
    Blend: AUG-CC-PVTZ-JKFIT + DEF2-UNIVERSAL-JKFIT
  @DF-RHF Final Energy:  -161.67607481532329
    Total Energy =                       -161.6760748153232896
  Basis Set: (AUG-CC-PVTZ AUX)
	 Singles Energy            =      -0.0000000000000000 [Eh]
	 Same-Spin Energy          =      -0.0045749343130745 [Eh]
	 Opposite-Spin Energy      =      -0.0149510078032975 [Eh]
	 Correlation Energy        =      -0.0195259421163720 [Eh]
	 Total Energy              =    -161.6956007574396494 [Eh]
	 SCS Total Energy          =    -161.6955410027916002 [Eh]
                               Psi4 1.9 release
    Molecular point group: c1

    Geometry (in Bohr), charge = 1, multiplicity = 1:

       Center              X                  Y                   Z               Mass
    ------------   -----------------  -----------------  -----------------  -----------------
         NA           0.000000000000     0.000000000000     0.000000000000    22.989769282000
         O            1.247192786636    -3.855999387080     1.145242062168    15.994914619570
         H            0.300324724488    -5.335779665237     0.991023402795     1.007825032230
         H            2.855122952266    -4.324377455905     0.638434522855     1.007825032230
         O            3.997624911552     1.199601923893     1.545829985695    15.994914619570
         H            4.443832713473     2.969007297217     1.674452304698     1.007825032230
         H            3.901914062750     0.597924463904     3.176232774408     1.007825032230
         O           -4.036496577953     1.333628859615    -0.387231339272    15.994914619570
         H           -4.982690007874     1.552993937436    -1.932071108477     1.007825032230
         H           -5.026868025235     0.021506973034     0.566432178023     1.007825032230

  Charge       = 1
  Multiplicity = 1
  Basis Set: AUG-CC-PVTZ
    Blend: AUG-CC-PVTZ
  Basis Set: (AUG-CC-PVTZ AUX)
    Blend: AUG-CC-PVTZ-JKFIT + DEF2-UNIVERSAL-JKFIT

    Orbital Energies [Eh]
    ---------------------

    Doubly Occupied:

       1A    -40.607645     2A    -20.757287     3A    -20.748464
       4A    -20.739647     5A     -2.930745     6A     -1.655864
       7A     -1.655359     8A     -1.655142     9A     -1.557947
      10A     -1.537830    11A     -1.529205    12A     -0.921781
      13A     -0.904468    14A     -0.889413    15A     -0.798181
      16A     -0.780751    17A     -0.769156    18A     -0.707845
      19A     -0.702048    20A     -0.694574

  @DF-RHF Final Energy:  -389.94215877686264

   => Energetics <=

    Nuclear Repulsion Energy =            142.4826384452097443
    One-Electron Energy =                -819.7628842849006787
    Two-Electron Energy =                 287.3380870628282651
    Total Energy =                       -389.9421587768626409
 Dipole X            :        -11.4400332           11.1582054           -0.2818279
 Dipole Y            :         14.3424149          -15.1008733           -0.7584583
 Dipole Z            :        -23.2444542           23.5452297            0.3007756
 Magnitude           :                                                    0.8632218
  Basis Set: (AUG-CC-PVTZ AUX)
    Blend: AUG-CC-PVTZ-RI + DEF2-QZVPP-RI
	 Reference Energy          =    -389.9421587768626409 [Eh]
	 Singles Energy            =      -0.0000000000000000 [Eh]
	 Same-Spin Energy          =      -0.2094656679406031 [Eh]
	 Opposite-Spin Energy      =      -0.6582383338817702 [Eh]
	 Correlation Energy        =      -0.8677040018223734 [Eh]
	 Total Energy              =    -390.8098627786849875 [Eh]

	 ================> DF-SCS-MP2 Energies <==================
	-----------------------------------------------------------
	 SCS Same-Spin Scale       =       0.3333333333333333 [-]
	 SCS Opposite-Spin Scale   =       1.2000000000000000 [-]
	 SCS Same-Spin Energy      =      -0.0698218893135344 [Eh]
	 SCS Opposite-Spin Energy  =      -0.7898860006581242 [Eh]
	 SCS Correlation Energy    =      -0.8597078899716586 [Eh]
	 SCS Total Energy          =    -390.8018666668343144 [Eh]
	-----------------------------------------------------------

*** Psi4 exiting successfully. Buy a developer a beer!
