                               Psi4 1.8.2 release

  ==> Input File <==

--------------------------------------------------------------------------
MEMORY 60 GB

molecule dimer {
0 1
Gh(Na)     0.000000     0.000000     0.000000
O         -1.453265    -0.927157     1.825285
H         -2.100322    -0.255926     1.972817
H         -1.935961    -1.746795     1.593913
Gh(O)      0.533351     1.207339     2.078428
Gh(H)      0.369434     2.123890     2.057849
Gh(H)      1.328925     0.987573     2.532613
Gh(O)      1.651761    -1.445261     0.090473
Gh(H)      2.214791    -1.702771     0.905964
Gh(H)      1.533721    -2.215695    -0.565653
Gh(O)     -2.231746     0.829196    -0.427680
Gh(H)     -2.770376     0.788932    -1.214090
Gh(H)     -2.790229     0.419292     0.320234
Gh(O)      0.777575     1.636496    -1.467094
Gh(H)      0.243066     2.358069    -1.870836
Gh(H)      1.727867     1.770498    -1.676592

units ang
no_reorient
no_com
symmetry c1
}

set {
basis        aug-cc-pVTZ
scf_type     df
}

energy("mp2")
--------------------------------------------------------------------------

    Molecular point group: c1

    Geometry (in Angstrom), charge = 0, multiplicity = 1:

       Center              X                  Y                   Z               Mass
    ------------   -----------------  -----------------  -----------------  -----------------
      Gh(NA)          0.000000000000     0.000000000000     0.000000000000    22.989769282000
         O           -1.453265000000    -0.927157000000     1.825285000000    15.994914619570
         H           -2.100322000000    -0.255926000000     1.972817000000     1.007825032230
         H           -1.935961000000    -1.746795000000     1.593913000000     1.007825032230
      Gh(O)           0.533351000000     1.207339000000     2.078428000000    15.994914619570
      Gh(H)           0.369434000000     2.123890000000     2.057849000000     1.007825032230
      Gh(H)           1.328925000000     0.987573000000     2.532613000000     1.007825032230
      Gh(O)           1.651761000000    -1.445261000000     0.090473000000    15.994914619570
      Gh(H)           2.214791000000    -1.702771000000     0.905964000000     1.007825032230
      Gh(H)           1.533721000000    -2.215695000000    -0.565653000000     1.007825032230
      Gh(O)          -2.231746000000     0.829196000000    -0.427680000000    15.994914619570
      Gh(H)          -2.770376000000     0.788932000000    -1.214090000000     1.007825032230
      Gh(H)          -2.790229000000     0.419292000000     0.320234000000     1.007825032230
      Gh(O)           0.777575000000     1.636496000000    -1.467094000000    15.994914619570
      Gh(H)           0.243066000000     2.358069000000    -1.870836000000     1.007825032230
      Gh(H)           1.727867000000     1.770498000000    -1.676592000000     1.007825032230

  Charge       = 0
  Multiplicity = 1
  Basis Set: AUG-CC-PVTZ
    Blend: AUG-CC-PVTZ
  Basis Set: (AUG-CC-PVTZ AUX)
    Blend: AUG-CC-PVTZ-JKFIT + DEF2-UNIVERSAL-JKFIT

    Orbital Energies [Eh]
    ---------------------

    Doubly Occupied:

       1A    -20.566456     2A     -1.349753     3A     -0.720428
       4A     -0.578854     5A     -0.509223

  @DF-RHF Final Energy:   -76.05982425550650

   => Energetics <=

    Nuclear Repulsion Energy =              9.1514240948912899
    One-Electron Energy =                -122.9730675827262161
    Two-Electron Energy =                  37.7618192323284347
    Total Energy =                        -76.0598242555064985
 Dipole X            :         28.8417163          -29.5976521           -0.7559359
 Dipole Y            :         17.7073510          -17.8011766           -0.0938256
 Dipole Z            :        -34.3889297           34.3344529           -0.0544768
 Magnitude           :                                                    0.7636819
  Basis Set: (AUG-CC-PVTZ AUX)
    Blend: AUG-CC-PVTZ-RI + DEF2-QZVPP-RI
	 Reference Energy          =     -76.0598242555064985 [Eh]
	 Singles Energy            =      -0.0000000000000000 [Eh]
	 Same-Spin Energy          =      -0.0684498177877074 [Eh]
	 Opposite-Spin Energy      =      -0.2160333572584859 [Eh]
	 Correlation Energy        =      -0.2844831750461933 [Eh]
	 Total Energy              =     -76.3443074305526892 [Eh]

	 ================> DF-SCS-MP2 Energies <==================
	-----------------------------------------------------------
	 SCS Same-Spin Scale       =       0.3333333333333333 [-]
	 SCS Opposite-Spin Scale   =       1.2000000000000000 [-]
	 SCS Same-Spin Energy      =      -0.0228166059292358 [Eh]
	 SCS Opposite-Spin Energy  =      -0.2592400287101831 [Eh]
	 SCS Correlation Energy    =      -0.2820566346394189 [Eh]
	 SCS Total Energy          =     -76.3418808901459158 [Eh]
	-----------------------------------------------------------

*** Psi4 exiting successfully. Buy a developer a beer!
