                               Psi4 1.8.2 release

  ==> Input File <==

--------------------------------------------------------------------------
MEMORY 60 GB

molecule dimer {
0 1
Gh(Na)     0.000000     0.000000     0.000000
Gh(O)      0.954819     1.660987    -1.074380
Gh(H)      0.801764     2.636974    -1.072418
Gh(H)      1.647407     1.475023    -1.768699
Gh(O)      1.731358    -1.499028    -0.404719
Gh(H)      1.341958    -2.259563     0.035339
Gh(H)      1.778928    -1.780792    -1.299789
O          0.649501     0.267862     2.064278
H          1.262818     0.937200     2.368076
H          0.594691    -0.289524     2.874892
Gh(O)     -1.650746     1.627578     1.227517
Gh(H)     -0.937475     1.262507     1.773525
Gh(H)     -2.433155     1.122101     1.300427
Gh(O)     -1.573423    -0.329419    -1.795216
Gh(H)     -2.311819     0.249475    -2.145586
Gh(H)     -1.174989    -0.659191    -2.614392

units ang
no_reorient
no_com
symmetry c1
}

set {
basis        aug-cc-pVTZ
scf_type     df
}

energy("mp2")
--------------------------------------------------------------------------

    Molecular point group: c1

    Geometry (in Angstrom), charge = 0, multiplicity = 1:

       Center              X                  Y                   Z               Mass
    ------------   -----------------  -----------------  -----------------  -----------------
      Gh(NA)          0.000000000000     0.000000000000     0.000000000000    22.989769282000
      Gh(O)           0.954819000000     1.660987000000    -1.074380000000    15.994914619570
      Gh(H)           0.801764000000     2.636974000000    -1.072418000000     1.007825032230
      Gh(H)           1.647407000000     1.475023000000    -1.768699000000     1.007825032230
      Gh(O)           1.731358000000    -1.499028000000    -0.404719000000    15.994914619570
      Gh(H)           1.341958000000    -2.259563000000     0.035339000000     1.007825032230
      Gh(H)           1.778928000000    -1.780792000000    -1.299789000000     1.007825032230
         O            0.649501000000     0.267862000000     2.064278000000    15.994914619570
         H            1.262818000000     0.937200000000     2.368076000000     1.007825032230
         H            0.594691000000    -0.289524000000     2.874892000000     1.007825032230
      Gh(O)          -1.650746000000     1.627578000000     1.227517000000    15.994914619570
      Gh(H)          -0.937475000000     1.262507000000     1.773525000000     1.007825032230
      Gh(H)          -2.433155000000     1.122101000000     1.300427000000     1.007825032230
      Gh(O)          -1.573423000000    -0.329419000000    -1.795216000000    15.994914619570
      Gh(H)          -2.311819000000     0.249475000000    -2.145586000000     1.007825032230
      Gh(H)          -1.174989000000    -0.659191000000    -2.614392000000     1.007825032230

  Charge       = 0
  Multiplicity = 1
  Basis Set: AUG-CC-PVTZ
    Blend: AUG-CC-PVTZ
  Basis Set: (AUG-CC-PVTZ AUX)
    Blend: AUG-CC-PVTZ-JKFIT + DEF2-UNIVERSAL-JKFIT

    Orbital Energies [Eh]
    ---------------------

    Doubly Occupied:

       1A    -20.571353     2A     -1.349838     3A     -0.700907
       4A     -0.591267     5A     -0.510566

  @DF-RHF Final Energy:   -76.05836361015159

   => Energetics <=

    Nuclear Repulsion Energy =              9.0749251405992499
    One-Electron Energy =                -122.8187125116544394
    Two-Electron Energy =                  37.6854237609036105
    Total Energy =                        -76.0583636101515879
 Dipole X            :        -12.9634439           13.3292154            0.3657714
 Dipole Y            :         -5.1961407            5.2734168            0.0772761
 Dipole Z            :        -40.3921307           41.1151341            0.7230034
 Magnitude           :                                                    0.8139375
  Basis Set: (AUG-CC-PVTZ AUX)
    Blend: AUG-CC-PVTZ-RI + DEF2-QZVPP-RI
	 Reference Energy          =     -76.0583636101515879 [Eh]
	 Singles Energy            =      -0.0000000000000000 [Eh]
	 Same-Spin Energy          =      -0.0688389701070845 [Eh]
	 Opposite-Spin Energy      =      -0.2175166718595754 [Eh]
	 Correlation Energy        =      -0.2863556419666599 [Eh]
	 Total Energy              =     -76.3447192521182529 [Eh]

	 ================> DF-SCS-MP2 Energies <==================
	-----------------------------------------------------------
	 SCS Same-Spin Scale       =       0.3333333333333333 [-]
	 SCS Opposite-Spin Scale   =       1.2000000000000000 [-]
	 SCS Same-Spin Energy      =      -0.0229463233690282 [Eh]
	 SCS Opposite-Spin Energy  =      -0.2610200062314904 [Eh]
	 SCS Correlation Energy    =      -0.2839663296005186 [Eh]
	 SCS Total Energy          =     -76.3423299397521049 [Eh]
	-----------------------------------------------------------

*** Psi4 exiting successfully. Buy a developer a beer!
