                               Psi4 1.8.2 release

  ==> Input File <==

--------------------------------------------------------------------------
MEMORY 60 GB

molecule dimer {
1 1
Na         0.000000     0.000000     0.000000
O         -0.176977     1.686618    -2.008264
H         -0.632707     2.516626    -2.104365
H          0.159539     1.416134    -2.919306
O          1.634007    -0.997109    -1.357904
H          1.486035    -0.968361    -2.307521
H          1.460201    -1.819247    -0.910788
O          1.120484    -0.081834     2.153587
H          1.506776     0.791182     2.044304
H          0.522102    -0.043865     2.978173
O         -1.063075    -1.858798     0.142341
H         -1.368323    -2.410910     0.865620
H         -1.298628    -2.180823    -0.693113
O         -0.084576     2.215043     0.683941
H         -0.140511     2.320130     1.634745
H          0.316926     3.119409     0.463861

units ang
no_reorient
no_com
symmetry c1
}

set {
basis        aug-cc-pVTZ
scf_type     df
}

energy("mp2")
--------------------------------------------------------------------------

    Molecular point group: c1

    Geometry (in Angstrom), charge = 1, multiplicity = 1:

       Center              X                  Y                   Z               Mass
    ------------   -----------------  -----------------  -----------------  -----------------
         NA           0.000000000000     0.000000000000     0.000000000000    22.989769282000
         O           -0.176977000000     1.686618000000    -2.008264000000    15.994914619570
         H           -0.632707000000     2.516626000000    -2.104365000000     1.007825032230
         H            0.159539000000     1.416134000000    -2.919306000000     1.007825032230
         O            1.634007000000    -0.997109000000    -1.357904000000    15.994914619570
         H            1.486035000000    -0.968361000000    -2.307521000000     1.007825032230
         H            1.460201000000    -1.819247000000    -0.910788000000     1.007825032230
         O            1.120484000000    -0.081834000000     2.153587000000    15.994914619570
         H            1.506776000000     0.791182000000     2.044304000000     1.007825032230
         H            0.522102000000    -0.043865000000     2.978173000000     1.007825032230
         O           -1.063075000000    -1.858798000000     0.142341000000    15.994914619570
         H           -1.368323000000    -2.410910000000     0.865620000000     1.007825032230
         H           -1.298628000000    -2.180823000000    -0.693113000000     1.007825032230
         O           -0.084576000000     2.215043000000     0.683941000000    15.994914619570
         H           -0.140511000000     2.320130000000     1.634745000000     1.007825032230
         H            0.316926000000     3.119409000000     0.463861000000     1.007825032230

  Charge       = 1
  Multiplicity = 1
  Basis Set: AUG-CC-PVTZ
    Blend: AUG-CC-PVTZ
  Basis Set: (AUG-CC-PVTZ AUX)
    Blend: AUG-CC-PVTZ-JKFIT + DEF2-UNIVERSAL-JKFIT

    Orbital Energies [Eh]
    ---------------------

    Doubly Occupied:

       1A    -40.548832     2A    -20.733484     3A    -20.732921
       4A    -20.723399     5A    -20.712590     6A    -20.710800
       7A     -2.873615     8A     -1.601927     9A     -1.598765
      10A     -1.597444    11A     -1.531590    12A     -1.509009
      13A     -1.500231    14A     -1.491794    15A     -1.484161
      16A     -0.919848    17A     -0.895435    18A     -0.863428
      19A     -0.857896    20A     -0.847750    21A     -0.772870
      22A     -0.765075    23A     -0.733284    24A     -0.723104
      25A     -0.716911    26A     -0.691159    27A     -0.682597
      28A     -0.664611    29A     -0.659565    30A     -0.652058

  @DF-RHF Final Energy:  -542.06984336181574

   => Energetics <=

    Nuclear Repulsion Energy =            306.9480464981808723
    One-Electron Energy =               -1356.4434742180278590
    Two-Electron Energy =                 507.4255843580311875
    Total Energy =                       -542.0698433618157424
 Dipole X            :        -25.9372654           25.4174098           -0.5198556
 Dipole Y            :        -19.2335739           19.7507277            0.5171538
 Dipole Z            :          7.4839732           -7.6321919           -0.1482186
 Magnitude           :                                                    0.7481087
  Basis Set: (AUG-CC-PVTZ AUX)
    Blend: AUG-CC-PVTZ-RI + DEF2-QZVPP-RI
	 Reference Energy          =    -542.0698433618157424 [Eh]
	 Singles Energy            =      -0.0000000000000000 [Eh]
	 Same-Spin Energy          =      -0.3520508148363513 [Eh]
	 Opposite-Spin Energy      =      -1.1003038639529434 [Eh]
	 Correlation Energy        =      -1.4523546787892947 [Eh]
	 Total Energy              =    -543.5221980406050761 [Eh]

	 ================> DF-SCS-MP2 Energies <==================
	-----------------------------------------------------------
	 SCS Same-Spin Scale       =       0.3333333333333333 [-]
	 SCS Opposite-Spin Scale   =       1.2000000000000000 [-]
	 SCS Same-Spin Energy      =      -0.1173502716121171 [Eh]
	 SCS Opposite-Spin Energy  =      -1.3203646367435320 [Eh]
	 SCS Correlation Energy    =      -1.4377149083556491 [Eh]
	 SCS Total Energy          =    -543.5075582701714438 [Eh]
	-----------------------------------------------------------

*** Psi4 exiting successfully. Buy a developer a beer!
