                               Psi4 1.9 release

  ==> Input File <==

--------------------------------------------------------------------------
MEMORY 60 GB

molecule dimer {
1 1
Na     0.000000     0.000000     0.000000
--
0 1
O      0.455401     1.725871    -1.530100
H      0.381599     2.703129    -1.701900
H      1.168828     1.383847    -1.972639
O      0.099395    -1.245093    -1.972522
H     -0.525908    -1.852204    -2.373265
H      0.897570    -1.353097    -2.425965
O     -0.577192    -2.096889     1.451220
H     -0.502479    -1.745663     2.351427
H     -0.878722    -2.990788     1.553783
O     -1.109273     1.078842     1.946875
H     -1.010859     0.585553     2.773577
H     -1.699356     1.860468     2.119333
O      2.116279     0.093364     1.509554
H      2.034470     0.874012     2.152355
H      2.186417    -0.715612     2.045233

units ang
no_reorient
no_com
symmetry c1
}

set {
basis        aug-cc-pVTZ
scf_type     df
}

energy("mp2", bsse_type="cp")
--------------------------------------------------------------------------

                               Psi4 1.9 release
    Molecular point group: c1
  Charge       = 0
  Multiplicity = 1
  Basis Set: AUG-CC-PVTZ
    Blend: AUG-CC-PVTZ
  Basis Set: (AUG-CC-PVTZ AUX)
    Blend: AUG-CC-PVTZ-JKFIT + DEF2-UNIVERSAL-JKFIT
  @DF-RHF Final Energy:  -380.26768887343263
    Total Energy =                       -380.2676888734326326
 Dipole X            :        -18.7724387           18.7620325           -0.0104063
 Dipole Y            :          8.8094054           -9.0736995           -0.2642941
 Dipole Z            :        -28.7964727           29.7861561            0.9896834
 Magnitude           :                                                    1.0244183
  Basis Set: (AUG-CC-PVTZ AUX)
    Blend: AUG-CC-PVTZ-RI + DEF2-QZVPP-RI
	 Reference Energy          =    -380.2676888734326326 [Eh]
	 Singles Energy            =      -0.0000000000000000 [Eh]
	 Same-Spin Energy          =      -0.3452205978724423 [Eh]
	 Opposite-Spin Energy      =      -1.0843555994841056 [Eh]
	 Correlation Energy        =      -1.4295761973565480 [Eh]
	 Total Energy              =    -381.6972650707891717 [Eh]
	 SCS Total Energy          =    -381.6839891254377335 [Eh]
                               Psi4 1.9 release
    Molecular point group: c1
  Multiplicity = 1
  Basis Set: AUG-CC-PVTZ
    Blend: AUG-CC-PVTZ
  Basis Set: (AUG-CC-PVTZ AUX)
    Blend: AUG-CC-PVTZ-JKFIT + DEF2-UNIVERSAL-JKFIT
  @DF-RHF Final Energy:  -161.67608721765626
    Total Energy =                       -161.6760872176562600
  Basis Set: (AUG-CC-PVTZ AUX)
	 Singles Energy            =      -0.0000000000000000 [Eh]
	 Same-Spin Energy          =      -0.0058644446047654 [Eh]
	 Opposite-Spin Energy      =      -0.0182671589557567 [Eh]
	 Correlation Energy        =      -0.0241316035605220 [Eh]
	 Total Energy              =    -161.7002188212167937 [Eh]
	 SCS Total Energy          =    -161.6999626232714320 [Eh]
                               Psi4 1.9 release
    Molecular point group: c1

    Geometry (in Bohr), charge = 1, multiplicity = 1:

       Center              X                  Y                   Z               Mass
    ------------   -----------------  -----------------  -----------------  -----------------
         NA           0.000000000000     0.000000000000     0.000000000000    22.989769282000
         O            0.860583167260     3.261423517870    -2.891469944563    15.994914619570
         H            0.721117599749     5.108173491783    -3.216124892917     1.007825032230
         H            2.208764807767     2.615091829536    -3.727747454397     1.007825032230
         O            0.187829328240    -2.352884770725    -3.727526356440    15.994914619570
         H           -0.993822087187    -3.500158288477    -4.484820873135     1.007825032230
         H            1.696161478427    -2.556982751179    -4.584409439946     1.007825032230
         O           -1.090734801805    -3.962545925485     2.742408347787    15.994914619570
         H           -0.949547693794    -3.298824977345     4.443553034007     1.007825032230
         H           -1.660543920415    -5.651770219306     2.936224328392     1.007825032230
         O           -2.096222168365     2.038715912641     3.679060550501    15.994914619570
         H           -1.910246661454     1.106534801940     5.241300917869     1.007825032230
         H           -3.211317429654     3.515774985178     4.004958938645     1.007825032230
         O            3.999187715058     0.176432389977     2.852643631589    15.994914619570
         H            3.844591110460     1.651643310364     4.067361474760     1.007825032230
         H            4.131729326045    -1.352310692091     3.864930232748     1.007825032230

  Charge       = 1
  Multiplicity = 1
  Basis Set: AUG-CC-PVTZ
    Blend: AUG-CC-PVTZ
  Basis Set: (AUG-CC-PVTZ AUX)
    Blend: AUG-CC-PVTZ-JKFIT + DEF2-UNIVERSAL-JKFIT

    Orbital Energies [Eh]
    ---------------------

    Doubly Occupied:

       1A    -40.560860     2A    -20.726177     3A    -20.717737
       4A    -20.716839     5A    -20.714459     6A    -20.707970
       7A     -2.880997     8A     -1.605992     9A     -1.605072
      10A     -1.604920    11A     -1.514918    12A     -1.504683
      13A     -1.502731    14A     -1.498341    15A     -1.480968
      16A     -0.886361    17A     -0.877991    18A     -0.877463
      19A     -0.864821    20A     -0.848192    21A     -0.757329
      22A     -0.745491    23A     -0.740299    24A     -0.732083
      25A     -0.724067    26A     -0.672787    27A     -0.669702
      28A     -0.661055    29A     -0.656136    30A     -0.653958

  @DF-RHF Final Energy:  -542.08646445207080

   => Energetics <=

    Nuclear Repulsion Energy =            294.9091264869693418
    One-Electron Energy =               -1332.5703744083998572
    Two-Electron Energy =                 495.5747834693596587
    Total Energy =                       -542.0864644520707998
 Dipole X            :        -18.6917558           18.7620325            0.0702767
 Dipole Y            :          8.8121816           -9.0736995           -0.2615179
 Dipole Z            :        -28.6766840           29.7861561            1.1094721
 Magnitude           :                                                    1.1420414
  Basis Set: (AUG-CC-PVTZ AUX)
    Blend: AUG-CC-PVTZ-RI + DEF2-QZVPP-RI
	 Reference Energy          =    -542.0864644520707998 [Eh]
	 Singles Energy            =      -0.0000000000000000 [Eh]
	 Same-Spin Energy          =      -0.3497809682053619 [Eh]
	 Opposite-Spin Energy      =      -1.0963883033892314 [Eh]
	 Correlation Energy        =      -1.4461692715945933 [Eh]
	 Total Energy              =    -543.5326337236654126 [Eh]

	 ================> DF-SCS-MP2 Energies <==================
	-----------------------------------------------------------
	 SCS Same-Spin Scale       =       0.3333333333333333 [-]
	 SCS Opposite-Spin Scale   =       1.2000000000000000 [-]
	 SCS Same-Spin Energy      =      -0.1165936560684540 [Eh]
	 SCS Opposite-Spin Energy  =      -1.3156659640670776 [Eh]
	 SCS Correlation Energy    =      -1.4322596201355315 [Eh]
	 SCS Total Energy          =    -543.5187240722062825 [Eh]
	-----------------------------------------------------------

*** Psi4 exiting successfully. Buy a developer a beer!
