                               Psi4 1.8.2 release

  ==> Input File <==

--------------------------------------------------------------------------
MEMORY 60 GB

molecule dimer {
1 1
Na         0.000000     0.000000     0.000000
O          1.592894    -1.543639    -0.308375
H          1.423686    -2.341419    -0.830979
H          2.403710    -1.151684    -0.598431
O          1.988946     0.824225     1.115878
H          2.779875     0.295505     1.252466
H          2.237778     1.548762     0.503946
O         -0.323220     1.312717     2.049838
H          0.524459     0.926454     2.265662
H         -1.000485     1.060576     2.756433
O         -1.798560    -1.449805     0.232533
H         -2.520777    -1.195942    -0.335276
H         -2.004259    -2.272448     0.655052
O          1.457351     0.926491    -1.892607
H          2.288674     0.755986    -1.447960
H          1.638498     1.608992    -2.536718
O         -1.853918     1.628861    -0.694243
H         -2.596561     1.796080    -1.223462
H         -1.590046     2.537809    -0.490567

units ang
no_reorient
no_com
symmetry c1
}

set {
basis        aug-cc-pVTZ
scf_type     df
}

energy("mp2")
--------------------------------------------------------------------------

    Molecular point group: c1

    Geometry (in Angstrom), charge = 1, multiplicity = 1:

       Center              X                  Y                   Z               Mass
    ------------   -----------------  -----------------  -----------------  -----------------
         NA           0.000000000000     0.000000000000     0.000000000000    22.989769282000
         O            1.592894000000    -1.543639000000    -0.308375000000    15.994914619570
         H            1.423686000000    -2.341419000000    -0.830979000000     1.007825032230
         H            2.403710000000    -1.151684000000    -0.598431000000     1.007825032230
         O            1.988946000000     0.824225000000     1.115878000000    15.994914619570
         H            2.779875000000     0.295505000000     1.252466000000     1.007825032230
         H            2.237778000000     1.548762000000     0.503946000000     1.007825032230
         O           -0.323220000000     1.312717000000     2.049838000000    15.994914619570
         H            0.524459000000     0.926454000000     2.265662000000     1.007825032230
         H           -1.000485000000     1.060576000000     2.756433000000     1.007825032230
         O           -1.798560000000    -1.449805000000     0.232533000000    15.994914619570
         H           -2.520777000000    -1.195942000000    -0.335276000000     1.007825032230
         H           -2.004259000000    -2.272448000000     0.655052000000     1.007825032230
         O            1.457351000000     0.926491000000    -1.892607000000    15.994914619570
         H            2.288674000000     0.755986000000    -1.447960000000     1.007825032230
         H            1.638498000000     1.608992000000    -2.536718000000     1.007825032230
         O           -1.853918000000     1.628861000000    -0.694243000000    15.994914619570
         H           -2.596561000000     1.796080000000    -1.223462000000     1.007825032230
         H           -1.590046000000     2.537809000000    -0.490567000000     1.007825032230

  Charge       = 1
  Multiplicity = 1
  Basis Set: AUG-CC-PVTZ
    Blend: AUG-CC-PVTZ
  Basis Set: (AUG-CC-PVTZ AUX)
    Blend: AUG-CC-PVTZ-JKFIT + DEF2-UNIVERSAL-JKFIT

    Orbital Energies [Eh]
    ---------------------

    Doubly Occupied:

       1A    -40.535667     2A    -20.736258     3A    -20.725540
       4A    -20.723368     5A    -20.705449     6A    -20.696850
       7A    -20.679952     8A     -2.858569     9A     -1.584901
      10A     -1.584094    11A     -1.582936    12A     -1.525604
      13A     -1.514796    14A     -1.511191    15A     -1.498206
      16A     -1.494051    17A     -1.454675    18A     -0.899487
      19A     -0.893724    20A     -0.875130    21A     -0.871276
      22A     -0.848637    23A     -0.844977    24A     -0.759807
      25A     -0.748506    26A     -0.742282    27A     -0.739821
      28A     -0.731029    29A     -0.694081    30A     -0.686334
      31A     -0.678020    32A     -0.666190    33A     -0.656924
      34A     -0.644641    35A     -0.626052

  @DF-RHF Final Energy:  -618.14810999023587

   => Energetics <=

    Nuclear Repulsion Energy =            411.6597904123424314
    One-Electron Energy =               -1669.5777379608798583
    Two-Electron Energy =                 639.7698375583016741
    Total Energy =                       -618.1481099902358665
 Dipole X            :        -21.8267770           22.8515056            1.0247286
 Dipole Y            :        -32.2837497           32.4267006            0.1429510
 Dipole Z            :         -8.2911571            7.5482427           -0.7429144
 Magnitude           :                                                    1.2737447
  Basis Set: (AUG-CC-PVTZ AUX)
    Blend: AUG-CC-PVTZ-RI + DEF2-QZVPP-RI
	 Reference Energy          =    -618.1481099902358665 [Eh]
	 Singles Energy            =      -0.0000000000000000 [Eh]
	 Same-Spin Energy          =      -0.4236312565035539 [Eh]
	 Opposite-Spin Energy      =      -1.3197823740393795 [Eh]
	 Correlation Energy        =      -1.7434136305429333 [Eh]
	 Total Energy              =    -619.8915236207787984 [Eh]

	 ================> DF-SCS-MP2 Energies <==================
	-----------------------------------------------------------
	 SCS Same-Spin Scale       =       0.3333333333333333 [-]
	 SCS Opposite-Spin Scale   =       1.2000000000000000 [-]
	 SCS Same-Spin Energy      =      -0.1412104188345180 [Eh]
	 SCS Opposite-Spin Energy  =      -1.5837388488472552 [Eh]
	 SCS Correlation Energy    =      -1.7249492676817733 [Eh]
	 SCS Total Energy          =    -619.8730592579175891 [Eh]
	-----------------------------------------------------------

*** Psi4 exiting successfully. Buy a developer a beer!
