                               Psi4 1.9 release

  ==> Input File <==

--------------------------------------------------------------------------
MEMORY 60 GB

molecule dimer {
1 1
Na     0.000000     0.000000     0.000000
--
0 1
O     -0.385609     0.971783     2.130412
H      0.171738     1.741781     2.032620
H      0.110888     0.513405     2.845892
O      1.650679    -1.448679     0.973540
H      2.407191    -1.477866     0.372562
H      2.005735    -1.634422     1.882786
O      1.370942     1.688736    -1.335288
H      1.905338     1.353027    -2.042046
H      2.089085     2.118485    -0.854267
O     -0.901623    -0.275276    -2.159721
H     -0.471246    -1.081532    -2.486808
H     -0.652592     0.403088    -2.864428

units ang
no_reorient
no_com
symmetry c1
}

set {
basis        aug-cc-pVTZ
scf_type     df
}

energy("mp2", bsse_type="cp")
--------------------------------------------------------------------------

                               Psi4 1.9 release
    Molecular point group: c1
  Charge       = 0
  Multiplicity = 1
  Basis Set: AUG-CC-PVTZ
    Blend: AUG-CC-PVTZ
  Basis Set: (AUG-CC-PVTZ AUX)
    Blend: AUG-CC-PVTZ-JKFIT + DEF2-UNIVERSAL-JKFIT
  @DF-RHF Final Energy:  -304.21748893912934
    Total Energy =                       -304.2174889391293391
 Dipole X            :        -37.9303264           40.5180884            2.5877620
 Dipole Y            :        -17.7885382           17.8172412            0.0287030
 Dipole Z            :          7.8034249           -8.0164922           -0.2130674
 Magnitude           :                                                    2.5966774
  Basis Set: (AUG-CC-PVTZ AUX)
    Blend: AUG-CC-PVTZ-RI + DEF2-QZVPP-RI
	 Reference Energy          =    -304.2174889391293391 [Eh]
	 Singles Energy            =      -0.0000000000000000 [Eh]
	 Same-Spin Energy          =      -0.2766648910695268 [Eh]
	 Opposite-Spin Energy      =      -0.8696138324725621 [Eh]
	 Correlation Energy        =      -1.1462787235420888 [Eh]
	 Total Energy              =    -305.3637676626714210 [Eh]
	 SCS Total Energy          =    -305.3532471684529241 [Eh]
                               Psi4 1.9 release
    Molecular point group: c1
  Multiplicity = 1
  Basis Set: AUG-CC-PVTZ
    Blend: AUG-CC-PVTZ
  Basis Set: (AUG-CC-PVTZ AUX)
    Blend: AUG-CC-PVTZ-JKFIT + DEF2-UNIVERSAL-JKFIT
  @DF-RHF Final Energy:  -161.67608270789259
    Total Energy =                       -161.6760827078925900
  Basis Set: (AUG-CC-PVTZ AUX)
	 Singles Energy            =      -0.0000000000000000 [Eh]
	 Same-Spin Energy          =      -0.0048937004051743 [Eh]
	 Opposite-Spin Energy      =      -0.0157547930382814 [Eh]
	 Correlation Energy        =      -0.0206484934434557 [Eh]
	 Total Energy              =    -161.6967312013360356 [Eh]
	 SCS Total Energy          =    -161.6966196930069088 [Eh]
                               Psi4 1.9 release
    Molecular point group: c1

    Geometry (in Bohr), charge = 1, multiplicity = 1:

       Center              X                  Y                   Z               Mass
    ------------   -----------------  -----------------  -----------------  -----------------
         NA           0.000000000000     0.000000000000     0.000000000000    22.989769282000
         O           -0.728695401512     1.836403723376     4.025895214389    15.994914619570
         H            0.324537785334     3.291489060526     3.841095117128     1.007825032230
         H            0.209547950600     0.970194841441     5.377956462631     1.007825032230
         O            3.119331231045    -2.737606553702     1.839723972178    15.994914619570
         H            4.548931721667    -2.792761990126     0.704040144753     1.007825032230
         H            3.790289830245    -3.088609953423     3.557949892846     1.007825032230
         O            2.590704913887     3.191248538201    -2.523328618610    15.994914619570
         H            3.600566996428     2.556850470350    -3.858907675587     1.007825032230
         H            3.947798502802     4.003356450891    -1.614330668016     1.007825032230
         O           -1.703820538414    -0.520196248912    -4.081281197400    15.994914619570
         H           -0.890525877717    -2.043799275919    -4.699386046598     1.007825032230
         H           -1.233220151665     0.761725924459    -5.412984426093     1.007825032230

  Charge       = 1
  Multiplicity = 1
  Basis Set: AUG-CC-PVTZ
    Blend: AUG-CC-PVTZ
  Basis Set: (AUG-CC-PVTZ AUX)
    Blend: AUG-CC-PVTZ-JKFIT + DEF2-UNIVERSAL-JKFIT

    Orbital Energies [Eh]
    ---------------------

    Doubly Occupied:

       1A    -40.592580     2A    -20.748237     3A    -20.744350
       4A    -20.737411     5A    -20.737202     6A     -2.913359
       7A     -1.638319     8A     -1.637630     9A     -1.636876
      10A     -1.536417    11A     -1.522413    12A     -1.519901
      13A     -1.506460    14A     -0.889758    15A     -0.877710
      16A     -0.867093    17A     -0.861479    18A     -0.784875
      19A     -0.770107    20A     -0.766375    21A     -0.756927
      22A     -0.697568    23A     -0.690991    24A     -0.681301
      25A     -0.678222

  @DF-RHF Final Energy:  -466.00569560592282

   => Energetics <=

    Nuclear Repulsion Energy =            210.8537848579220508
    One-Electron Energy =               -1060.1318307183912566
    Two-Electron Energy =                 383.2723502545463816
    Total Energy =                       -466.0056956059228241
 Dipole X            :        -37.6265550           40.5180884            2.8915334
 Dipole Y            :        -17.7024376           17.8172412            0.1148036
 Dipole Z            :          7.7770241           -8.0164922           -0.2394681
 Magnitude           :                                                    2.9037028
  Basis Set: (AUG-CC-PVTZ AUX)
    Blend: AUG-CC-PVTZ-RI + DEF2-QZVPP-RI
	 Reference Energy          =    -466.0056956059228241 [Eh]
	 Singles Energy            =      -0.0000000000000000 [Eh]
	 Same-Spin Energy          =      -0.2807692072943587 [Eh]
	 Opposite-Spin Energy      =      -0.8807630705084717 [Eh]
	 Correlation Energy        =      -1.1615322778028303 [Eh]
	 Total Energy              =    -467.1672278837256727 [Eh]

	 ================> DF-SCS-MP2 Energies <==================
	-----------------------------------------------------------
	 SCS Same-Spin Scale       =       0.3333333333333333 [-]
	 SCS Opposite-Spin Scale   =       1.2000000000000000 [-]
	 SCS Same-Spin Energy      =      -0.0935897357647862 [Eh]
	 SCS Opposite-Spin Energy  =      -1.0569156846101659 [Eh]
	 SCS Correlation Energy    =      -1.1505054203749521 [Eh]
	 SCS Total Energy          =    -467.1562010262977651 [Eh]
	-----------------------------------------------------------

*** Psi4 exiting successfully. Buy a developer a beer!
