                               Psi4 1.8.2 release

  ==> Input File <==

--------------------------------------------------------------------------
MEMORY 60 GB

molecule dimer {
0 1
Gh(Na)     0.000000     0.000000     0.000000
Gh(O)      1.123334     2.081258    -0.572008
Gh(H)      1.216698     2.687495     0.190794
Gh(H)      1.959598     2.117506    -1.056213
Gh(O)      2.258056    -1.030970     0.237516
Gh(H)      2.691734    -0.383332     0.814519
Gh(H)      2.334528    -0.786860    -0.703473
O         -0.907363    -1.944297     0.044354
H         -1.273537    -2.411135    -0.753502
H         -1.634033    -1.924246     0.641980
Gh(O)     -2.039574     0.663792    -0.777922
Gh(H)     -1.939320     1.285531    -1.453140
Gh(H)     -2.627457    -0.060953    -1.090527

units ang
no_reorient
no_com
symmetry c1
}

set {
basis        aug-cc-pVTZ
scf_type     df
}

energy("mp2")
--------------------------------------------------------------------------

    Molecular point group: c1

    Geometry (in Angstrom), charge = 0, multiplicity = 1:

       Center              X                  Y                   Z               Mass
    ------------   -----------------  -----------------  -----------------  -----------------
      Gh(NA)          0.000000000000     0.000000000000     0.000000000000    22.989769282000
      Gh(O)           1.123334000000     2.081258000000    -0.572008000000    15.994914619570
      Gh(H)           1.216698000000     2.687495000000     0.190794000000     1.007825032230
      Gh(H)           1.959598000000     2.117506000000    -1.056213000000     1.007825032230
      Gh(O)           2.258056000000    -1.030970000000     0.237516000000    15.994914619570
      Gh(H)           2.691734000000    -0.383332000000     0.814519000000     1.007825032230
      Gh(H)           2.334528000000    -0.786860000000    -0.703473000000     1.007825032230
         O           -0.907363000000    -1.944297000000     0.044354000000    15.994914619570
         H           -1.273537000000    -2.411135000000    -0.753502000000     1.007825032230
         H           -1.634033000000    -1.924246000000     0.641980000000     1.007825032230
      Gh(O)          -2.039574000000     0.663792000000    -0.777922000000    15.994914619570
      Gh(H)          -1.939320000000     1.285531000000    -1.453140000000     1.007825032230
      Gh(H)          -2.627457000000    -0.060953000000    -1.090527000000     1.007825032230

  Charge       = 0
  Multiplicity = 1
  Basis Set: AUG-CC-PVTZ
    Blend: AUG-CC-PVTZ
  Basis Set: (AUG-CC-PVTZ AUX)
    Blend: AUG-CC-PVTZ-JKFIT + DEF2-UNIVERSAL-JKFIT

    Orbital Energies [Eh]
    ---------------------

    Doubly Occupied:

       1A    -20.569071     2A     -1.349459     3A     -0.710551
       4A     -0.584359     5A     -0.509791

  @DF-RHF Final Energy:   -76.05845529528501

   => Energetics <=

    Nuclear Repulsion Energy =              9.1041361685346391
    One-Electron Energy =                -122.8787200176633263
    Two-Electron Energy =                  37.7161285538436744
    Total Energy =                        -76.0584552952850146
 Dipole X            :         18.4892168          -19.2118515           -0.7226347
 Dipole Y            :         37.2945086          -37.5861934           -0.2916848
 Dipole Z            :         -0.5830557            0.4597893           -0.1232665
 Magnitude           :                                                    0.7889712
  Basis Set: (AUG-CC-PVTZ AUX)
    Blend: AUG-CC-PVTZ-RI + DEF2-QZVPP-RI
	 Reference Energy          =     -76.0584552952850146 [Eh]
	 Singles Energy            =      -0.0000000000000000 [Eh]
	 Same-Spin Energy          =      -0.0686115756597767 [Eh]
	 Opposite-Spin Energy      =      -0.2166095216986029 [Eh]
	 Correlation Energy        =      -0.2852210973583796 [Eh]
	 Total Energy              =     -76.3436763926433883 [Eh]

	 ================> DF-SCS-MP2 Energies <==================
	-----------------------------------------------------------
	 SCS Same-Spin Scale       =       0.3333333333333333 [-]
	 SCS Opposite-Spin Scale   =       1.2000000000000000 [-]
	 SCS Same-Spin Energy      =      -0.0228705252199256 [Eh]
	 SCS Opposite-Spin Energy  =      -0.2599314260383235 [Eh]
	 SCS Correlation Energy    =      -0.2828019512582490 [Eh]
	 SCS Total Energy          =     -76.3412572465432646 [Eh]
	-----------------------------------------------------------

*** Psi4 exiting successfully. Buy a developer a beer!
