                               Psi4 1.8.2 release

  ==> Input File <==

--------------------------------------------------------------------------
MEMORY 60 GB

molecule dimer {
1 1
Na         0.000000     0.000000     0.000000
O         -0.332121    -2.281891     0.576606
H         -1.173755    -2.765721     0.225709
H          0.345779    -2.960927     0.521459
O          2.135977     0.253593     1.268585
H          2.395913    -0.668918     1.468574
H          2.696168     0.571416     0.528307
O         -2.315517     0.356728    -0.409186
H         -3.138798    -0.072402    -0.267720
H         -2.580394     1.283071    -0.200079
O          0.868281    -0.723066    -1.877874
H          0.164617    -1.195673    -2.317550
H          1.489308    -1.410794    -1.674628

units ang
no_reorient
no_com
symmetry c1
}

set {
basis        aug-cc-pVTZ
scf_type     df
}

energy("mp2")
--------------------------------------------------------------------------

    Molecular point group: c1

    Geometry (in Angstrom), charge = 1, multiplicity = 1:

       Center              X                  Y                   Z               Mass
    ------------   -----------------  -----------------  -----------------  -----------------
         NA           0.000000000000     0.000000000000     0.000000000000    22.989769282000
         O           -0.332121000000    -2.281891000000     0.576606000000    15.994914619570
         H           -1.173755000000    -2.765721000000     0.225709000000     1.007825032230
         H            0.345779000000    -2.960927000000     0.521459000000     1.007825032230
         O            2.135977000000     0.253593000000     1.268585000000    15.994914619570
         H            2.395913000000    -0.668918000000     1.468574000000     1.007825032230
         H            2.696168000000     0.571416000000     0.528307000000     1.007825032230
         O           -2.315517000000     0.356728000000    -0.409186000000    15.994914619570
         H           -3.138798000000    -0.072402000000    -0.267720000000     1.007825032230
         H           -2.580394000000     1.283071000000    -0.200079000000     1.007825032230
         O            0.868281000000    -0.723066000000    -1.877874000000    15.994914619570
         H            0.164617000000    -1.195673000000    -2.317550000000     1.007825032230
         H            1.489308000000    -1.410794000000    -1.674628000000     1.007825032230

  Charge       = 1
  Multiplicity = 1
  Basis Set: AUG-CC-PVTZ
    Blend: AUG-CC-PVTZ
  Basis Set: (AUG-CC-PVTZ AUX)
    Blend: AUG-CC-PVTZ-JKFIT + DEF2-UNIVERSAL-JKFIT

    Orbital Energies [Eh]
    ---------------------

    Doubly Occupied:

       1A    -40.583715     2A    -20.748804     3A    -20.741847
       4A    -20.740859     5A    -20.732352     6A     -2.906798
       7A     -1.633191     8A     -1.631176     9A     -1.630563
      10A     -1.537781    11A     -1.528651    12A     -1.514896
      13A     -1.504618    14A     -0.897124    15A     -0.878989
      16A     -0.875054    17A     -0.871253    18A     -0.782363
      19A     -0.777202    20A     -0.768525    21A     -0.741385
      22A     -0.707776    23A     -0.688108    24A     -0.680715
      25A     -0.675857

  @DF-RHF Final Energy:  -466.00524996093674

   => Energetics <=

    Nuclear Repulsion Energy =            216.4844713483978467
    One-Electron Energy =               -1071.4202396890373166
    Two-Electron Energy =                 388.9305183797027325
    Total Energy =                       -466.0052499609367374
 Dipole X            :         -6.1602517            5.7670624           -0.3931893
 Dipole Y            :         47.9915567          -49.8453740           -1.8538174
 Dipole Z            :          9.3258443           -9.9227251           -0.5968808
 Magnitude           :                                                    1.9868325
  Basis Set: (AUG-CC-PVTZ AUX)
    Blend: AUG-CC-PVTZ-RI + DEF2-QZVPP-RI
	 Reference Energy          =    -466.0052499609367374 [Eh]
	 Singles Energy            =      -0.0000000000000000 [Eh]
	 Same-Spin Energy          =      -0.2811211331041590 [Eh]
	 Opposite-Spin Energy      =      -0.8812004479328653 [Eh]
	 Correlation Energy        =      -1.1623215810370242 [Eh]
	 Total Energy              =    -467.1675715419737571 [Eh]

	 ================> DF-SCS-MP2 Energies <==================
	-----------------------------------------------------------
	 SCS Same-Spin Scale       =       0.3333333333333333 [-]
	 SCS Opposite-Spin Scale   =       1.2000000000000000 [-]
	 SCS Same-Spin Energy      =      -0.0937070443680530 [Eh]
	 SCS Opposite-Spin Energy  =      -1.0574405375194385 [Eh]
	 SCS Correlation Energy    =      -1.1511475818874914 [Eh]
	 SCS Total Energy          =    -467.1563975428242088 [Eh]
	-----------------------------------------------------------

*** Psi4 exiting successfully. Buy a developer a beer!
