                               Psi4 1.8.2 release

  ==> Input File <==

--------------------------------------------------------------------------
MEMORY 60 GB

molecule dimer {
0 1
Gh(Na)     0.000000     0.000000     0.000000
Gh(O)      1.141551    -0.269713    -2.063354
Gh(H)      0.581191     0.178954    -2.697423
Gh(H)      1.852964     0.355336    -1.816107
Gh(O)     -1.079228    -1.527136     1.353753
Gh(H)     -0.231296    -1.832250     1.704646
Gh(H)     -1.535491    -1.112505     2.099170
O          1.382305     1.712080     0.506694
H          2.284929     1.263696     0.506647
H          1.263960     2.214578     1.342307
Gh(O)     -1.935349     1.087739    -0.470061
Gh(H)     -2.792958     0.609916    -0.258886
Gh(H)     -2.113097     1.840844    -1.058981

units ang
no_reorient
no_com
symmetry c1
}

set {
basis        aug-cc-pVTZ
scf_type     df
}

energy("mp2")
--------------------------------------------------------------------------

    Molecular point group: c1

    Geometry (in Angstrom), charge = 0, multiplicity = 1:

       Center              X                  Y                   Z               Mass
    ------------   -----------------  -----------------  -----------------  -----------------
      Gh(NA)          0.000000000000     0.000000000000     0.000000000000    22.989769282000
      Gh(O)           1.141551000000    -0.269713000000    -2.063354000000    15.994914619570
      Gh(H)           0.581191000000     0.178954000000    -2.697423000000     1.007825032230
      Gh(H)           1.852964000000     0.355336000000    -1.816107000000     1.007825032230
      Gh(O)          -1.079228000000    -1.527136000000     1.353753000000    15.994914619570
      Gh(H)          -0.231296000000    -1.832250000000     1.704646000000     1.007825032230
      Gh(H)          -1.535491000000    -1.112505000000     2.099170000000     1.007825032230
         O            1.382305000000     1.712080000000     0.506694000000    15.994914619570
         H            2.284929000000     1.263696000000     0.506647000000     1.007825032230
         H            1.263960000000     2.214578000000     1.342307000000     1.007825032230
      Gh(O)          -1.935349000000     1.087739000000    -0.470061000000    15.994914619570
      Gh(H)          -2.792958000000     0.609916000000    -0.258886000000     1.007825032230
      Gh(H)          -2.113097000000     1.840844000000    -1.058981000000     1.007825032230

  Charge       = 0
  Multiplicity = 1
  Basis Set: AUG-CC-PVTZ
    Blend: AUG-CC-PVTZ
  Basis Set: (AUG-CC-PVTZ AUX)
    Blend: AUG-CC-PVTZ-JKFIT + DEF2-UNIVERSAL-JKFIT

    Orbital Energies [Eh]
    ---------------------

    Doubly Occupied:

       1A    -20.570950     2A     -1.331623     3A     -0.706367
       4A     -0.567840     5A     -0.505706

  @DF-RHF Final Energy:   -76.05474599221506

   => Energetics <=

    Nuclear Repulsion Energy =              8.8358393320057864
    One-Electron Energy =                -122.4161938427608618
    Two-Electron Energy =                  37.5256085185399968
    Total Energy =                        -76.0547459922150750
 Dipole X            :        -27.0888261           27.6038512            0.5150251
 Dipole Y            :        -32.4178095           32.4558837            0.0380742
 Dipole Z            :        -10.6012172           11.1541198            0.5529026
 Magnitude           :                                                    0.7565724
  Basis Set: (AUG-CC-PVTZ AUX)
    Blend: AUG-CC-PVTZ-RI + DEF2-QZVPP-RI
	 Reference Energy          =     -76.0547459922150608 [Eh]
	 Singles Energy            =      -0.0000000000000000 [Eh]
	 Same-Spin Energy          =      -0.0689989379876906 [Eh]
	 Opposite-Spin Energy      =      -0.2176533300426653 [Eh]
	 Correlation Energy        =      -0.2866522680303559 [Eh]
	 Total Energy              =     -76.3413982602454126 [Eh]

	 ================> DF-SCS-MP2 Energies <==================
	-----------------------------------------------------------
	 SCS Same-Spin Scale       =       0.3333333333333333 [-]
	 SCS Opposite-Spin Scale   =       1.2000000000000000 [-]
	 SCS Same-Spin Energy      =      -0.0229996459958969 [Eh]
	 SCS Opposite-Spin Energy  =      -0.2611839960511984 [Eh]
	 SCS Correlation Energy    =      -0.2841836420470952 [Eh]
	 SCS Total Energy          =     -76.3389296342621577 [Eh]
	-----------------------------------------------------------

*** Psi4 exiting successfully. Buy a developer a beer!
