                               Psi4 1.8.2 release

  ==> Input File <==

--------------------------------------------------------------------------
MEMORY 60 GB

molecule dimer {
1 1
Na         0.000000     0.000000     0.000000
O          2.161813     1.206626    -0.266700
H          2.702963     0.459594    -0.645875
H          2.788583     1.720992     0.282642
O         -0.556590    -0.575984    -2.179488
H         -1.017472     0.122616    -2.697717
H          0.357469    -0.689631    -2.443771
O          0.229150     0.481834     2.206901
H         -0.313539     1.262282     2.430655
H          0.022652    -0.088819     2.940612
O         -0.111430    -2.057137     0.450586
H         -0.126469    -2.559975    -0.403823
H         -0.555096    -2.521016     1.178518
O         -1.173824     1.990268    -0.285624
H         -1.323983     2.704336    -0.895645
H         -1.221891     2.483177     0.551307

units ang
no_reorient
no_com
symmetry c1
}

set {
basis        aug-cc-pVTZ
scf_type     df
}

energy("mp2")
--------------------------------------------------------------------------

    Molecular point group: c1

    Geometry (in Angstrom), charge = 1, multiplicity = 1:

       Center              X                  Y                   Z               Mass
    ------------   -----------------  -----------------  -----------------  -----------------
         NA           0.000000000000     0.000000000000     0.000000000000    22.989769282000
         O            2.161813000000     1.206626000000    -0.266700000000    15.994914619570
         H            2.702963000000     0.459594000000    -0.645875000000     1.007825032230
         H            2.788583000000     1.720992000000     0.282642000000     1.007825032230
         O           -0.556590000000    -0.575984000000    -2.179488000000    15.994914619570
         H           -1.017472000000     0.122616000000    -2.697717000000     1.007825032230
         H            0.357469000000    -0.689631000000    -2.443771000000     1.007825032230
         O            0.229150000000     0.481834000000     2.206901000000    15.994914619570
         H           -0.313539000000     1.262282000000     2.430655000000     1.007825032230
         H            0.022652000000    -0.088819000000     2.940612000000     1.007825032230
         O           -0.111430000000    -2.057137000000     0.450586000000    15.994914619570
         H           -0.126469000000    -2.559975000000    -0.403823000000     1.007825032230
         H           -0.555096000000    -2.521016000000     1.178518000000     1.007825032230
         O           -1.173824000000     1.990268000000    -0.285624000000    15.994914619570
         H           -1.323983000000     2.704336000000    -0.895645000000     1.007825032230
         H           -1.221891000000     2.483177000000     0.551307000000     1.007825032230

  Charge       = 1
  Multiplicity = 1
  Basis Set: AUG-CC-PVTZ
    Blend: AUG-CC-PVTZ
  Basis Set: (AUG-CC-PVTZ AUX)
    Blend: AUG-CC-PVTZ-JKFIT + DEF2-UNIVERSAL-JKFIT

    Orbital Energies [Eh]
    ---------------------

    Doubly Occupied:

       1A    -40.533549     2A    -20.727014     3A    -20.726756
       4A    -20.723677     5A    -20.723024     6A    -20.715841
       7A     -2.860715     8A     -1.589240     9A     -1.587402
      10A     -1.584901    11A     -1.516263    12A     -1.512951
      13A     -1.503380    14A     -1.497020    15A     -1.484373
      16A     -0.889906    17A     -0.880548    18A     -0.873723
      19A     -0.859355    20A     -0.849073    21A     -0.770389
      22A     -0.762288    23A     -0.740804    24A     -0.733991
      25A     -0.731419    26A     -0.676787    27A     -0.673976
      28A     -0.672470    29A     -0.670176    30A     -0.655552

  @DF-RHF Final Energy:  -542.07822473073713

   => Energetics <=

    Nuclear Repulsion Energy =            311.3187264207384146
    One-Electron Energy =               -1365.3407702694635191
    Two-Electron Energy =                 511.9438191179880278
    Total Energy =                       -542.0782247307371335
 Dipole X            :        -10.6329185           10.7830966            0.1501782
 Dipole Y            :        -20.6597489           21.2753153            0.6155664
 Dipole Z            :          0.8441744           -0.5625658            0.2816086
 Magnitude           :                                                    0.6933822
  Basis Set: (AUG-CC-PVTZ AUX)
    Blend: AUG-CC-PVTZ-RI + DEF2-QZVPP-RI
	 Reference Energy          =    -542.0782247307371335 [Eh]
	 Singles Energy            =      -0.0000000000000000 [Eh]
	 Same-Spin Energy          =      -0.3522843180363721 [Eh]
	 Opposite-Spin Energy      =      -1.1015937171534880 [Eh]
	 Correlation Energy        =      -1.4538780351898601 [Eh]
	 Total Energy              =    -543.5321027659269930 [Eh]

	 ================> DF-SCS-MP2 Energies <==================
	-----------------------------------------------------------
	 SCS Same-Spin Scale       =       0.3333333333333333 [-]
	 SCS Opposite-Spin Scale   =       1.2000000000000000 [-]
	 SCS Same-Spin Energy      =      -0.1174281060121240 [Eh]
	 SCS Opposite-Spin Energy  =      -1.3219124605841854 [Eh]
	 SCS Correlation Energy    =      -1.4393405665963095 [Eh]
	 SCS Total Energy          =    -543.5175652973334763 [Eh]
	-----------------------------------------------------------

*** Psi4 exiting successfully. Buy a developer a beer!
