                               Psi4 1.8.2 release

  ==> Input File <==

--------------------------------------------------------------------------
MEMORY 60 GB

molecule dimer {
1 1
Na         0.000000     0.000000     0.000000
Gh(O)      0.659986    -2.040507     0.606036
Gh(H)      0.158925    -2.823573     0.524427
Gh(H)      1.510866    -2.288362     0.337845
Gh(O)      2.115452     0.634802     0.818018
Gh(H)      2.351575     1.571131     0.886082
Gh(H)      2.064804     0.316408     1.680790
Gh(O)     -2.136022     0.705726    -0.204914
Gh(H)     -2.636726     0.821809    -1.022408
Gh(H)     -2.660104     0.011381     0.299743

units ang
no_reorient
no_com
symmetry c1
}

set {
basis        aug-cc-pVTZ
scf_type     df
}

energy("mp2")
--------------------------------------------------------------------------

    Molecular point group: c1

    Geometry (in Angstrom), charge = 1, multiplicity = 1:

       Center              X                  Y                   Z               Mass
    ------------   -----------------  -----------------  -----------------  -----------------
         NA           0.000000000000     0.000000000000     0.000000000000    22.989769282000
      Gh(O)           0.659986000000    -2.040507000000     0.606036000000    15.994914619570
      Gh(H)           0.158925000000    -2.823573000000     0.524427000000     1.007825032230
      Gh(H)           1.510866000000    -2.288362000000     0.337845000000     1.007825032230
      Gh(O)           2.115452000000     0.634802000000     0.818018000000    15.994914619570
      Gh(H)           2.351575000000     1.571131000000     0.886082000000     1.007825032230
      Gh(H)           2.064804000000     0.316408000000     1.680790000000     1.007825032230
      Gh(O)          -2.136022000000     0.705726000000    -0.204914000000    15.994914619570
      Gh(H)          -2.636726000000     0.821809000000    -1.022408000000     1.007825032230
      Gh(H)          -2.660104000000     0.011381000000     0.299743000000     1.007825032230

  Charge       = 1
  Multiplicity = 1
  Basis Set: AUG-CC-PVTZ
    Blend: AUG-CC-PVTZ
  Basis Set: (AUG-CC-PVTZ AUX)
    Blend: AUG-CC-PVTZ-JKFIT + DEF2-UNIVERSAL-JKFIT

    Orbital Energies [Eh]
    ---------------------

    Doubly Occupied:

       1A    -40.760963     2A     -3.074057     3A     -1.797452
       4A     -1.797395     5A     -1.797246

  @DF-RHF Final Energy:  -161.67607481532005

   => Energetics <=

    Nuclear Repulsion Energy =              0.0000000000000000
    One-Electron Energy =                -224.8979265440980839
    Two-Electron Energy =                  63.2218517287780415
    Total Energy =                       -161.6760748153200495
 Dipole X            :          0.0000161            0.0000000            0.0000161
 Dipole Y            :         -0.0000236            0.0000000           -0.0000236
 Dipole Z            :          0.0001980            0.0000000            0.0001980
 Magnitude           :                                                    0.0002001
  Basis Set: (AUG-CC-PVTZ AUX)
    Blend: AUG-CC-PVTZ-RI + DEF2-QZVPP-RI
	 Reference Energy          =    -161.6760748153200495 [Eh]
	 Singles Energy            =      -0.0000000000000000 [Eh]
	 Same-Spin Energy          =      -0.0045749343130695 [Eh]
	 Opposite-Spin Energy      =      -0.0149510078033029 [Eh]
	 Correlation Energy        =      -0.0195259421163724 [Eh]
	 Total Energy              =    -161.6956007574364094 [Eh]

	 ================> DF-SCS-MP2 Energies <==================
	-----------------------------------------------------------
	 SCS Same-Spin Scale       =       0.3333333333333333 [-]
	 SCS Opposite-Spin Scale   =       1.2000000000000000 [-]
	 SCS Same-Spin Energy      =      -0.0015249781043565 [Eh]
	 SCS Opposite-Spin Energy  =      -0.0179412093639635 [Eh]
	 SCS Correlation Energy    =      -0.0194661874683200 [Eh]
	 SCS Total Energy          =    -161.6955410027883602 [Eh]
	-----------------------------------------------------------

*** Psi4 exiting successfully. Buy a developer a beer!
