                               Psi4 1.8.2 release

  ==> Input File <==

--------------------------------------------------------------------------
MEMORY 60 GB

molecule dimer {
1 1
Na         0.000000     0.000000     0.000000
Gh(O)      0.327213    -1.859611     1.348713
Gh(H)      0.542964    -2.554233     0.688897
Gh(H)     -0.548316    -2.057300     1.663678
Gh(O)      1.960777     1.106108    -0.764745
Gh(H)      1.831324     2.060066    -0.784795
Gh(H)      2.497879     1.060595    -1.621372
Gh(O)     -0.358398    -1.218556    -1.863096
Gh(H)      0.174529    -1.439270    -2.616413
Gh(H)     -0.633326    -2.005493    -1.343861
Gh(O)     -1.731597     1.753884    -0.356645
Gh(H)     -1.112098     2.484718    -0.459952
Gh(H)     -1.915209     1.784048     0.600745
Gh(O)      0.225207     1.568908     1.853126
Gh(H)      0.455797     0.843306     2.428642
Gh(H)      0.938072     2.204615     1.866753

units ang
no_reorient
no_com
symmetry c1
}

set {
basis        aug-cc-pVTZ
scf_type     df
}

energy("mp2")
--------------------------------------------------------------------------

    Molecular point group: c1

    Geometry (in Angstrom), charge = 1, multiplicity = 1:

       Center              X                  Y                   Z               Mass
    ------------   -----------------  -----------------  -----------------  -----------------
         NA           0.000000000000     0.000000000000     0.000000000000    22.989769282000
      Gh(O)           0.327213000000    -1.859611000000     1.348713000000    15.994914619570
      Gh(H)           0.542964000000    -2.554233000000     0.688897000000     1.007825032230
      Gh(H)          -0.548316000000    -2.057300000000     1.663678000000     1.007825032230
      Gh(O)           1.960777000000     1.106108000000    -0.764745000000    15.994914619570
      Gh(H)           1.831324000000     2.060066000000    -0.784795000000     1.007825032230
      Gh(H)           2.497879000000     1.060595000000    -1.621372000000     1.007825032230
      Gh(O)          -0.358398000000    -1.218556000000    -1.863096000000    15.994914619570
      Gh(H)           0.174529000000    -1.439270000000    -2.616413000000     1.007825032230
      Gh(H)          -0.633326000000    -2.005493000000    -1.343861000000     1.007825032230
      Gh(O)          -1.731597000000     1.753884000000    -0.356645000000    15.994914619570
      Gh(H)          -1.112098000000     2.484718000000    -0.459952000000     1.007825032230
      Gh(H)          -1.915209000000     1.784048000000     0.600745000000     1.007825032230
      Gh(O)           0.225207000000     1.568908000000     1.853126000000    15.994914619570
      Gh(H)           0.455797000000     0.843306000000     2.428642000000     1.007825032230
      Gh(H)           0.938072000000     2.204615000000     1.866753000000     1.007825032230

  Charge       = 1
  Multiplicity = 1
  Basis Set: AUG-CC-PVTZ
    Blend: AUG-CC-PVTZ
  Basis Set: (AUG-CC-PVTZ AUX)
    Blend: AUG-CC-PVTZ-JKFIT + DEF2-UNIVERSAL-JKFIT

    Orbital Energies [Eh]
    ---------------------

    Doubly Occupied:

       1A    -40.760393     2A     -3.073777     3A     -1.797146
       4A     -1.797132     5A     -1.797086

  @DF-RHF Final Energy:  -161.67609310014899

   => Energetics <=

    Nuclear Repulsion Energy =              0.0000000000000000
    One-Electron Energy =                -224.9011197444680477
    Two-Electron Energy =                  63.2250266443190512
    Total Energy =                       -161.6760931001489894
 Dipole X            :         -0.0000168            0.0000000           -0.0000168
 Dipole Y            :          0.0000422            0.0000000            0.0000422
 Dipole Z            :          0.0000440            0.0000000            0.0000440
 Magnitude           :                                                    0.0000632
  Basis Set: (AUG-CC-PVTZ AUX)
    Blend: AUG-CC-PVTZ-RI + DEF2-QZVPP-RI
	 Reference Energy          =    -161.6760931001489894 [Eh]
	 Singles Energy            =      -0.0000000000000000 [Eh]
	 Same-Spin Energy          =      -0.0061459855386846 [Eh]
	 Opposite-Spin Energy      =      -0.0190096358431202 [Eh]
	 Correlation Energy        =      -0.0251556213818048 [Eh]
	 Total Energy              =    -161.7012487215307885 [Eh]

	 ================> DF-SCS-MP2 Energies <==================
	-----------------------------------------------------------
	 SCS Same-Spin Scale       =       0.3333333333333333 [-]
	 SCS Opposite-Spin Scale   =       1.2000000000000000 [-]
	 SCS Same-Spin Energy      =      -0.0020486618462282 [Eh]
	 SCS Opposite-Spin Energy  =      -0.0228115630117442 [Eh]
	 SCS Correlation Energy    =      -0.0248602248579724 [Eh]
	 SCS Total Energy          =    -161.7009533250069637 [Eh]
	-----------------------------------------------------------

*** Psi4 exiting successfully. Buy a developer a beer!
