                               Psi4 1.8.2 release

  ==> Input File <==

--------------------------------------------------------------------------
MEMORY 60 GB

molecule dimer {
1 1
Na         0.000000     0.000000     0.000000
O          0.954819     1.660987    -1.074380
H          0.801764     2.636974    -1.072418
H          1.647407     1.475023    -1.768699
O          1.731358    -1.499028    -0.404719
H          1.341958    -2.259563     0.035339
H          1.778928    -1.780792    -1.299789
O          0.649501     0.267862     2.064278
H          1.262818     0.937200     2.368076
H          0.594691    -0.289524     2.874892
O         -1.650746     1.627578     1.227517
H         -0.937475     1.262507     1.773525
H         -2.433155     1.122101     1.300427
O         -1.573423    -0.329419    -1.795216
H         -2.311819     0.249475    -2.145586
H         -1.174989    -0.659191    -2.614392

units ang
no_reorient
no_com
symmetry c1
}

set {
basis        aug-cc-pVTZ
scf_type     df
}

energy("mp2")
--------------------------------------------------------------------------

    Molecular point group: c1

    Geometry (in Angstrom), charge = 1, multiplicity = 1:

       Center              X                  Y                   Z               Mass
    ------------   -----------------  -----------------  -----------------  -----------------
         NA           0.000000000000     0.000000000000     0.000000000000    22.989769282000
         O            0.954819000000     1.660987000000    -1.074380000000    15.994914619570
         H            0.801764000000     2.636974000000    -1.072418000000     1.007825032230
         H            1.647407000000     1.475023000000    -1.768699000000     1.007825032230
         O            1.731358000000    -1.499028000000    -0.404719000000    15.994914619570
         H            1.341958000000    -2.259563000000     0.035339000000     1.007825032230
         H            1.778928000000    -1.780792000000    -1.299789000000     1.007825032230
         O            0.649501000000     0.267862000000     2.064278000000    15.994914619570
         H            1.262818000000     0.937200000000     2.368076000000     1.007825032230
         H            0.594691000000    -0.289524000000     2.874892000000     1.007825032230
         O           -1.650746000000     1.627578000000     1.227517000000    15.994914619570
         H           -0.937475000000     1.262507000000     1.773525000000     1.007825032230
         H           -2.433155000000     1.122101000000     1.300427000000     1.007825032230
         O           -1.573423000000    -0.329419000000    -1.795216000000    15.994914619570
         H           -2.311819000000     0.249475000000    -2.145586000000     1.007825032230
         H           -1.174989000000    -0.659191000000    -2.614392000000     1.007825032230

  Charge       = 1
  Multiplicity = 1
  Basis Set: AUG-CC-PVTZ
    Blend: AUG-CC-PVTZ
  Basis Set: (AUG-CC-PVTZ AUX)
    Blend: AUG-CC-PVTZ-JKFIT + DEF2-UNIVERSAL-JKFIT

    Orbital Energies [Eh]
    ---------------------

    Doubly Occupied:

       1A    -40.553559     2A    -20.755033     3A    -20.732250
       4A    -20.724865     5A    -20.724655     6A    -20.685388
       7A     -2.879153     8A     -1.606879     9A     -1.604923
      10A     -1.603440    11A     -1.541117    12A     -1.527266
      13A     -1.496978    14A     -1.491816    15A     -1.479444
      16A     -0.890934    17A     -0.886117    18A     -0.871415
      19A     -0.859993    20A     -0.852103    21A     -0.798373
      22A     -0.763997    23A     -0.753325    24A     -0.745229
      25A     -0.718383    26A     -0.685958    27A     -0.683463
      28A     -0.674170    29A     -0.659149    30A     -0.637813

  @DF-RHF Final Energy:  -542.07807913237014

   => Energetics <=

    Nuclear Repulsion Energy =            309.8172259301475151
    One-Electron Energy =               -1362.0162244130683575
    Two-Electron Energy =                 510.1209193505507073
    Total Energy =                       -542.0780791323701351
 Dipole X            :         -2.2921059            2.7631575            0.4710516
 Dipole Y            :        -31.6359618           31.2145906           -0.4213712
 Dipole Z            :          0.4263322           -0.7724917           -0.3461595
 Magnitude           :                                                    0.7206037
  Basis Set: (AUG-CC-PVTZ AUX)
    Blend: AUG-CC-PVTZ-RI + DEF2-QZVPP-RI
	 Reference Energy          =    -542.0780791323701351 [Eh]
	 Singles Energy            =      -0.0000000000000000 [Eh]
	 Same-Spin Energy          =      -0.3534391684851926 [Eh]
	 Opposite-Spin Energy      =      -1.1031269690360359 [Eh]
	 Correlation Energy        =      -1.4565661375212284 [Eh]
	 Total Energy              =    -543.5346452698913708 [Eh]

	 ================> DF-SCS-MP2 Energies <==================
	-----------------------------------------------------------
	 SCS Same-Spin Scale       =       0.3333333333333333 [-]
	 SCS Opposite-Spin Scale   =       1.2000000000000000 [-]
	 SCS Same-Spin Energy      =      -0.1178130561617309 [Eh]
	 SCS Opposite-Spin Energy  =      -1.3237523628432430 [Eh]
	 SCS Correlation Energy    =      -1.4415654190049738 [Eh]
	 SCS Total Energy          =    -543.5196445513751087 [Eh]
	-----------------------------------------------------------

*** Psi4 exiting successfully. Buy a developer a beer!
