                               Psi4 1.9 release

  ==> Input File <==

--------------------------------------------------------------------------
MEMORY 60 GB

molecule dimer {
1 1
Na     0.000000     0.000000     0.000000
--
0 1
O     -1.982434     0.371909     1.103721
H     -1.999968    -0.133509     1.915544
H     -2.677161    -0.029523     0.520499
O     -0.506861     1.576105    -1.534582
H     -1.312414     2.123471    -1.457035
H      0.255777     2.156557    -1.829559
O      1.680895    -0.267523    -1.814314
H      1.826160     0.587119    -2.126473
H      2.577908    -0.601219    -1.659205
O      1.269075    -0.963815     1.515438
H      1.588209    -1.762903     1.072335
H      1.939449    -0.207875     1.425336

units ang
no_reorient
no_com
symmetry c1
}

set {
basis        aug-cc-pVTZ
scf_type     df
}

energy("mp2", bsse_type="cp")
--------------------------------------------------------------------------

                               Psi4 1.9 release
    Molecular point group: c1
  Charge       = 0
  Multiplicity = 1
  Basis Set: AUG-CC-PVTZ
    Blend: AUG-CC-PVTZ
  Basis Set: (AUG-CC-PVTZ AUX)
    Blend: AUG-CC-PVTZ-JKFIT + DEF2-UNIVERSAL-JKFIT
  @DF-RHF Final Energy:  -304.21511071693834
    Total Energy =                       -304.2151107169383408
 Dipole X            :        -10.3515088           11.1179391            0.7664303
 Dipole Y            :        -14.4494462           14.8636900            0.4142438
 Dipole Z            :         14.6387669          -15.0733135           -0.4345466
 Magnitude           :                                                    0.9735728
  Basis Set: (AUG-CC-PVTZ AUX)
    Blend: AUG-CC-PVTZ-RI + DEF2-QZVPP-RI
	 Reference Energy          =    -304.2151107169383408 [Eh]
	 Singles Energy            =      -0.0000000000000000 [Eh]
	 Same-Spin Energy          =      -0.2767282177040711 [Eh]
	 Opposite-Spin Energy      =      -0.8693028113979927 [Eh]
	 Correlation Energy        =      -1.1460310291020637 [Eh]
	 Total Energy              =    -305.3611417460404027 [Eh]
	 SCS Total Energy          =    -305.3505168298506192 [Eh]
                               Psi4 1.9 release
    Molecular point group: c1
  Multiplicity = 1
  Basis Set: AUG-CC-PVTZ
    Blend: AUG-CC-PVTZ
  Basis Set: (AUG-CC-PVTZ AUX)
    Blend: AUG-CC-PVTZ-JKFIT + DEF2-UNIVERSAL-JKFIT
  @DF-RHF Final Energy:  -161.67608456739421
    Total Energy =                       -161.6760845673942129
  Basis Set: (AUG-CC-PVTZ AUX)
	 Singles Energy            =      -0.0000000000000000 [Eh]
	 Same-Spin Energy          =      -0.0055720670844094 [Eh]
	 Opposite-Spin Energy      =      -0.0175643940566095 [Eh]
	 Correlation Energy        =      -0.0231364611410189 [Eh]
	 Total Energy              =    -161.6992210285352201 [Eh]
	 SCS Total Energy          =    -161.6990191959569358 [Eh]
                               Psi4 1.9 release
    Molecular point group: c1

    Geometry (in Bohr), charge = 1, multiplicity = 1:

       Center              X                  Y                   Z               Mass
    ------------   -----------------  -----------------  -----------------  -----------------
         NA           0.000000000000     0.000000000000     0.000000000000    22.989769282000
         O           -3.746257321796     0.702806153593     2.085730408916    15.994914619570
         H           -3.779391779680    -0.252295445284     3.619853541264     1.007825032230
         H           -5.059101083757    -0.055790384402     0.983600558575     1.007825032230
         O           -0.957828473676     2.978406794965    -2.899939697057    15.994914619570
         H           -2.480103023217     4.012778625352    -2.753397105206     1.007825032230
         H            0.483348479191     4.075302103939    -3.457365440366     1.007825032230
         O            3.176431195651    -0.505545202261    -3.428556565584    15.994914619570
         H            3.450942261266     1.109494113053    -4.018451583181     1.007825032230
         H            4.871540096627    -1.136139251422    -3.135443035990     1.007825032230
         O            2.398204182665    -1.821346385608     2.863762780112    15.994914619570
         H            3.001280039987    -3.331403855748     2.026419464743     1.007825032230
         H            3.665027444293    -0.392826818330     2.693494676756     1.007825032230

  Charge       = 1
  Multiplicity = 1
  Basis Set: AUG-CC-PVTZ
    Blend: AUG-CC-PVTZ
  Basis Set: (AUG-CC-PVTZ AUX)
    Blend: AUG-CC-PVTZ-JKFIT + DEF2-UNIVERSAL-JKFIT

    Orbital Energies [Eh]
    ---------------------

    Doubly Occupied:

       1A    -40.578826     2A    -20.751020     3A    -20.744542
       4A    -20.738927     5A    -20.736808     6A     -2.904329
       7A     -1.631280     8A     -1.629542     9A     -1.628107
      10A     -1.537401    11A     -1.520046    12A     -1.515626
      13A     -1.512792    14A     -0.904430    15A     -0.896130
      16A     -0.882477    17A     -0.877899    18A     -0.777271
      19A     -0.760737    20A     -0.755432    21A     -0.753510
      22A     -0.704003    23A     -0.689830    24A     -0.685904
      25A     -0.684289

  @DF-RHF Final Energy:  -465.99638639003342

   => Energetics <=

    Nuclear Repulsion Energy =            219.5562556523434239
    One-Electron Energy =               -1077.5029678415075978
    Two-Electron Energy =                 391.9503257991307237
    Total Energy =                       -465.9963863900334218
 Dipole X            :        -10.2768315           11.1179391            0.8411076
 Dipole Y            :        -14.3488474           14.8636900            0.5148426
 Dipole Z            :         14.5730069          -15.0733135           -0.5003067
 Magnitude           :                                                    1.1058171
  Basis Set: (AUG-CC-PVTZ AUX)
    Blend: AUG-CC-PVTZ-RI + DEF2-QZVPP-RI
	 Reference Energy          =    -465.9963863900334218 [Eh]
	 Singles Energy            =      -0.0000000000000000 [Eh]
	 Same-Spin Energy          =      -0.2814227526227951 [Eh]
	 Opposite-Spin Energy      =      -0.8817681130849742 [Eh]
	 Correlation Energy        =      -1.1631908657077692 [Eh]
	 Total Energy              =    -467.1595772557411692 [Eh]

	 ================> DF-SCS-MP2 Energies <==================
	-----------------------------------------------------------
	 SCS Same-Spin Scale       =       0.3333333333333333 [-]
	 SCS Opposite-Spin Scale   =       1.2000000000000000 [-]
	 SCS Same-Spin Energy      =      -0.0938075842075984 [Eh]
	 SCS Opposite-Spin Energy  =      -1.0581217357019690 [Eh]
	 SCS Correlation Energy    =      -1.1519293199095673 [Eh]
	 SCS Total Energy          =    -467.1483157099430059 [Eh]
	-----------------------------------------------------------

*** Psi4 exiting successfully. Buy a developer a beer!
