                               Psi4 1.8.2 release

  ==> Input File <==

--------------------------------------------------------------------------
MEMORY 60 GB

molecule dimer {
1 1
Na         0.000000     0.000000     0.000000
O         -1.599330     1.629936    -0.826504
H         -2.060317     0.981063    -1.364915
H         -1.486177     2.393893    -1.396625
O         -0.042840    -0.395400    -2.442957
H          0.550503     0.190653    -2.874800
H         -0.913132    -0.259864    -2.869914
O         -0.515091    -0.239782     2.281892
H         -1.087173    -1.040340     2.258925
H         -0.899990     0.406767     2.844373
O          1.517695     1.592560     0.966864
H          2.451653     1.871029     1.146830
H          0.876999     1.867977     1.656428

units ang
no_reorient
no_com
symmetry c1
}

set {
basis        aug-cc-pVTZ
scf_type     df
}

energy("mp2")
--------------------------------------------------------------------------

    Molecular point group: c1

    Geometry (in Angstrom), charge = 1, multiplicity = 1:

       Center              X                  Y                   Z               Mass
    ------------   -----------------  -----------------  -----------------  -----------------
         NA           0.000000000000     0.000000000000     0.000000000000    22.989769282000
         O           -1.599330000000     1.629936000000    -0.826504000000    15.994914619570
         H           -2.060317000000     0.981063000000    -1.364915000000     1.007825032230
         H           -1.486177000000     2.393893000000    -1.396625000000     1.007825032230
         O           -0.042840000000    -0.395400000000    -2.442957000000    15.994914619570
         H            0.550503000000     0.190653000000    -2.874800000000     1.007825032230
         H           -0.913132000000    -0.259864000000    -2.869914000000     1.007825032230
         O           -0.515091000000    -0.239782000000     2.281892000000    15.994914619570
         H           -1.087173000000    -1.040340000000     2.258925000000     1.007825032230
         H           -0.899990000000     0.406767000000     2.844373000000     1.007825032230
         O            1.517695000000     1.592560000000     0.966864000000    15.994914619570
         H            2.451653000000     1.871029000000     1.146830000000     1.007825032230
         H            0.876999000000     1.867977000000     1.656428000000     1.007825032230

  Charge       = 1
  Multiplicity = 1
  Basis Set: AUG-CC-PVTZ
    Blend: AUG-CC-PVTZ
  Basis Set: (AUG-CC-PVTZ AUX)
    Blend: AUG-CC-PVTZ-JKFIT + DEF2-UNIVERSAL-JKFIT

    Orbital Energies [Eh]
    ---------------------

    Doubly Occupied:

       1A    -40.597956     2A    -20.739406     3A    -20.738343
       4A    -20.736616     5A    -20.721224     6A     -2.918375
       7A     -1.642926     8A     -1.642528     9A     -1.642178
      10A     -1.528602    11A     -1.525694    12A     -1.522460
      13A     -1.490228    14A     -0.903211    15A     -0.897687
      16A     -0.885702    17A     -0.875639    18A     -0.767205
      19A     -0.760875    20A     -0.759877    21A     -0.729371
      22A     -0.703259    23A     -0.689501    24A     -0.670968
      25A     -0.662612

  @DF-RHF Final Energy:  -466.00424746672206

   => Energetics <=

    Nuclear Repulsion Energy =            214.3168842916313963
    One-Electron Energy =               -1067.1373690052280381
    Two-Electron Energy =                 386.8162372468746071
    Total Energy =                       -466.0042474667220631
 Dipole X            :         13.6452179          -14.5209617           -0.8757438
 Dipole Y            :        -50.1512334           51.2298894            1.0786560
 Dipole Z            :          1.1264527           -1.4462792           -0.3198265
 Magnitude           :                                                    1.4257331
  Basis Set: (AUG-CC-PVTZ AUX)
    Blend: AUG-CC-PVTZ-RI + DEF2-QZVPP-RI
	 Reference Energy          =    -466.0042474667220631 [Eh]
	 Singles Energy            =      -0.0000000000000000 [Eh]
	 Same-Spin Energy          =      -0.2802394187655302 [Eh]
	 Opposite-Spin Energy      =      -0.8784483040782469 [Eh]
	 Correlation Energy        =      -1.1586877228437771 [Eh]
	 Total Energy              =    -467.1629351895658147 [Eh]

	 ================> DF-SCS-MP2 Energies <==================
	-----------------------------------------------------------
	 SCS Same-Spin Scale       =       0.3333333333333333 [-]
	 SCS Opposite-Spin Scale   =       1.2000000000000000 [-]
	 SCS Same-Spin Energy      =      -0.0934131395885101 [Eh]
	 SCS Opposite-Spin Energy  =      -1.0541379648938962 [Eh]
	 SCS Correlation Energy    =      -1.1475511044824063 [Eh]
	 SCS Total Energy          =    -467.1517985712044947 [Eh]
	-----------------------------------------------------------

*** Psi4 exiting successfully. Buy a developer a beer!
