                               Psi4 1.8.2 release

  ==> Input File <==

--------------------------------------------------------------------------
MEMORY 60 GB

molecule dimer {
1 1
Na         0.000000     0.000000     0.000000
O         -2.261961     1.217191     0.375676
H         -2.319771     0.725206     1.230404
H         -2.115469     2.079564     0.782307
O          0.486184     1.167985    -1.873883
H          1.475220     1.083745    -1.817610
H          0.344352     2.132995    -1.761720
O          0.722217     0.847010     2.215250
H          1.295874     1.594855     2.044533
H          1.115391     0.266313     2.859288
O          2.364881    -0.815744    -0.208489
H          2.395551    -1.654726     0.299478
H          2.540953    -0.931226    -1.162329
O         -1.292387    -1.428775     1.297161
H         -1.008717    -1.931975     2.092847
H         -1.907300    -1.938032     0.765697

units ang
no_reorient
no_com
symmetry c1
}

set {
basis        aug-cc-pVTZ
scf_type     df
}

energy("mp2")
--------------------------------------------------------------------------

    Molecular point group: c1

    Geometry (in Angstrom), charge = 1, multiplicity = 1:

       Center              X                  Y                   Z               Mass
    ------------   -----------------  -----------------  -----------------  -----------------
         NA           0.000000000000     0.000000000000     0.000000000000    22.989769282000
         O           -2.261961000000     1.217191000000     0.375676000000    15.994914619570
         H           -2.319771000000     0.725206000000     1.230404000000     1.007825032230
         H           -2.115469000000     2.079564000000     0.782307000000     1.007825032230
         O            0.486184000000     1.167985000000    -1.873883000000    15.994914619570
         H            1.475220000000     1.083745000000    -1.817610000000     1.007825032230
         H            0.344352000000     2.132995000000    -1.761720000000     1.007825032230
         O            0.722217000000     0.847010000000     2.215250000000    15.994914619570
         H            1.295874000000     1.594855000000     2.044533000000     1.007825032230
         H            1.115391000000     0.266313000000     2.859288000000     1.007825032230
         O            2.364881000000    -0.815744000000    -0.208489000000    15.994914619570
         H            2.395551000000    -1.654726000000     0.299478000000     1.007825032230
         H            2.540953000000    -0.931226000000    -1.162329000000     1.007825032230
         O           -1.292387000000    -1.428775000000     1.297161000000    15.994914619570
         H           -1.008717000000    -1.931975000000     2.092847000000     1.007825032230
         H           -1.907300000000    -1.938032000000     0.765697000000     1.007825032230

  Charge       = 1
  Multiplicity = 1
  Basis Set: AUG-CC-PVTZ
    Blend: AUG-CC-PVTZ
  Basis Set: (AUG-CC-PVTZ AUX)
    Blend: AUG-CC-PVTZ-JKFIT + DEF2-UNIVERSAL-JKFIT

    Orbital Energies [Eh]
    ---------------------

    Doubly Occupied:

       1A    -40.566661     2A    -20.737764     3A    -20.736604
       4A    -20.736516     5A    -20.724510     6A    -20.704667
       7A     -2.889359     8A     -1.615477     9A     -1.613909
      10A     -1.612905    11A     -1.518227    12A     -1.513505
      13A     -1.510225    14A     -1.506455    15A     -1.484175
      16A     -0.897793    17A     -0.895475    18A     -0.891305
      19A     -0.863339    20A     -0.824826    21A     -0.760567
      22A     -0.755616    23A     -0.742645    24A     -0.740827
      25A     -0.734464    26A     -0.688282    27A     -0.684448
      28A     -0.678277    29A     -0.673791    30A     -0.647567

  @DF-RHF Final Energy:  -542.07619128238184

   => Energetics <=

    Nuclear Repulsion Energy =            302.4023283449903943
    One-Electron Energy =               -1347.0566772634863355
    Two-Electron Energy =                 502.5781576361142129
    Total Energy =                       -542.0761912823818420
 Dipole X            :         -2.4820224            3.7181420            1.2361196
 Dipole Y            :        -18.0448244           17.6274692           -0.4173552
 Dipole Z            :        -36.0663088           37.3761655            1.3098567
 Magnitude           :                                                    1.8487568
  Basis Set: (AUG-CC-PVTZ AUX)
    Blend: AUG-CC-PVTZ-RI + DEF2-QZVPP-RI
	 Reference Energy          =    -542.0761912823818420 [Eh]
	 Singles Energy            =      -0.0000000000000000 [Eh]
	 Same-Spin Energy          =      -0.3520650290028319 [Eh]
	 Opposite-Spin Energy      =      -1.1011382734953772 [Eh]
	 Correlation Energy        =      -1.4532033024982092 [Eh]
	 Total Energy              =    -543.5293945848800377 [Eh]

	 ================> DF-SCS-MP2 Energies <==================
	-----------------------------------------------------------
	 SCS Same-Spin Scale       =       0.3333333333333333 [-]
	 SCS Opposite-Spin Scale   =       1.2000000000000000 [-]
	 SCS Same-Spin Energy      =      -0.1173550096676106 [Eh]
	 SCS Opposite-Spin Energy  =      -1.3213659281944525 [Eh]
	 SCS Correlation Energy    =      -1.4387209378620631 [Eh]
	 SCS Total Energy          =    -543.5149122202439003 [Eh]
	-----------------------------------------------------------

*** Psi4 exiting successfully. Buy a developer a beer!
