                               Psi4 1.8.2 release

  ==> Input File <==

--------------------------------------------------------------------------
MEMORY 60 GB

molecule dimer {
0 1
Gh(Na)     0.000000     0.000000     0.000000
Gh(O)     -0.846206     1.202595     1.854346
Gh(H)     -1.394373     1.995479     2.024959
Gh(H)     -0.648149     0.790331     2.691139
Gh(O)     -1.309742     1.323778    -1.628410
Gh(H)     -1.163522     2.267977    -1.422263
Gh(H)     -1.147540     1.263131    -2.577035
Gh(O)      1.237480    -1.823391     0.446021
Gh(H)      0.963790    -2.734554     0.597322
Gh(H)      2.174011    -1.658736     0.605497
O         -1.574568    -1.883367    -0.384367
H         -1.498784    -2.289933    -1.277612
H         -2.507560    -1.716692    -0.387422

units ang
no_reorient
no_com
symmetry c1
}

set {
basis        aug-cc-pVTZ
scf_type     df
}

energy("mp2")
--------------------------------------------------------------------------

    Molecular point group: c1

    Geometry (in Angstrom), charge = 0, multiplicity = 1:

       Center              X                  Y                   Z               Mass
    ------------   -----------------  -----------------  -----------------  -----------------
      Gh(NA)          0.000000000000     0.000000000000     0.000000000000    22.989769282000
      Gh(O)          -0.846206000000     1.202595000000     1.854346000000    15.994914619570
      Gh(H)          -1.394373000000     1.995479000000     2.024959000000     1.007825032230
      Gh(H)          -0.648149000000     0.790331000000     2.691139000000     1.007825032230
      Gh(O)          -1.309742000000     1.323778000000    -1.628410000000    15.994914619570
      Gh(H)          -1.163522000000     2.267977000000    -1.422263000000     1.007825032230
      Gh(H)          -1.147540000000     1.263131000000    -2.577035000000     1.007825032230
      Gh(O)           1.237480000000    -1.823391000000     0.446021000000    15.994914619570
      Gh(H)           0.963790000000    -2.734554000000     0.597322000000     1.007825032230
      Gh(H)           2.174011000000    -1.658736000000     0.605497000000     1.007825032230
         O           -1.574568000000    -1.883367000000    -0.384367000000    15.994914619570
         H           -1.498784000000    -2.289933000000    -1.277612000000     1.007825032230
         H           -2.507560000000    -1.716692000000    -0.387422000000     1.007825032230

  Charge       = 0
  Multiplicity = 1
  Basis Set: AUG-CC-PVTZ
    Blend: AUG-CC-PVTZ
  Basis Set: (AUG-CC-PVTZ AUX)
    Blend: AUG-CC-PVTZ-JKFIT + DEF2-UNIVERSAL-JKFIT

    Orbital Energies [Eh]
    ---------------------

    Doubly Occupied:

       1A    -20.571064     2A     -1.353773     3A     -0.700830
       4A     -0.595094     5A     -0.511412

  @DF-RHF Final Energy:   -76.05805394072813

   => Energetics <=

    Nuclear Repulsion Energy =              9.1293410366312031
    One-Electron Energy =                -122.9104419045660848
    Two-Electron Energy =                  37.7230469272067452
    Total Energy =                        -76.0580539407281435
 Dipole X            :         30.8125053          -31.3749112           -0.5624059
 Dipole Y            :         35.8905512          -36.0438065           -0.1532554
 Dipole Z            :          8.3791860           -8.9572451           -0.5780591
 Magnitude           :                                                    0.8209384
  Basis Set: (AUG-CC-PVTZ AUX)
    Blend: AUG-CC-PVTZ-RI + DEF2-QZVPP-RI
	 Reference Energy          =     -76.0580539407281293 [Eh]
	 Singles Energy            =      -0.0000000000000000 [Eh]
	 Same-Spin Energy          =      -0.0687111505219873 [Eh]
	 Opposite-Spin Energy      =      -0.2165874821557075 [Eh]
	 Correlation Energy        =      -0.2852986326776948 [Eh]
	 Total Energy              =     -76.3433525734058236 [Eh]

	 ================> DF-SCS-MP2 Energies <==================
	-----------------------------------------------------------
	 SCS Same-Spin Scale       =       0.3333333333333333 [-]
	 SCS Opposite-Spin Scale   =       1.2000000000000000 [-]
	 SCS Same-Spin Energy      =      -0.0229037168406624 [Eh]
	 SCS Opposite-Spin Energy  =      -0.2599049785868490 [Eh]
	 SCS Correlation Energy    =      -0.2828086954275114 [Eh]
	 SCS Total Energy          =     -76.3408626361556344 [Eh]
	-----------------------------------------------------------

*** Psi4 exiting successfully. Buy a developer a beer!
