                               Psi4 1.8.2 release

  ==> Input File <==

--------------------------------------------------------------------------
MEMORY 60 GB

molecule dimer {
0 1
Gh(Na)     0.000000     0.000000     0.000000
O         -0.957217     2.122090    -0.761212
H         -1.756905     1.952064    -0.198211
H         -0.493506     2.945806    -0.576286
Gh(O)      0.133480    -1.128660     2.008379
Gh(H)      0.952107    -0.954206     2.471368
Gh(H)      0.032812    -2.050612     2.218947
Gh(O)      0.989929    -0.442935    -1.982346
Gh(H)      1.363465    -1.289649    -2.267338
Gh(H)      1.775598     0.121932    -1.899567
Gh(O)     -2.129823    -0.676424    -0.211748
Gh(H)     -2.343077    -0.516159    -1.166244
Gh(H)     -2.379667    -1.590251     0.046925
Gh(O)      2.120634     0.776730     0.226244
Gh(H)      2.587905    -0.008159     0.581668
Gh(H)      2.704948     1.475568     0.516434

units ang
no_reorient
no_com
symmetry c1
}

set {
basis        aug-cc-pVTZ
scf_type     df
}

energy("mp2")
--------------------------------------------------------------------------

    Molecular point group: c1

    Geometry (in Angstrom), charge = 0, multiplicity = 1:

       Center              X                  Y                   Z               Mass
    ------------   -----------------  -----------------  -----------------  -----------------
      Gh(NA)          0.000000000000     0.000000000000     0.000000000000    22.989769282000
         O           -0.957217000000     2.122090000000    -0.761212000000    15.994914619570
         H           -1.756905000000     1.952064000000    -0.198211000000     1.007825032230
         H           -0.493506000000     2.945806000000    -0.576286000000     1.007825032230
      Gh(O)           0.133480000000    -1.128660000000     2.008379000000    15.994914619570
      Gh(H)           0.952107000000    -0.954206000000     2.471368000000     1.007825032230
      Gh(H)           0.032812000000    -2.050612000000     2.218947000000     1.007825032230
      Gh(O)           0.989929000000    -0.442935000000    -1.982346000000    15.994914619570
      Gh(H)           1.363465000000    -1.289649000000    -2.267338000000     1.007825032230
      Gh(H)           1.775598000000     0.121932000000    -1.899567000000     1.007825032230
      Gh(O)          -2.129823000000    -0.676424000000    -0.211748000000    15.994914619570
      Gh(H)          -2.343077000000    -0.516159000000    -1.166244000000     1.007825032230
      Gh(H)          -2.379667000000    -1.590251000000     0.046925000000     1.007825032230
      Gh(O)           2.120634000000     0.776730000000     0.226244000000    15.994914619570
      Gh(H)           2.587905000000    -0.008159000000     0.581668000000     1.007825032230
      Gh(H)           2.704948000000     1.475568000000     0.516434000000     1.007825032230

  Charge       = 0
  Multiplicity = 1
  Basis Set: AUG-CC-PVTZ
    Blend: AUG-CC-PVTZ
  Basis Set: (AUG-CC-PVTZ AUX)
    Blend: AUG-CC-PVTZ-JKFIT + DEF2-UNIVERSAL-JKFIT

    Orbital Energies [Eh]
    ---------------------

    Doubly Occupied:

       1A    -20.565289     2A     -1.336178     3A     -0.724914
       4A     -0.560512     5A     -0.505245

  @DF-RHF Final Energy:   -76.05566754898553

   => Energetics <=

    Nuclear Repulsion Energy =              8.9803861435408283
    One-Electron Energy =                -122.6878241739209585
    Two-Electron Energy =                  37.6517704813946068
    Total Energy =                        -76.0556675489855252
 Dipole X            :         18.4979498          -18.7236842           -0.2257344
 Dipole Y            :        -40.8910910           41.3369842            0.4458932
 Dipole Z            :         13.4783772          -12.9714448            0.5069324
 Magnitude           :                                                    0.7118688
  Basis Set: (AUG-CC-PVTZ AUX)
    Blend: AUG-CC-PVTZ-RI + DEF2-QZVPP-RI
	 Reference Energy          =     -76.0556675489855252 [Eh]
	 Singles Energy            =      -0.0000000000000000 [Eh]
	 Same-Spin Energy          =      -0.0686951378761772 [Eh]
	 Opposite-Spin Energy      =      -0.2165621761274944 [Eh]
	 Correlation Energy        =      -0.2852573140036715 [Eh]
	 Total Energy              =     -76.3409248629891977 [Eh]

	 ================> DF-SCS-MP2 Energies <==================
	-----------------------------------------------------------
	 SCS Same-Spin Scale       =       0.3333333333333333 [-]
	 SCS Opposite-Spin Scale   =       1.2000000000000000 [-]
	 SCS Same-Spin Energy      =      -0.0228983792920591 [Eh]
	 SCS Opposite-Spin Energy  =      -0.2598746113529932 [Eh]
	 SCS Correlation Energy    =      -0.2827729906450523 [Eh]
	 SCS Total Energy          =     -76.3384405396305823 [Eh]
	-----------------------------------------------------------

*** Psi4 exiting successfully. Buy a developer a beer!
