                               Psi4 1.9 release

  ==> Input File <==

--------------------------------------------------------------------------
MEMORY 60 GB

molecule dimer {
1 1
Na     0.000000     0.000000     0.000000
--
0 1
O      1.953031     0.831091     0.860219
H      2.066769     1.791772     0.968498
H      2.719642     0.442245     0.453626
O      0.997390    -1.806691    -0.823923
H      0.719927    -2.694832    -0.590439
H      1.062663    -1.693952    -1.760597
O     -2.359813    -0.522401    -0.218748
H     -3.107352    -1.043213     0.090344
H     -2.840960     0.185888    -0.550284
O     -1.307455     1.999734     0.923894
H     -2.152987     2.044750     1.490236
H     -1.483833     2.732670     0.295877
O     -0.718067     0.947143    -2.169991
H     -1.389460     1.635350    -2.029136
H      0.120162     1.348159    -2.406870
O     -0.441223    -1.492378     2.010603
H      0.380909    -1.895708     2.175635
H     -0.383827    -0.728813     2.596321

units ang
no_reorient
no_com
symmetry c1
}

set {
basis        aug-cc-pVTZ
scf_type     df
}

energy("mp2", bsse_type="cp")
--------------------------------------------------------------------------

                               Psi4 1.9 release
    Molecular point group: c1
  Charge       = 0
  Multiplicity = 1
  Basis Set: AUG-CC-PVTZ
    Blend: AUG-CC-PVTZ
  Basis Set: (AUG-CC-PVTZ AUX)
    Blend: AUG-CC-PVTZ-JKFIT + DEF2-UNIVERSAL-JKFIT
  @DF-RHF Final Energy:  -456.32073325856948
    Total Energy =                       -456.3207332585694758
 Dipole X            :         36.2200910          -36.4668822           -0.2467912
 Dipole Y            :         -1.9834055            3.3567205            1.3733151
 Dipole Z            :        -10.4917218           10.1849492           -0.3067726
 Magnitude           :                                                    1.4286391
  Basis Set: (AUG-CC-PVTZ AUX)
    Blend: AUG-CC-PVTZ-RI + DEF2-QZVPP-RI
	 Reference Energy          =    -456.3207332585694758 [Eh]
	 Singles Energy            =      -0.0000000000000000 [Eh]
	 Same-Spin Energy          =      -0.4160412109660871 [Eh]
	 Opposite-Spin Energy      =      -1.3036738970098396 [Eh]
	 Correlation Energy        =      -1.7197151079759267 [Eh]
	 Total Energy              =    -458.0404483665453768 [Eh]
	 SCS Total Energy          =    -458.0238223386366485 [Eh]
                               Psi4 1.9 release
    Molecular point group: c1
  Multiplicity = 1
  Basis Set: AUG-CC-PVTZ
    Blend: AUG-CC-PVTZ
  Basis Set: (AUG-CC-PVTZ AUX)
    Blend: AUG-CC-PVTZ-JKFIT + DEF2-UNIVERSAL-JKFIT
  @DF-RHF Final Energy:  -161.67609697071182
    Total Energy =                       -161.6760969707117965
  Basis Set: (AUG-CC-PVTZ AUX)
	 Singles Energy            =      -0.0000000000000000 [Eh]
	 Same-Spin Energy          =      -0.0074859370186557 [Eh]
	 Opposite-Spin Energy      =      -0.0223564725007254 [Eh]
	 Correlation Energy        =      -0.0298424095193811 [Eh]
	 Total Energy              =    -161.7059393802312002 [Eh]
	 SCS Total Energy          =    -161.7054200500522541 [Eh]
                               Psi4 1.9 release
    Molecular point group: c1

    Geometry (in Bohr), charge = 1, multiplicity = 1:

       Center              X                  Y                   Z               Mass
    ------------   -----------------  -----------------  -----------------  -----------------
         NA           0.000000000000     0.000000000000     0.000000000000    22.989769282000
         O            3.690693704529     1.570534375333     1.625578317915    15.994914619570
         H            3.905627374586     3.385958359264     1.830195973054     1.007825032230
         H            5.139378539292     0.835721930353     0.857228903387     1.007825032230
         O            1.884793940270    -3.414151183330    -1.556988818466    15.994914619570
         H            1.360464860322    -5.092494434120    -1.115768003789     1.007825032230
         H            2.008142033657    -3.201105349672    -3.327046147303     1.007825032230
         O           -4.459400277295    -0.987194817665    -0.413373810492    15.994914619570
         H           -5.872044255394    -1.971386860517     0.170725417078     1.007825032230
         H           -5.368636333381     0.351277410009    -1.039886051221     1.007825032230
         O           -2.470731871360     3.778949583766     1.745906628954    15.994914619570
         H           -4.068555781671     3.864017495030     2.816137902298     1.007825032230
         H           -2.804037985916     5.163997891255     0.559126496822     1.007825032230
         O           -1.356949969729     1.789840871645    -4.100688684708    15.994914619570
         H           -2.625698862279     3.090363619267    -3.834511311307     1.007825032230
         H            0.227073270687     2.547651283571    -4.548325119581     1.007825032230
         O           -0.833790630253    -2.820185695659     3.799489017024    15.994914619570
         H            0.719813688722    -3.582368933839     4.111354298960     1.007825032230
         H           -0.725327909556    -1.377256966673     4.906335623775     1.007825032230

  Charge       = 1
  Multiplicity = 1
  Basis Set: AUG-CC-PVTZ
    Blend: AUG-CC-PVTZ
  Basis Set: (AUG-CC-PVTZ AUX)
    Blend: AUG-CC-PVTZ-JKFIT + DEF2-UNIVERSAL-JKFIT

    Orbital Energies [Eh]
    ---------------------

    Doubly Occupied:

       1A    -40.529982     2A    -20.728556     3A    -20.722177
       4A    -20.719556     5A    -20.710745     6A    -20.694682
       7A    -20.693874     8A     -2.854008     9A     -1.580358
      10A     -1.579278    11A     -1.578925    12A     -1.506688
      13A     -1.504064    14A     -1.502334    15A     -1.499742
      16A     -1.491511    17A     -1.491363    18A     -0.887012
      19A     -0.883379    20A     -0.882773    21A     -0.845020
      22A     -0.843869    23A     -0.840437    24A     -0.756234
      25A     -0.746341    26A     -0.742093    27A     -0.733311
      28A     -0.731130    29A     -0.721824    30A     -0.676354
      31A     -0.670602    32A     -0.667039    33A     -0.664121
      34A     -0.645417    35A     -0.639026

  @DF-RHF Final Energy:  -618.14860032548972

   => Energetics <=

    Nuclear Repulsion Energy =            409.2538855371948898
    One-Electron Energy =               -1664.8773142830559664
    Two-Electron Energy =                 637.4748284203712956
    Total Energy =                       -618.1486003254897241
 Dipole X            :         36.0612220          -36.4668822           -0.4056602
 Dipole Y            :         -1.9701923            3.3567205            1.3865282
 Dipole Z            :        -10.4558646           10.1849492           -0.2709154
 Magnitude           :                                                    1.4698353
  Basis Set: (AUG-CC-PVTZ AUX)
    Blend: AUG-CC-PVTZ-RI + DEF2-QZVPP-RI
	 Reference Energy          =    -618.1486003254897241 [Eh]
	 Singles Energy            =      -0.0000000000000000 [Eh]
	 Same-Spin Energy          =      -0.4222909145308744 [Eh]
	 Opposite-Spin Energy      =      -1.3191332023141142 [Eh]
	 Correlation Energy        =      -1.7414241168449887 [Eh]
	 Total Energy              =    -619.8900244423347203 [Eh]

	 ================> DF-SCS-MP2 Energies <==================
	-----------------------------------------------------------
	 SCS Same-Spin Scale       =       0.3333333333333333 [-]
	 SCS Opposite-Spin Scale   =       1.2000000000000000 [-]
	 SCS Same-Spin Energy      =      -0.1407636381769581 [Eh]
	 SCS Opposite-Spin Energy  =      -1.5829598427769371 [Eh]
	 SCS Correlation Energy    =      -1.7237234809538953 [Eh]
	 SCS Total Energy          =    -619.8723238064436600 [Eh]
	-----------------------------------------------------------

*** Psi4 exiting successfully. Buy a developer a beer!
