                               Psi4 1.8.2 release

  ==> Input File <==

--------------------------------------------------------------------------
MEMORY 60 GB

molecule dimer {
1 1
Na         0.000000     0.000000     0.000000
O          1.141551    -0.269713    -2.063354
H          0.581191     0.178954    -2.697423
H          1.852964     0.355336    -1.816107
O         -1.079228    -1.527136     1.353753
H         -0.231296    -1.832250     1.704646
H         -1.535491    -1.112505     2.099170
O          1.382305     1.712080     0.506694
H          2.284929     1.263696     0.506647
H          1.263960     2.214578     1.342307
O         -1.935349     1.087739    -0.470061
H         -2.792958     0.609916    -0.258886
H         -2.113097     1.840844    -1.058981

units ang
no_reorient
no_com
symmetry c1
}

set {
basis        aug-cc-pVTZ
scf_type     df
}

energy("mp2")
--------------------------------------------------------------------------

    Molecular point group: c1

    Geometry (in Angstrom), charge = 1, multiplicity = 1:

       Center              X                  Y                   Z               Mass
    ------------   -----------------  -----------------  -----------------  -----------------
         NA           0.000000000000     0.000000000000     0.000000000000    22.989769282000
         O            1.141551000000    -0.269713000000    -2.063354000000    15.994914619570
         H            0.581191000000     0.178954000000    -2.697423000000     1.007825032230
         H            1.852964000000     0.355336000000    -1.816107000000     1.007825032230
         O           -1.079228000000    -1.527136000000     1.353753000000    15.994914619570
         H           -0.231296000000    -1.832250000000     1.704646000000     1.007825032230
         H           -1.535491000000    -1.112505000000     2.099170000000     1.007825032230
         O            1.382305000000     1.712080000000     0.506694000000    15.994914619570
         H            2.284929000000     1.263696000000     0.506647000000     1.007825032230
         H            1.263960000000     2.214578000000     1.342307000000     1.007825032230
         O           -1.935349000000     1.087739000000    -0.470061000000    15.994914619570
         H           -2.792958000000     0.609916000000    -0.258886000000     1.007825032230
         H           -2.113097000000     1.840844000000    -1.058981000000     1.007825032230

  Charge       = 1
  Multiplicity = 1
  Basis Set: AUG-CC-PVTZ
    Blend: AUG-CC-PVTZ
  Basis Set: (AUG-CC-PVTZ AUX)
    Blend: AUG-CC-PVTZ-JKFIT + DEF2-UNIVERSAL-JKFIT

    Orbital Energies [Eh]
    ---------------------

    Doubly Occupied:

       1A    -40.577919     2A    -20.756921     3A    -20.744450
       4A    -20.737433     5A    -20.733158     6A     -2.902980
       7A     -1.628694     8A     -1.628395     9A     -1.627227
      10A     -1.527595    11A     -1.522258    12A     -1.514549
      13A     -1.506383    14A     -0.898553    15A     -0.893390
      16A     -0.881713    17A     -0.880600    18A     -0.770109
      19A     -0.764305    20A     -0.753704    21A     -0.748779
      22A     -0.701898    23A     -0.693744    24A     -0.684418
      25A     -0.678291

  @DF-RHF Final Energy:  -466.00373493266818

   => Energetics <=

    Nuclear Repulsion Energy =            217.8352004022884216
    One-Electron Energy =               -1074.1629302578060106
    Two-Electron Energy =                 390.3239949228494652
    Total Energy =                       -466.0037349326681806
 Dipole X            :          8.7975888           -8.7221557            0.0754332
 Dipole Y            :        -20.6307515           21.8118407            1.1810891
 Dipole Z            :         11.2728644          -10.5113578            0.7615066
 Magnitude           :                                                    1.4073215
  Basis Set: (AUG-CC-PVTZ AUX)
    Blend: AUG-CC-PVTZ-RI + DEF2-QZVPP-RI
	 Reference Energy          =    -466.0037349326681806 [Eh]
	 Singles Energy            =      -0.0000000000000000 [Eh]
	 Same-Spin Energy          =      -0.2811259574519597 [Eh]
	 Opposite-Spin Energy      =      -0.8813376112096032 [Eh]
	 Correlation Energy        =      -1.1624635686615630 [Eh]
	 Total Energy              =    -467.1661985013297453 [Eh]

	 ================> DF-SCS-MP2 Energies <==================
	-----------------------------------------------------------
	 SCS Same-Spin Scale       =       0.3333333333333333 [-]
	 SCS Opposite-Spin Scale   =       1.2000000000000000 [-]
	 SCS Same-Spin Energy      =      -0.0937086524839865 [Eh]
	 SCS Opposite-Spin Energy  =      -1.0576051334515237 [Eh]
	 SCS Correlation Energy    =      -1.1513137859355103 [Eh]
	 SCS Total Energy          =    -467.1550487186036662 [Eh]
	-----------------------------------------------------------

*** Psi4 exiting successfully. Buy a developer a beer!
