                               Psi4 1.8.2 release

  ==> Input File <==

--------------------------------------------------------------------------
MEMORY 60 GB

molecule dimer {
1 1
Na         0.000000     0.000000     0.000000
O          1.371989     0.328574     1.684326
H          0.873769     0.178210     2.485652
H          1.644220     1.255675     1.693557
O          1.274054     1.156590    -1.522421
H          2.143789     0.686938    -1.689336
H          1.589642     1.858926    -0.865452
O         -0.454922    -1.892188     1.128252
H         -0.218035    -2.740225     0.777085
H         -1.339420    -1.998303     1.395279
O         -2.133645    -0.099464    -1.426698
H         -2.740263    -0.005265    -0.688170
H         -2.763796     0.016320    -2.131063
O         -1.451092     1.948369     0.243257
H         -0.996390     2.756909     0.501988
H         -2.021890     2.166962    -0.562477

units ang
no_reorient
no_com
symmetry c1
}

set {
basis        aug-cc-pVTZ
scf_type     df
}

energy("mp2")
--------------------------------------------------------------------------

    Molecular point group: c1

    Geometry (in Angstrom), charge = 1, multiplicity = 1:

       Center              X                  Y                   Z               Mass
    ------------   -----------------  -----------------  -----------------  -----------------
         NA           0.000000000000     0.000000000000     0.000000000000    22.989769282000
         O            1.371989000000     0.328574000000     1.684326000000    15.994914619570
         H            0.873769000000     0.178210000000     2.485652000000     1.007825032230
         H            1.644220000000     1.255675000000     1.693557000000     1.007825032230
         O            1.274054000000     1.156590000000    -1.522421000000    15.994914619570
         H            2.143789000000     0.686938000000    -1.689336000000     1.007825032230
         H            1.589642000000     1.858926000000    -0.865452000000     1.007825032230
         O           -0.454922000000    -1.892188000000     1.128252000000    15.994914619570
         H           -0.218035000000    -2.740225000000     0.777085000000     1.007825032230
         H           -1.339420000000    -1.998303000000     1.395279000000     1.007825032230
         O           -2.133645000000    -0.099464000000    -1.426698000000    15.994914619570
         H           -2.740263000000    -0.005265000000    -0.688170000000     1.007825032230
         H           -2.763796000000     0.016320000000    -2.131063000000     1.007825032230
         O           -1.451092000000     1.948369000000     0.243257000000    15.994914619570
         H           -0.996390000000     2.756909000000     0.501988000000     1.007825032230
         H           -2.021890000000     2.166962000000    -0.562477000000     1.007825032230

  Charge       = 1
  Multiplicity = 1
  Basis Set: AUG-CC-PVTZ
    Blend: AUG-CC-PVTZ
  Basis Set: (AUG-CC-PVTZ AUX)
    Blend: AUG-CC-PVTZ-JKFIT + DEF2-UNIVERSAL-JKFIT

    Orbital Energies [Eh]
    ---------------------

    Doubly Occupied:

       1A    -40.548504     2A    -20.736409     3A    -20.730543
       4A    -20.726628     5A    -20.726522     6A    -20.717201
       7A     -2.874267     8A     -1.601193     9A     -1.600385
      10A     -1.598847    11A     -1.529979    12A     -1.518244
      13A     -1.512052    14A     -1.496499    15A     -1.494963
      16A     -0.892822    17A     -0.889053    18A     -0.874825
      19A     -0.850691    20A     -0.843576    21A     -0.774367
      22A     -0.759315    23A     -0.751130    24A     -0.748604
      25A     -0.741674    26A     -0.686597    27A     -0.684119
      28A     -0.675762    29A     -0.672801    30A     -0.658152

  @DF-RHF Final Energy:  -542.07281287643366

   => Energetics <=

    Nuclear Repulsion Energy =            310.3152838133089517
    One-Electron Energy =               -1362.9447410005200254
    Two-Electron Energy =                 510.5566443107774148
    Total Energy =                       -542.0728128764336589
 Dipole X            :         27.5125521          -28.3029989           -0.7904468
 Dipole Y            :        -28.8376030           29.6898557            0.8522526
 Dipole Z            :         -2.9063107            3.3463100            0.4399993
 Magnitude           :                                                    1.2428757
  Basis Set: (AUG-CC-PVTZ AUX)
    Blend: AUG-CC-PVTZ-RI + DEF2-QZVPP-RI
	 Reference Energy          =    -542.0728128764336589 [Eh]
	 Singles Energy            =      -0.0000000000000000 [Eh]
	 Same-Spin Energy          =      -0.3525215851720736 [Eh]
	 Opposite-Spin Energy      =      -1.1017350611645600 [Eh]
	 Correlation Energy        =      -1.4542566463366335 [Eh]
	 Total Energy              =    -543.5270695227702618 [Eh]

	 ================> DF-SCS-MP2 Energies <==================
	-----------------------------------------------------------
	 SCS Same-Spin Scale       =       0.3333333333333333 [-]
	 SCS Opposite-Spin Scale   =       1.2000000000000000 [-]
	 SCS Same-Spin Energy      =      -0.1175071950573579 [Eh]
	 SCS Opposite-Spin Energy  =      -1.3220820733974719 [Eh]
	 SCS Correlation Energy    =      -1.4395892684548297 [Eh]
	 SCS Total Energy          =    -543.5124021448884832 [Eh]
	-----------------------------------------------------------

*** Psi4 exiting successfully. Buy a developer a beer!
