                               Psi4 1.8.2 release

  ==> Input File <==

--------------------------------------------------------------------------
MEMORY 60 GB

molecule dimer {
1 1
Na         0.000000     0.000000     0.000000
O          1.253379    -0.553947    -1.795986
H          1.273490    -1.231624    -2.437543
H          2.156284    -0.245421    -1.763626
O          1.653641    -0.225820     1.459891
H          2.288234     0.493100     1.361670
H          1.659884    -0.507457     2.410014
O         -0.197384    -2.387924     0.118493
H          0.422453    -2.904071     0.645872
H         -0.888605    -3.002090    -0.148393
O         -0.691979     1.747232     1.638579
H         -0.060873     2.000291     2.305818
H         -0.951374     2.650499     1.367873

units ang
no_reorient
no_com
symmetry c1
}

set {
basis        aug-cc-pVTZ
scf_type     df
}

energy("mp2")
--------------------------------------------------------------------------

    Molecular point group: c1

    Geometry (in Angstrom), charge = 1, multiplicity = 1:

       Center              X                  Y                   Z               Mass
    ------------   -----------------  -----------------  -----------------  -----------------
         NA           0.000000000000     0.000000000000     0.000000000000    22.989769282000
         O            1.253379000000    -0.553947000000    -1.795986000000    15.994914619570
         H            1.273490000000    -1.231624000000    -2.437543000000     1.007825032230
         H            2.156284000000    -0.245421000000    -1.763626000000     1.007825032230
         O            1.653641000000    -0.225820000000     1.459891000000    15.994914619570
         H            2.288234000000     0.493100000000     1.361670000000     1.007825032230
         H            1.659884000000    -0.507457000000     2.410014000000     1.007825032230
         O           -0.197384000000    -2.387924000000     0.118493000000    15.994914619570
         H            0.422453000000    -2.904071000000     0.645872000000     1.007825032230
         H           -0.888605000000    -3.002090000000    -0.148393000000     1.007825032230
         O           -0.691979000000     1.747232000000     1.638579000000    15.994914619570
         H           -0.060873000000     2.000291000000     2.305818000000     1.007825032230
         H           -0.951374000000     2.650499000000     1.367873000000     1.007825032230

  Charge       = 1
  Multiplicity = 1
  Basis Set: AUG-CC-PVTZ
    Blend: AUG-CC-PVTZ
  Basis Set: (AUG-CC-PVTZ AUX)
    Blend: AUG-CC-PVTZ-JKFIT + DEF2-UNIVERSAL-JKFIT

    Orbital Energies [Eh]
    ---------------------

    Doubly Occupied:

       1A    -40.571696     2A    -20.740133     3A    -20.729561
       4A    -20.721935     5A    -20.716530     6A     -2.894549
       7A     -1.620627     8A     -1.619355     9A     -1.618126
      10A     -1.522095    11A     -1.518448    12A     -1.514446
      13A     -1.501561    14A     -0.889995    15A     -0.883728
      16A     -0.867930    17A     -0.858253    18A     -0.775039
      19A     -0.766572    20A     -0.760270    21A     -0.742753
      22A     -0.692093    23A     -0.678217    24A     -0.670723
      25A     -0.659231

  @DF-RHF Final Energy:  -466.01917940692044

   => Energetics <=

    Nuclear Repulsion Energy =            219.1954310364801017
    One-Electron Energy =               -1077.3614879740737251
    Two-Electron Energy =                 392.1468775306731231
    Total Energy =                       -466.0191794069204434
 Dipole X            :        -40.1857805           41.6509792            1.4651987
 Dipole Y            :         26.5280943          -26.6648766           -0.1367823
 Dipole Z            :        -27.8143503           28.5528188            0.7384685
 Magnitude           :                                                    1.6464666
  Basis Set: (AUG-CC-PVTZ AUX)
    Blend: AUG-CC-PVTZ-RI + DEF2-QZVPP-RI
	 Reference Energy          =    -466.0191794069204434 [Eh]
	 Singles Energy            =      -0.0000000000000000 [Eh]
	 Same-Spin Energy          =      -0.2806424447421663 [Eh]
	 Opposite-Spin Energy      =      -0.8788748991714896 [Eh]
	 Correlation Energy        =      -1.1595173439136559 [Eh]
	 Total Energy              =    -467.1786967508340922 [Eh]

	 ================> DF-SCS-MP2 Energies <==================
	-----------------------------------------------------------
	 SCS Same-Spin Scale       =       0.3333333333333333 [-]
	 SCS Opposite-Spin Scale   =       1.2000000000000000 [-]
	 SCS Same-Spin Energy      =      -0.0935474815807221 [Eh]
	 SCS Opposite-Spin Energy  =      -1.0546498790057874 [Eh]
	 SCS Correlation Energy    =      -1.1481973605865095 [Eh]
	 SCS Total Energy          =    -467.1673767675069371 [Eh]
	-----------------------------------------------------------

*** Psi4 exiting successfully. Buy a developer a beer!
