                               Psi4 1.8.2 release

  ==> Input File <==

--------------------------------------------------------------------------
MEMORY 60 GB

molecule dimer {
1 1
Na         0.000000     0.000000     0.000000
O          1.747514    -1.240286    -0.375824
H          2.581703    -1.519130     0.078519
H          1.479033    -2.093395    -0.704350
O         -0.429820    -0.381650    -2.462831
H         -1.131957     0.024596    -3.095869
H         -0.303470    -1.200046    -3.002034
O         -0.228330     2.599785     0.309304
H         -1.092556     2.758248     0.746061
H         -0.374367     2.681910    -0.695767
O          0.084550    -0.396548     2.467479
H          0.621263     0.054807     3.131341
H          0.404248    -1.312537     2.361715
O         -1.925565    -1.536386     0.102860
H         -2.658248    -1.897907    -0.433939
H         -1.979879    -1.934402     0.955160

units ang
no_reorient
no_com
symmetry c1
}

set {
basis        aug-cc-pVTZ
scf_type     df
}

energy("mp2")
--------------------------------------------------------------------------

    Molecular point group: c1

    Geometry (in Angstrom), charge = 1, multiplicity = 1:

       Center              X                  Y                   Z               Mass
    ------------   -----------------  -----------------  -----------------  -----------------
         NA           0.000000000000     0.000000000000     0.000000000000    22.989769282000
         O            1.747514000000    -1.240286000000    -0.375824000000    15.994914619570
         H            2.581703000000    -1.519130000000     0.078519000000     1.007825032230
         H            1.479033000000    -2.093395000000    -0.704350000000     1.007825032230
         O           -0.429820000000    -0.381650000000    -2.462831000000    15.994914619570
         H           -1.131957000000     0.024596000000    -3.095869000000     1.007825032230
         H           -0.303470000000    -1.200046000000    -3.002034000000     1.007825032230
         O           -0.228330000000     2.599785000000     0.309304000000    15.994914619570
         H           -1.092556000000     2.758248000000     0.746061000000     1.007825032230
         H           -0.374367000000     2.681910000000    -0.695767000000     1.007825032230
         O            0.084550000000    -0.396548000000     2.467479000000    15.994914619570
         H            0.621263000000     0.054807000000     3.131341000000     1.007825032230
         H            0.404248000000    -1.312537000000     2.361715000000     1.007825032230
         O           -1.925565000000    -1.536386000000     0.102860000000    15.994914619570
         H           -2.658248000000    -1.897907000000    -0.433939000000     1.007825032230
         H           -1.979879000000    -1.934402000000     0.955160000000     1.007825032230

  Charge       = 1
  Multiplicity = 1
  Basis Set: AUG-CC-PVTZ
    Blend: AUG-CC-PVTZ
  Basis Set: (AUG-CC-PVTZ AUX)
    Blend: AUG-CC-PVTZ-JKFIT + DEF2-UNIVERSAL-JKFIT

    Orbital Energies [Eh]
    ---------------------

    Doubly Occupied:

       1A    -40.563264     2A    -20.737354     3A    -20.729095
       4A    -20.719247     5A    -20.718749     6A    -20.713842
       7A     -2.884791     8A     -1.611451     9A     -1.609108
      10A     -1.607974    11A     -1.521096    12A     -1.505869
      13A     -1.497256    14A     -1.488187    15A     -1.473258
      16A     -0.878976    17A     -0.870138    18A     -0.867907
      19A     -0.841015    20A     -0.824378    21A     -0.780815
      22A     -0.756922    23A     -0.744974    24A     -0.732183
      25A     -0.714271    26A     -0.687464    27A     -0.667520
      28A     -0.663272    29A     -0.661027    30A     -0.651441

  @DF-RHF Final Energy:  -542.07267867693054

   => Energetics <=

    Nuclear Repulsion Energy =            295.4911188121091072
    One-Electron Energy =               -1333.6818972072483120
    Two-Electron Energy =                 496.1180997182086685
    Total Energy =                       -542.0726786769305363
 Dipole X            :         15.3718136          -16.0011388           -0.6293252
 Dipole Y            :         21.0580688          -22.8251250           -1.7670562
 Dipole Z            :          0.1639563           -0.6259888           -0.4620325
 Magnitude           :                                                    1.9318416
  Basis Set: (AUG-CC-PVTZ AUX)
    Blend: AUG-CC-PVTZ-RI + DEF2-QZVPP-RI
	 Reference Energy          =    -542.0726786769305363 [Eh]
	 Singles Energy            =      -0.0000000000000000 [Eh]
	 Same-Spin Energy          =      -0.3520622401722933 [Eh]
	 Opposite-Spin Energy      =      -1.1024620251045447 [Eh]
	 Correlation Energy        =      -1.4545242652768380 [Eh]
	 Total Energy              =    -543.5272029422073956 [Eh]

	 ================> DF-SCS-MP2 Energies <==================
	-----------------------------------------------------------
	 SCS Same-Spin Scale       =       0.3333333333333333 [-]
	 SCS Opposite-Spin Scale   =       1.2000000000000000 [-]
	 SCS Same-Spin Energy      =      -0.1173540800574311 [Eh]
	 SCS Opposite-Spin Energy  =      -1.3229544301254537 [Eh]
	 SCS Correlation Energy    =      -1.4403085101828847 [Eh]
	 SCS Total Energy          =    -543.5129871871133673 [Eh]
	-----------------------------------------------------------

*** Psi4 exiting successfully. Buy a developer a beer!
