                               Psi4 1.8.2 release

  ==> Input File <==

--------------------------------------------------------------------------
MEMORY 60 GB

molecule dimer {
0 1
Gh(Na)     0.000000     0.000000     0.000000
Gh(O)     -0.085993    -0.051936     2.343220
Gh(H)     -0.599866    -0.003832     3.188434
Gh(H)      0.778341    -0.468547     2.524807
Gh(O)      2.159561    -1.126299    -0.201753
Gh(H)      1.903159    -2.089420    -0.306342
Gh(H)      2.923664    -1.015931     0.394549
Gh(O)     -0.673308    -2.158843    -0.874591
Gh(H)      0.102825    -2.750161    -0.727233
Gh(H)     -1.552860    -2.612781    -0.616624
O         -2.368348     0.405229     0.230721
H         -3.034658    -0.039810    -0.350273
H         -2.312455    -0.001856     1.105513
Gh(O)      0.056969     1.381147    -1.944871
Gh(H)     -0.073372     0.905950    -2.745897
Gh(H)     -0.537018     2.128393    -2.087984

units ang
no_reorient
no_com
symmetry c1
}

set {
basis        aug-cc-pVTZ
scf_type     df
}

energy("mp2")
--------------------------------------------------------------------------

    Molecular point group: c1

    Geometry (in Angstrom), charge = 0, multiplicity = 1:

       Center              X                  Y                   Z               Mass
    ------------   -----------------  -----------------  -----------------  -----------------
      Gh(NA)          0.000000000000     0.000000000000     0.000000000000    22.989769282000
      Gh(O)          -0.085993000000    -0.051936000000     2.343220000000    15.994914619570
      Gh(H)          -0.599866000000    -0.003832000000     3.188434000000     1.007825032230
      Gh(H)           0.778341000000    -0.468547000000     2.524807000000     1.007825032230
      Gh(O)           2.159561000000    -1.126299000000    -0.201753000000    15.994914619570
      Gh(H)           1.903159000000    -2.089420000000    -0.306342000000     1.007825032230
      Gh(H)           2.923664000000    -1.015931000000     0.394549000000     1.007825032230
      Gh(O)          -0.673308000000    -2.158843000000    -0.874591000000    15.994914619570
      Gh(H)           0.102825000000    -2.750161000000    -0.727233000000     1.007825032230
      Gh(H)          -1.552860000000    -2.612781000000    -0.616624000000     1.007825032230
         O           -2.368348000000     0.405229000000     0.230721000000    15.994914619570
         H           -3.034658000000    -0.039810000000    -0.350273000000     1.007825032230
         H           -2.312455000000    -0.001856000000     1.105513000000     1.007825032230
      Gh(O)           0.056969000000     1.381147000000    -1.944871000000    15.994914619570
      Gh(H)          -0.073372000000     0.905950000000    -2.745897000000     1.007825032230
      Gh(H)          -0.537018000000     2.128393000000    -2.087984000000     1.007825032230

  Charge       = 0
  Multiplicity = 1
  Basis Set: AUG-CC-PVTZ
    Blend: AUG-CC-PVTZ
  Basis Set: (AUG-CC-PVTZ AUX)
    Blend: AUG-CC-PVTZ-JKFIT + DEF2-UNIVERSAL-JKFIT

    Orbital Energies [Eh]
    ---------------------

    Doubly Occupied:

       1A    -20.566794     2A     -1.337808     3A     -0.720295
       4A     -0.565730     5A     -0.506157

  @DF-RHF Final Energy:   -76.05696285407330

   => Energetics <=

    Nuclear Repulsion Energy =              8.9830480040248339
    One-Electron Energy =                -122.6864484945282072
    Two-Electron Energy =                  37.6464376364300719
    Total Energy =                        -76.0569628540733049
 Dipole X            :         45.4993985          -45.9088119           -0.4094134
 Dipole Y            :         -6.6203655            6.0474373           -0.5729282
 Dipole Z            :         -4.7147926            4.9151928            0.2004001
 Magnitude           :                                                    0.7321381
  Basis Set: (AUG-CC-PVTZ AUX)
    Blend: AUG-CC-PVTZ-RI + DEF2-QZVPP-RI
	 Reference Energy          =     -76.0569628540733049 [Eh]
	 Singles Energy            =      -0.0000000000000000 [Eh]
	 Same-Spin Energy          =      -0.0686949708976945 [Eh]
	 Opposite-Spin Energy      =      -0.2166697143614134 [Eh]
	 Correlation Energy        =      -0.2853646852591079 [Eh]
	 Total Energy              =     -76.3423275393324161 [Eh]

	 ================> DF-SCS-MP2 Energies <==================
	-----------------------------------------------------------
	 SCS Same-Spin Scale       =       0.3333333333333333 [-]
	 SCS Opposite-Spin Scale   =       1.2000000000000000 [-]
	 SCS Same-Spin Energy      =      -0.0228983236325648 [Eh]
	 SCS Opposite-Spin Energy  =      -0.2600036572336961 [Eh]
	 SCS Correlation Energy    =      -0.2829019808662609 [Eh]
	 SCS Total Energy          =     -76.3398648349395614 [Eh]
	-----------------------------------------------------------

*** Psi4 exiting successfully. Buy a developer a beer!
