                               Psi4 1.8.2 release

  ==> Input File <==

--------------------------------------------------------------------------
MEMORY 60 GB

molecule dimer {
1 1
Na         0.000000     0.000000     0.000000
O         -1.276190    -1.895462    -0.040608
H         -2.127558    -2.381803    -0.032716
H         -0.649478    -2.617925    -0.097285
O          1.279520    -0.856733     1.908127
H          1.429020    -1.725810     1.617383
H          2.152061    -0.516055     2.066464
O          1.299180    -0.930748    -1.795194
H          1.895986    -0.426229    -2.417540
H          1.773401    -1.700742    -1.666497
O         -1.150366     1.204114    -1.632613
H         -0.622560     1.212033    -2.467742
H         -1.635570     2.032036    -1.478611
O          1.957058     1.448042    -0.052295
H          2.006511     1.818263     0.762342
H          2.834060     1.269535    -0.454297

units ang
no_reorient
no_com
symmetry c1
}

set {
basis        aug-cc-pVTZ
scf_type     df
}

energy("mp2")
--------------------------------------------------------------------------

    Molecular point group: c1

    Geometry (in Angstrom), charge = 1, multiplicity = 1:

       Center              X                  Y                   Z               Mass
    ------------   -----------------  -----------------  -----------------  -----------------
         NA           0.000000000000     0.000000000000     0.000000000000    22.989769282000
         O           -1.276190000000    -1.895462000000    -0.040608000000    15.994914619570
         H           -2.127558000000    -2.381803000000    -0.032716000000     1.007825032230
         H           -0.649478000000    -2.617925000000    -0.097285000000     1.007825032230
         O            1.279520000000    -0.856733000000     1.908127000000    15.994914619570
         H            1.429020000000    -1.725810000000     1.617383000000     1.007825032230
         H            2.152061000000    -0.516055000000     2.066464000000     1.007825032230
         O            1.299180000000    -0.930748000000    -1.795194000000    15.994914619570
         H            1.895986000000    -0.426229000000    -2.417540000000     1.007825032230
         H            1.773401000000    -1.700742000000    -1.666497000000     1.007825032230
         O           -1.150366000000     1.204114000000    -1.632613000000    15.994914619570
         H           -0.622560000000     1.212033000000    -2.467742000000     1.007825032230
         H           -1.635570000000     2.032036000000    -1.478611000000     1.007825032230
         O            1.957058000000     1.448042000000    -0.052295000000    15.994914619570
         H            2.006511000000     1.818263000000     0.762342000000     1.007825032230
         H            2.834060000000     1.269535000000    -0.454297000000     1.007825032230

  Charge       = 1
  Multiplicity = 1
  Basis Set: AUG-CC-PVTZ
    Blend: AUG-CC-PVTZ
  Basis Set: (AUG-CC-PVTZ AUX)
    Blend: AUG-CC-PVTZ-JKFIT + DEF2-UNIVERSAL-JKFIT

    Orbital Energies [Eh]
    ---------------------

    Doubly Occupied:

       1A    -40.550199     2A    -20.730010     3A    -20.721630
       4A    -20.721014     5A    -20.715866     6A    -20.708796
       7A     -2.872828     8A     -1.598774     9A     -1.597417
      10A     -1.597153    11A     -1.524878    12A     -1.523026
      13A     -1.517900    14A     -1.504592    15A     -1.481757
      16A     -0.905779    17A     -0.886250    18A     -0.879708
      19A     -0.864312    20A     -0.859606    21A     -0.769058
      22A     -0.757616    23A     -0.752724    24A     -0.739379
      25A     -0.719154    26A     -0.690582    27A     -0.674835
      28A     -0.666433    29A     -0.660775    30A     -0.653094

  @DF-RHF Final Energy:  -542.07878805958580

   => Energetics <=

    Nuclear Repulsion Energy =            308.3103064648577742
    One-Electron Energy =               -1359.0878937596121432
    Two-Electron Energy =                 508.6987992351685648
    Total Energy =                       -542.0787880595858041
 Dipole X            :        -43.2138076           45.2201805            2.0063730
 Dipole Y            :         20.6105428          -21.3217666           -0.7112238
 Dipole Z            :         31.4603722          -32.2560433           -0.7956711
 Magnitude           :                                                    2.2725458
  Basis Set: (AUG-CC-PVTZ AUX)
    Blend: AUG-CC-PVTZ-RI + DEF2-QZVPP-RI
	 Reference Energy          =    -542.0787880595858041 [Eh]
	 Singles Energy            =      -0.0000000000000000 [Eh]
	 Same-Spin Energy          =      -0.3505855423494471 [Eh]
	 Opposite-Spin Energy      =      -1.0970470726081392 [Eh]
	 Correlation Energy        =      -1.4476326149575862 [Eh]
	 Total Energy              =    -543.5264206745433739 [Eh]

	 ================> DF-SCS-MP2 Energies <==================
	-----------------------------------------------------------
	 SCS Same-Spin Scale       =       0.3333333333333333 [-]
	 SCS Opposite-Spin Scale   =       1.2000000000000000 [-]
	 SCS Same-Spin Energy      =      -0.1168618474498157 [Eh]
	 SCS Opposite-Spin Energy  =      -1.3164564871297670 [Eh]
	 SCS Correlation Energy    =      -1.4333183345795828 [Eh]
	 SCS Total Energy          =    -543.5121063941653574 [Eh]
	-----------------------------------------------------------

*** Psi4 exiting successfully. Buy a developer a beer!
