                               Psi4 1.9 release

  ==> Input File <==

--------------------------------------------------------------------------
MEMORY 60 GB

molecule dimer {
1 1
Na     0.000000     0.000000     0.000000
--
0 1
O     -1.169214     0.675061    -1.965345
H     -1.806908    -0.031789    -2.222785
H     -1.605764     1.457733    -2.244370
O     -0.030340    -2.107786    -1.084587
H      0.207561    -2.894411    -0.558114
H      0.618974    -2.140900    -1.742073
O      0.692412     0.310337     2.464985
H     -0.299640     0.237282     2.718297
H      1.167970    -0.408106     2.881909
O     -2.120624    -0.497677     1.271846
H     -2.415073     0.222634     1.817307
H     -2.903605    -0.836519     0.750395
O      0.425403     2.480866     0.024064
H      0.339669     3.168213     0.657297
H     -0.465816     2.494236    -0.380434
O      2.583179    -0.496408    -0.190695
H      2.787887    -0.734051    -1.155683
H      2.934192     0.414483    -0.062159

units ang
no_reorient
no_com
symmetry c1
}

set {
basis        aug-cc-pVTZ
scf_type     df
}

energy("mp2", bsse_type="cp")
--------------------------------------------------------------------------

                               Psi4 1.9 release
    Molecular point group: c1
  Charge       = 0
  Multiplicity = 1
  Basis Set: AUG-CC-PVTZ
    Blend: AUG-CC-PVTZ
  Basis Set: (AUG-CC-PVTZ AUX)
    Blend: AUG-CC-PVTZ-JKFIT + DEF2-UNIVERSAL-JKFIT
  @DF-RHF Final Energy:  -456.32300915480846
    Total Energy =                       -456.3230091548084602
 Dipole X            :         -4.4530741            3.0348529           -1.4182212
 Dipole Y            :         -7.2230228            7.3018054            0.0787826
 Dipole Z            :         -9.1274635            8.7338058           -0.3936576
 Magnitude           :                                                    1.4739486
  Basis Set: (AUG-CC-PVTZ AUX)
    Blend: AUG-CC-PVTZ-RI + DEF2-QZVPP-RI
	 Reference Energy          =    -456.3230091548084602 [Eh]
	 Singles Energy            =      -0.0000000000000000 [Eh]
	 Same-Spin Energy          =      -0.4164187073774949 [Eh]
	 Opposite-Spin Energy      =      -1.3058322965970526 [Eh]
	 Correlation Energy        =      -1.7222510039745473 [Eh]
	 Total Energy              =    -458.0452601587829804 [Eh]
	 SCS Total Energy          =    -458.0288141465174476 [Eh]
                               Psi4 1.9 release
    Molecular point group: c1
  Multiplicity = 1
  Basis Set: AUG-CC-PVTZ
    Blend: AUG-CC-PVTZ
  Basis Set: (AUG-CC-PVTZ AUX)
    Blend: AUG-CC-PVTZ-JKFIT + DEF2-UNIVERSAL-JKFIT
  @DF-RHF Final Energy:  -161.67609420498036
    Total Energy =                       -161.6760942049803589
  Basis Set: (AUG-CC-PVTZ AUX)
	 Singles Energy            =      -0.0000000000000000 [Eh]
	 Same-Spin Energy          =      -0.0063490888234606 [Eh]
	 Opposite-Spin Energy      =      -0.0194937765600304 [Eh]
	 Correlation Energy        =      -0.0258428653834910 [Eh]
	 Total Energy              =    -161.7019370703638401 [Eh]
	 SCS Total Energy          =    -161.7016030997935445 [Eh]
                               Psi4 1.9 release
    Molecular point group: c1

    Geometry (in Bohr), charge = 1, multiplicity = 1:

       Center              X                  Y                   Z               Mass
    ------------   -----------------  -----------------  -----------------  -----------------
         NA           0.000000000000     0.000000000000     0.000000000000    22.989769282000
         O           -2.209494242051     1.275680407978    -3.713963792038    15.994914619570
         H           -3.414561253899    -0.060072503802    -4.200454885776     1.007825032230
         H           -3.034454182120     2.754716134042    -4.241244624194     1.007825032230
         O           -0.057334290646    -3.983138271074    -2.049572389232    15.994914619570
         H            0.392233444326    -5.469644084513    -1.054682606784     1.007825032230
         H            1.169691338779    -4.045714661993    -3.292040860555     1.007825032230
         O            1.308469045981     0.586451936596     4.658146553362    15.994914619570
         H           -0.566237536232     0.448397994501     5.136836857654     1.007825032230
         H            2.207143422751    -0.771208570156     5.446018728492     1.007825032230
         O           -4.007398575073    -0.940473228939     2.403440613759    15.994914619570
         H           -4.563826542988     0.420717286215     3.434212515877     1.007825032230
         H           -5.487018226510    -1.580791808742     1.418041035913     1.007825032230
         O            0.803895162948     4.688157293960     0.045474369483    15.994914619570
         H            0.641881383308     5.987054877115     1.242111313085     1.007825032230
         H           -0.880264664856     4.713422932257    -0.718916068812     1.007825032230
         O            4.881500843034    -0.938075166486    -0.360361323494    15.994914619570
         H            5.268342898724    -1.387155352118    -2.183924357847     1.007825032230
         H            5.544819279509     0.783259353658    -0.117463486232     1.007825032230

  Charge       = 1
  Multiplicity = 1
  Basis Set: AUG-CC-PVTZ
    Blend: AUG-CC-PVTZ
  Basis Set: (AUG-CC-PVTZ AUX)
    Blend: AUG-CC-PVTZ-JKFIT + DEF2-UNIVERSAL-JKFIT

    Orbital Energies [Eh]
    ---------------------

    Doubly Occupied:

       1A    -40.552843     2A    -20.731902     3A    -20.731470
       4A    -20.719451     5A    -20.710929     6A    -20.705979
       7A    -20.702439     8A     -2.873666     9A     -1.598700
      10A     -1.598340    11A     -1.597466    12A     -1.519352
      13A     -1.515774    14A     -1.509276    15A     -1.500141
      16A     -1.469077    17A     -1.466464    18A     -0.883207
      19A     -0.879873    20A     -0.868085    21A     -0.853735
      22A     -0.840328    23A     -0.830544    24A     -0.766393
      25A     -0.755720    26A     -0.747309    27A     -0.740702
      28A     -0.714895    29A     -0.705601    30A     -0.684230
      31A     -0.673029    32A     -0.672253    33A     -0.657012
      34A     -0.644774    35A     -0.640844

  @DF-RHF Final Energy:  -618.14276762407826

   => Energetics <=

    Nuclear Repulsion Energy =            396.9482897864853612
    One-Electron Energy =               -1640.0585029683670655
    Two-Electron Energy =                 624.9674455578033303
    Total Energy =                       -618.1427676240782603
 Dipole X            :         -4.4920072            3.0348529           -1.4571543
 Dipole Y            :         -7.2045699            7.3018054            0.0972354
 Dipole Z            :         -9.1235176            8.7338058           -0.3897118
 Magnitude           :                                                    1.5114988
  Basis Set: (AUG-CC-PVTZ AUX)
    Blend: AUG-CC-PVTZ-RI + DEF2-QZVPP-RI
	 Reference Energy          =    -618.1427676240782603 [Eh]
	 Singles Energy            =      -0.0000000000000000 [Eh]
	 Same-Spin Energy          =      -0.4219550908516466 [Eh]
	 Opposite-Spin Energy      =      -1.3198808087305027 [Eh]
	 Correlation Energy        =      -1.7418358995821492 [Eh]
	 Total Energy              =    -619.8846035236604166 [Eh]

	 ================> DF-SCS-MP2 Energies <==================
	-----------------------------------------------------------
	 SCS Same-Spin Scale       =       0.3333333333333333 [-]
	 SCS Opposite-Spin Scale   =       1.2000000000000000 [-]
	 SCS Same-Spin Energy      =      -0.1406516969505489 [Eh]
	 SCS Opposite-Spin Energy  =      -1.5838569704766032 [Eh]
	 SCS Correlation Energy    =      -1.7245086674271521 [Eh]
	 SCS Total Energy          =    -619.8672762915053909 [Eh]
	-----------------------------------------------------------

*** Psi4 exiting successfully. Buy a developer a beer!
