                               Psi4 1.8.2 release

  ==> Input File <==

--------------------------------------------------------------------------
MEMORY 60 GB

molecule dimer {
0 1
Gh(Na)     0.000000     0.000000     0.000000
Gh(O)      2.278346     0.669364     0.093229
Gh(H)      2.155569     1.631124     0.248455
Gh(H)      2.996795     0.615513    -0.539242
Gh(O)     -0.417855     2.173232    -1.030201
Gh(H)     -1.263162     1.963044    -0.589085
Gh(H)     -0.580901     2.219109    -2.006056
Gh(O)      0.265411     0.942068     2.195530
Gh(H)      0.357741     1.810493     2.531820
Gh(H)     -0.347040     0.368824     2.685547
O         -2.262886     0.226621     0.167464
H         -2.857538    -0.347387     0.685673
H         -2.901645     0.732549    -0.387800
Gh(O)      0.439362    -2.429410     0.826166
Gh(H)      0.485462    -2.565000     1.758293
Gh(H)     -0.253748    -2.976041     0.529420
Gh(O)     -0.408571    -1.310127    -2.006589
Gh(H)     -1.342634    -1.270196    -2.124955
Gh(H)     -0.009102    -1.170847    -2.843478

units ang
no_reorient
no_com
symmetry c1
}

set {
basis        aug-cc-pVTZ
scf_type     df
}

energy("mp2")
--------------------------------------------------------------------------

    Molecular point group: c1

    Geometry (in Angstrom), charge = 0, multiplicity = 1:

       Center              X                  Y                   Z               Mass
    ------------   -----------------  -----------------  -----------------  -----------------
      Gh(NA)          0.000000000000     0.000000000000     0.000000000000    22.989769282000
      Gh(O)           2.278346000000     0.669364000000     0.093229000000    15.994914619570
      Gh(H)           2.155569000000     1.631124000000     0.248455000000     1.007825032230
      Gh(H)           2.996795000000     0.615513000000    -0.539242000000     1.007825032230
      Gh(O)          -0.417855000000     2.173232000000    -1.030201000000    15.994914619570
      Gh(H)          -1.263162000000     1.963044000000    -0.589085000000     1.007825032230
      Gh(H)          -0.580901000000     2.219109000000    -2.006056000000     1.007825032230
      Gh(O)           0.265411000000     0.942068000000     2.195530000000    15.994914619570
      Gh(H)           0.357741000000     1.810493000000     2.531820000000     1.007825032230
      Gh(H)          -0.347040000000     0.368824000000     2.685547000000     1.007825032230
         O           -2.262886000000     0.226621000000     0.167464000000    15.994914619570
         H           -2.857538000000    -0.347387000000     0.685673000000     1.007825032230
         H           -2.901645000000     0.732549000000    -0.387800000000     1.007825032230
      Gh(O)           0.439362000000    -2.429410000000     0.826166000000    15.994914619570
      Gh(H)           0.485462000000    -2.565000000000     1.758293000000     1.007825032230
      Gh(H)          -0.253748000000    -2.976041000000     0.529420000000     1.007825032230
      Gh(O)          -0.408571000000    -1.310127000000    -2.006589000000    15.994914619570
      Gh(H)          -1.342634000000    -1.270196000000    -2.124955000000     1.007825032230
      Gh(H)          -0.009102000000    -1.170847000000    -2.843478000000     1.007825032230

  Charge       = 0
  Multiplicity = 1
  Basis Set: AUG-CC-PVTZ
    Blend: AUG-CC-PVTZ
  Basis Set: (AUG-CC-PVTZ AUX)
    Blend: AUG-CC-PVTZ-JKFIT + DEF2-UNIVERSAL-JKFIT

    Orbital Energies [Eh]
    ---------------------

    Doubly Occupied:

       1A    -20.572198     2A     -1.343440     3A     -0.700045
       4A     -0.585367     5A     -0.509193

  @DF-RHF Final Energy:   -76.05792195579227

   => Energetics <=

    Nuclear Repulsion Energy =              8.9803486852414469
    One-Electron Energy =                -122.6560520693570737
    Two-Electron Energy =                  37.6177814283233474
    Total Energy =                        -76.0579219557922670
 Dipole X            :         44.2910647          -45.0931569           -0.8020922
 Dipole Y            :         -4.1994390            4.1538637           -0.0455753
 Dipole Z            :         -3.1171968            3.0945872           -0.0226096
 Magnitude           :                                                    0.8037041
  Basis Set: (AUG-CC-PVTZ AUX)
    Blend: AUG-CC-PVTZ-RI + DEF2-QZVPP-RI
	 Reference Energy          =     -76.0579219557922670 [Eh]
	 Singles Energy            =      -0.0000000000000000 [Eh]
	 Same-Spin Energy          =      -0.0689121036575234 [Eh]
	 Opposite-Spin Energy      =      -0.2175812701711839 [Eh]
	 Correlation Energy        =      -0.2864933738287073 [Eh]
	 Total Energy              =     -76.3444153296209720 [Eh]

	 ================> DF-SCS-MP2 Energies <==================
	-----------------------------------------------------------
	 SCS Same-Spin Scale       =       0.3333333333333333 [-]
	 SCS Opposite-Spin Scale   =       1.2000000000000000 [-]
	 SCS Same-Spin Energy      =      -0.0229707012191745 [Eh]
	 SCS Opposite-Spin Energy  =      -0.2610975242054207 [Eh]
	 SCS Correlation Energy    =      -0.2840682254245951 [Eh]
	 SCS Total Energy          =     -76.3419901812168575 [Eh]
	-----------------------------------------------------------

*** Psi4 exiting successfully. Buy a developer a beer!
