                               Psi4 1.8.2 release

  ==> Input File <==

--------------------------------------------------------------------------
MEMORY 60 GB

molecule dimer {
1 1
Na         0.000000     0.000000     0.000000
Gh(O)      0.985243     1.361756    -1.542488
Gh(H)      1.874246     1.350733    -1.934909
Gh(H)      0.414988     1.260066    -2.324670
Gh(O)      0.823978     0.878247     2.115655
Gh(H)      1.298081     1.751934     2.375790
Gh(H)      0.257828     0.586640     2.820213
Gh(O)     -0.226418    -1.408438    -1.797917
Gh(H)     -0.917865    -2.089083    -1.585986
Gh(H)      0.448556    -1.874981    -2.327105
Gh(O)     -1.974562     0.901395    -0.277079
Gh(H)     -2.014013     1.682929     0.320102
Gh(H)     -2.637138     0.327502     0.068322

units ang
no_reorient
no_com
symmetry c1
}

set {
basis        aug-cc-pVTZ
scf_type     df
}

energy("mp2")
--------------------------------------------------------------------------

    Molecular point group: c1

    Geometry (in Angstrom), charge = 1, multiplicity = 1:

       Center              X                  Y                   Z               Mass
    ------------   -----------------  -----------------  -----------------  -----------------
         NA           0.000000000000     0.000000000000     0.000000000000    22.989769282000
      Gh(O)           0.985243000000     1.361756000000    -1.542488000000    15.994914619570
      Gh(H)           1.874246000000     1.350733000000    -1.934909000000     1.007825032230
      Gh(H)           0.414988000000     1.260066000000    -2.324670000000     1.007825032230
      Gh(O)           0.823978000000     0.878247000000     2.115655000000    15.994914619570
      Gh(H)           1.298081000000     1.751934000000     2.375790000000     1.007825032230
      Gh(H)           0.257828000000     0.586640000000     2.820213000000     1.007825032230
      Gh(O)          -0.226418000000    -1.408438000000    -1.797917000000    15.994914619570
      Gh(H)          -0.917865000000    -2.089083000000    -1.585986000000     1.007825032230
      Gh(H)           0.448556000000    -1.874981000000    -2.327105000000     1.007825032230
      Gh(O)          -1.974562000000     0.901395000000    -0.277079000000    15.994914619570
      Gh(H)          -2.014013000000     1.682929000000     0.320102000000     1.007825032230
      Gh(H)          -2.637138000000     0.327502000000     0.068322000000     1.007825032230

  Charge       = 1
  Multiplicity = 1
  Basis Set: AUG-CC-PVTZ
    Blend: AUG-CC-PVTZ
  Basis Set: (AUG-CC-PVTZ AUX)
    Blend: AUG-CC-PVTZ-JKFIT + DEF2-UNIVERSAL-JKFIT

    Orbital Energies [Eh]
    ---------------------

    Doubly Occupied:

       1A    -40.760420     2A     -3.073813     3A     -1.797171
       4A     -1.797152     5A     -1.797132

  @DF-RHF Final Energy:  -161.67608771803657

   => Energetics <=

    Nuclear Repulsion Energy =              0.0000000000000000
    One-Electron Energy =                -224.9008000819195843
    Two-Electron Energy =                  63.2247123638830288
    Total Energy =                       -161.6760877180365696
 Dipole X            :         -0.0000284            0.0000000           -0.0000284
 Dipole Y            :         -0.0000182            0.0000000           -0.0000182
 Dipole Z            :         -0.0000564            0.0000000           -0.0000564
 Magnitude           :                                                    0.0000658
  Basis Set: (AUG-CC-PVTZ AUX)
    Blend: AUG-CC-PVTZ-RI + DEF2-QZVPP-RI
	 Reference Energy          =    -161.6760877180365696 [Eh]
	 Singles Energy            =      -0.0000000000000000 [Eh]
	 Same-Spin Energy          =      -0.0057561300955297 [Eh]
	 Opposite-Spin Energy      =      -0.0178546479130871 [Eh]
	 Correlation Energy        =      -0.0236107780086169 [Eh]
	 Total Energy              =    -161.6996984960451869 [Eh]

	 ================> DF-SCS-MP2 Energies <==================
	-----------------------------------------------------------
	 SCS Same-Spin Scale       =       0.3333333333333333 [-]
	 SCS Opposite-Spin Scale   =       1.2000000000000000 [-]
	 SCS Same-Spin Energy      =      -0.0019187100318432 [Eh]
	 SCS Opposite-Spin Energy  =      -0.0214255774957046 [Eh]
	 SCS Correlation Energy    =      -0.0233442875275478 [Eh]
	 SCS Total Energy          =    -161.6994320055641197 [Eh]
	-----------------------------------------------------------

*** Psi4 exiting successfully. Buy a developer a beer!
