                               Psi4 1.8.2 release

  ==> Input File <==

--------------------------------------------------------------------------
MEMORY 60 GB

molecule dimer {
0 1
Gh(Na)     0.000000     0.000000     0.000000
O         -2.058645     0.434487     1.171922
H         -2.658565     1.121252     0.841320
H         -2.557630    -0.382890     0.953784
Gh(O)      1.051296     1.338895     2.009781
Gh(H)      2.035858     1.255881     2.040475
Gh(H)      0.850641     1.874788     2.758326
Gh(O)     -0.639434    -1.764377    -1.349866
Gh(H)     -1.458636    -1.683678    -1.767648
Gh(H)     -0.058484    -1.996889    -2.070390
Gh(O)      1.802084     1.145751    -1.009113
Gh(H)      2.499224     1.024550    -1.661574
Gh(H)      1.730347     2.091370    -0.837185

units ang
no_reorient
no_com
symmetry c1
}

set {
basis        aug-cc-pVTZ
scf_type     df
}

energy("mp2")
--------------------------------------------------------------------------

    Molecular point group: c1

    Geometry (in Angstrom), charge = 0, multiplicity = 1:

       Center              X                  Y                   Z               Mass
    ------------   -----------------  -----------------  -----------------  -----------------
      Gh(NA)          0.000000000000     0.000000000000     0.000000000000    22.989769282000
         O           -2.058645000000     0.434487000000     1.171922000000    15.994914619570
         H           -2.658565000000     1.121252000000     0.841320000000     1.007825032230
         H           -2.557630000000    -0.382890000000     0.953784000000     1.007825032230
      Gh(O)           1.051296000000     1.338895000000     2.009781000000    15.994914619570
      Gh(H)           2.035858000000     1.255881000000     2.040475000000     1.007825032230
      Gh(H)           0.850641000000     1.874788000000     2.758326000000     1.007825032230
      Gh(O)          -0.639434000000    -1.764377000000    -1.349866000000    15.994914619570
      Gh(H)          -1.458636000000    -1.683678000000    -1.767648000000     1.007825032230
      Gh(H)          -0.058484000000    -1.996889000000    -2.070390000000     1.007825032230
      Gh(O)           1.802084000000     1.145751000000    -1.009113000000    15.994914619570
      Gh(H)           2.499224000000     1.024550000000    -1.661574000000     1.007825032230
      Gh(H)           1.730347000000     2.091370000000    -0.837185000000     1.007825032230

  Charge       = 0
  Multiplicity = 1
  Basis Set: AUG-CC-PVTZ
    Blend: AUG-CC-PVTZ
  Basis Set: (AUG-CC-PVTZ AUX)
    Blend: AUG-CC-PVTZ-JKFIT + DEF2-UNIVERSAL-JKFIT

    Orbital Energies [Eh]
    ---------------------

    Doubly Occupied:

       1A    -20.571594     2A     -1.346098     3A     -0.701756
       4A     -0.587078     5A     -0.509715

  @DF-RHF Final Energy:   -76.05842959058718

   => Energetics <=

    Nuclear Repulsion Energy =              9.0247509872953842
    One-Electron Energy =                -122.7338763490565583
    Two-Electron Energy =                  37.6506957711739858
    Total Energy =                        -76.0584295905871954
 Dipole X            :         40.2631078          -40.9793819           -0.7162741
 Dipole Y            :         -8.0466226            7.9637934           -0.0828292
 Dipole Z            :        -21.4666435           21.1091479           -0.3574956
 Magnitude           :                                                    0.8048058
  Basis Set: (AUG-CC-PVTZ AUX)
    Blend: AUG-CC-PVTZ-RI + DEF2-QZVPP-RI
	 Reference Energy          =     -76.0584295905871812 [Eh]
	 Singles Energy            =      -0.0000000000000000 [Eh]
	 Same-Spin Energy          =      -0.0687997445990799 [Eh]
	 Opposite-Spin Energy      =      -0.2168872912004253 [Eh]
	 Correlation Energy        =      -0.2856870357995053 [Eh]
	 Total Energy              =     -76.3441166263866933 [Eh]

	 ================> DF-SCS-MP2 Energies <==================
	-----------------------------------------------------------
	 SCS Same-Spin Scale       =       0.3333333333333333 [-]
	 SCS Opposite-Spin Scale   =       1.2000000000000000 [-]
	 SCS Same-Spin Energy      =      -0.0229332481996933 [Eh]
	 SCS Opposite-Spin Energy  =      -0.2602647494405104 [Eh]
	 SCS Correlation Energy    =      -0.2831979976402037 [Eh]
	 SCS Total Energy          =     -76.3416275882273823 [Eh]
	-----------------------------------------------------------

*** Psi4 exiting successfully. Buy a developer a beer!
