                               Psi4 1.8.2 release

  ==> Input File <==

--------------------------------------------------------------------------
MEMORY 60 GB

molecule dimer {
1 1
Na         0.000000     0.000000     0.000000
O          2.200023    -0.188222    -0.286542
H          2.895583     0.458553    -0.239530
H          2.596252    -0.970724    -0.637590
O         -2.027672     0.184032     1.494454
H         -2.514049    -0.102364     0.712930
H         -2.397718     1.017536     1.839885
O         -0.365594    -2.633320     0.181044
H         -1.247852    -2.871394     0.397864
H         -0.040790    -3.230710    -0.525988
O         -0.373167     2.099173    -1.094592
H         -0.625127     2.930081    -0.644687
H         -0.748604     2.251364    -1.958488
O          0.543302     1.414289     1.993847
H          1.399965     1.002046     2.227791
H         -0.019699     1.251749     2.818915

units ang
no_reorient
no_com
symmetry c1
}

set {
basis        aug-cc-pVTZ
scf_type     df
}

energy("mp2")
--------------------------------------------------------------------------

    Molecular point group: c1

    Geometry (in Angstrom), charge = 1, multiplicity = 1:

       Center              X                  Y                   Z               Mass
    ------------   -----------------  -----------------  -----------------  -----------------
         NA           0.000000000000     0.000000000000     0.000000000000    22.989769282000
         O            2.200023000000    -0.188222000000    -0.286542000000    15.994914619570
         H            2.895583000000     0.458553000000    -0.239530000000     1.007825032230
         H            2.596252000000    -0.970724000000    -0.637590000000     1.007825032230
         O           -2.027672000000     0.184032000000     1.494454000000    15.994914619570
         H           -2.514049000000    -0.102364000000     0.712930000000     1.007825032230
         H           -2.397718000000     1.017536000000     1.839885000000     1.007825032230
         O           -0.365594000000    -2.633320000000     0.181044000000    15.994914619570
         H           -1.247852000000    -2.871394000000     0.397864000000     1.007825032230
         H           -0.040790000000    -3.230710000000    -0.525988000000     1.007825032230
         O           -0.373167000000     2.099173000000    -1.094592000000    15.994914619570
         H           -0.625127000000     2.930081000000    -0.644687000000     1.007825032230
         H           -0.748604000000     2.251364000000    -1.958488000000     1.007825032230
         O            0.543302000000     1.414289000000     1.993847000000    15.994914619570
         H            1.399965000000     1.002046000000     2.227791000000     1.007825032230
         H           -0.019699000000     1.251749000000     2.818915000000     1.007825032230

  Charge       = 1
  Multiplicity = 1
  Basis Set: AUG-CC-PVTZ
    Blend: AUG-CC-PVTZ
  Basis Set: (AUG-CC-PVTZ AUX)
    Blend: AUG-CC-PVTZ-JKFIT + DEF2-UNIVERSAL-JKFIT

    Orbital Energies [Eh]
    ---------------------

    Doubly Occupied:

       1A    -40.564066     2A    -20.725221     3A    -20.720670
       4A    -20.718211     5A    -20.716803     6A    -20.708739
       7A     -2.885420     8A     -1.611488     9A     -1.609499
      10A     -1.608759    11A     -1.521228    12A     -1.504967
      13A     -1.501586    14A     -1.498736    15A     -1.474164
      16A     -0.889434    17A     -0.879557    18A     -0.874351
      19A     -0.856467    20A     -0.832125    21A     -0.767444
      22A     -0.755594    23A     -0.735816    24A     -0.729330
      25A     -0.722656    26A     -0.678567    27A     -0.671946
      28A     -0.663423    29A     -0.662329    30A     -0.644559

  @DF-RHF Final Energy:  -542.08605661959814

   => Energetics <=

    Nuclear Repulsion Energy =            298.5296546564510436
    One-Electron Energy =               -1339.7651083540981745
    Two-Electron Energy =                 499.1493970780491622
    Total Energy =                       -542.0860566195981392
 Dipole X            :          1.3061372           -1.6760038           -0.3698665
 Dipole Y            :        -16.4586404           16.5232985            0.0646581
 Dipole Z            :        -42.4030569           42.1348266           -0.2682303
 Magnitude           :                                                    0.4614427
  Basis Set: (AUG-CC-PVTZ AUX)
    Blend: AUG-CC-PVTZ-RI + DEF2-QZVPP-RI
	 Reference Energy          =    -542.0860566195981392 [Eh]
	 Singles Energy            =      -0.0000000000000000 [Eh]
	 Same-Spin Energy          =      -0.3506194798197959 [Eh]
	 Opposite-Spin Energy      =      -1.0979512292618259 [Eh]
	 Correlation Energy        =      -1.4485707090816218 [Eh]
	 Total Energy              =    -543.5346273286797896 [Eh]

	 ================> DF-SCS-MP2 Energies <==================
	-----------------------------------------------------------
	 SCS Same-Spin Scale       =       0.3333333333333333 [-]
	 SCS Opposite-Spin Scale   =       1.2000000000000000 [-]
	 SCS Same-Spin Energy      =      -0.1168731599399319 [Eh]
	 SCS Opposite-Spin Energy  =      -1.3175414751141910 [Eh]
	 SCS Correlation Energy    =      -1.4344146350541229 [Eh]
	 SCS Total Energy          =    -543.5204712546523069 [Eh]
	-----------------------------------------------------------

*** Psi4 exiting successfully. Buy a developer a beer!
