                               Psi4 1.8.2 release

  ==> Input File <==

--------------------------------------------------------------------------
MEMORY 60 GB

molecule dimer {
0 1
Gh(Na)     0.000000     0.000000     0.000000
Gh(O)     -1.270892     0.775336    -1.734881
Gh(H)     -2.041556     0.267356    -1.809439
Gh(H)     -1.389474     1.715105    -2.154391
O         -1.538328     1.148730     1.663206
H         -2.479361     0.999225     1.788695
H         -1.153620     0.858041     2.489959
Gh(O)      1.119723    -1.679292    -1.361821
Gh(H)      1.074447    -1.430682    -2.285905
Gh(H)      1.954304    -2.132372    -1.289916
Gh(O)      1.802531    -0.151360     1.513496
Gh(H)      1.956804    -0.794728     2.265743
Gh(H)      2.401941    -0.491777     0.846105
Gh(O)     -1.831106    -1.657480    -0.070603
Gh(H)     -2.766494    -1.428010    -0.112170
Gh(H)     -1.501432    -2.003291    -0.932357

units ang
no_reorient
no_com
symmetry c1
}

set {
basis        aug-cc-pVTZ
scf_type     df
}

energy("mp2")
--------------------------------------------------------------------------

    Molecular point group: c1

    Geometry (in Angstrom), charge = 0, multiplicity = 1:

       Center              X                  Y                   Z               Mass
    ------------   -----------------  -----------------  -----------------  -----------------
      Gh(NA)          0.000000000000     0.000000000000     0.000000000000    22.989769282000
      Gh(O)          -1.270892000000     0.775336000000    -1.734881000000    15.994914619570
      Gh(H)          -2.041556000000     0.267356000000    -1.809439000000     1.007825032230
      Gh(H)          -1.389474000000     1.715105000000    -2.154391000000     1.007825032230
         O           -1.538328000000     1.148730000000     1.663206000000    15.994914619570
         H           -2.479361000000     0.999225000000     1.788695000000     1.007825032230
         H           -1.153620000000     0.858041000000     2.489959000000     1.007825032230
      Gh(O)           1.119723000000    -1.679292000000    -1.361821000000    15.994914619570
      Gh(H)           1.074447000000    -1.430682000000    -2.285905000000     1.007825032230
      Gh(H)           1.954304000000    -2.132372000000    -1.289916000000     1.007825032230
      Gh(O)           1.802531000000    -0.151360000000     1.513496000000    15.994914619570
      Gh(H)           1.956804000000    -0.794728000000     2.265743000000     1.007825032230
      Gh(H)           2.401941000000    -0.491777000000     0.846105000000     1.007825032230
      Gh(O)          -1.831106000000    -1.657480000000    -0.070603000000    15.994914619570
      Gh(H)          -2.766494000000    -1.428010000000    -0.112170000000     1.007825032230
      Gh(H)          -1.501432000000    -2.003291000000    -0.932357000000     1.007825032230

  Charge       = 0
  Multiplicity = 1
  Basis Set: AUG-CC-PVTZ
    Blend: AUG-CC-PVTZ
  Basis Set: (AUG-CC-PVTZ AUX)
    Blend: AUG-CC-PVTZ-JKFIT + DEF2-UNIVERSAL-JKFIT

    Orbital Energies [Eh]
    ---------------------

    Doubly Occupied:

       1A    -20.567748     2A     -1.353262     3A     -0.714751
       4A     -0.586462     5A     -0.510475

  @DF-RHF Final Energy:   -76.06050221405570

   => Energetics <=

    Nuclear Repulsion Energy =              9.1794328254488740
    One-Electron Energy =                -123.0144700288637836
    Two-Electron Energy =                  37.7745349893592248
    Total Energy =                        -76.0605022140556883
 Dipole X            :         29.7536318          -30.1214880           -0.3678562
 Dipole Y            :        -21.1672998           20.8760048           -0.2912950
 Dipole Z            :        -32.5984569           33.2295149            0.6310580
 Magnitude           :                                                    0.7863874
  Basis Set: (AUG-CC-PVTZ AUX)
    Blend: AUG-CC-PVTZ-RI + DEF2-QZVPP-RI
	 Reference Energy          =     -76.0605022140557026 [Eh]
	 Singles Energy            =      -0.0000000000000000 [Eh]
	 Same-Spin Energy          =      -0.0684525717607137 [Eh]
	 Opposite-Spin Energy      =      -0.2158661367970161 [Eh]
	 Correlation Energy        =      -0.2843187085577298 [Eh]
	 Total Energy              =     -76.3448209226134367 [Eh]

	 ================> DF-SCS-MP2 Energies <==================
	-----------------------------------------------------------
	 SCS Same-Spin Scale       =       0.3333333333333333 [-]
	 SCS Opposite-Spin Scale   =       1.2000000000000000 [-]
	 SCS Same-Spin Energy      =      -0.0228175239202379 [Eh]
	 SCS Opposite-Spin Energy  =      -0.2590393641564193 [Eh]
	 SCS Correlation Energy    =      -0.2818568880766572 [Eh]
	 SCS Total Energy          =     -76.3423591021323631 [Eh]
	-----------------------------------------------------------

*** Psi4 exiting successfully. Buy a developer a beer!
