                               Psi4 1.8.2 release

  ==> Input File <==

--------------------------------------------------------------------------
MEMORY 60 GB

molecule dimer {
0 1
Gh(Na)     0.000000     0.000000     0.000000
Gh(O)      2.278346     0.669364     0.093229
Gh(H)      2.155569     1.631124     0.248455
Gh(H)      2.996795     0.615513    -0.539242
Gh(O)     -0.417855     2.173232    -1.030201
Gh(H)     -1.263162     1.963044    -0.589085
Gh(H)     -0.580901     2.219109    -2.006056
O          0.265411     0.942068     2.195530
H          0.357741     1.810493     2.531820
H         -0.347040     0.368824     2.685547
Gh(O)     -2.262886     0.226621     0.167464
Gh(H)     -2.857538    -0.347387     0.685673
Gh(H)     -2.901645     0.732549    -0.387800
Gh(O)      0.439362    -2.429410     0.826166
Gh(H)      0.485462    -2.565000     1.758293
Gh(H)     -0.253748    -2.976041     0.529420
Gh(O)     -0.408571    -1.310127    -2.006589
Gh(H)     -1.342634    -1.270196    -2.124955
Gh(H)     -0.009102    -1.170847    -2.843478

units ang
no_reorient
no_com
symmetry c1
}

set {
basis        aug-cc-pVTZ
scf_type     df
}

energy("mp2")
--------------------------------------------------------------------------

    Molecular point group: c1

    Geometry (in Angstrom), charge = 0, multiplicity = 1:

       Center              X                  Y                   Z               Mass
    ------------   -----------------  -----------------  -----------------  -----------------
      Gh(NA)          0.000000000000     0.000000000000     0.000000000000    22.989769282000
      Gh(O)           2.278346000000     0.669364000000     0.093229000000    15.994914619570
      Gh(H)           2.155569000000     1.631124000000     0.248455000000     1.007825032230
      Gh(H)           2.996795000000     0.615513000000    -0.539242000000     1.007825032230
      Gh(O)          -0.417855000000     2.173232000000    -1.030201000000    15.994914619570
      Gh(H)          -1.263162000000     1.963044000000    -0.589085000000     1.007825032230
      Gh(H)          -0.580901000000     2.219109000000    -2.006056000000     1.007825032230
         O            0.265411000000     0.942068000000     2.195530000000    15.994914619570
         H            0.357741000000     1.810493000000     2.531820000000     1.007825032230
         H           -0.347040000000     0.368824000000     2.685547000000     1.007825032230
      Gh(O)          -2.262886000000     0.226621000000     0.167464000000    15.994914619570
      Gh(H)          -2.857538000000    -0.347387000000     0.685673000000     1.007825032230
      Gh(H)          -2.901645000000     0.732549000000    -0.387800000000     1.007825032230
      Gh(O)           0.439362000000    -2.429410000000     0.826166000000    15.994914619570
      Gh(H)           0.485462000000    -2.565000000000     1.758293000000     1.007825032230
      Gh(H)          -0.253748000000    -2.976041000000     0.529420000000     1.007825032230
      Gh(O)          -0.408571000000    -1.310127000000    -2.006589000000    15.994914619570
      Gh(H)          -1.342634000000    -1.270196000000    -2.124955000000     1.007825032230
      Gh(H)          -0.009102000000    -1.170847000000    -2.843478000000     1.007825032230

  Charge       = 0
  Multiplicity = 1
  Basis Set: AUG-CC-PVTZ
    Blend: AUG-CC-PVTZ
  Basis Set: (AUG-CC-PVTZ AUX)
    Blend: AUG-CC-PVTZ-JKFIT + DEF2-UNIVERSAL-JKFIT

    Orbital Energies [Eh]
    ---------------------

    Doubly Occupied:

       1A    -20.561180     2A     -1.348128     3A     -0.739394
       4A     -0.564530     5A     -0.507324

  @DF-RHF Final Energy:   -76.05810465800512

   => Energetics <=

    Nuclear Repulsion Energy =              9.2095520374782218
    One-Electron Energy =                -123.0941980807644143
    Two-Electron Energy =                  37.8265413852810894
    Total Energy =                        -76.0581046580051066
 Dipole X            :         -4.3898614            4.0326548           -0.3572066
 Dipole Y            :        -18.1528949           18.3603164            0.2074214
 Dipole Z            :        -42.4809100           43.0509979            0.5700879
 Magnitude           :                                                    0.7040031
  Basis Set: (AUG-CC-PVTZ AUX)
    Blend: AUG-CC-PVTZ-RI + DEF2-QZVPP-RI
	 Reference Energy          =     -76.0581046580051208 [Eh]
	 Singles Energy            =      -0.0000000000000000 [Eh]
	 Same-Spin Energy          =      -0.0682880253461465 [Eh]
	 Opposite-Spin Energy      =      -0.2153616558384731 [Eh]
	 Correlation Energy        =      -0.2836496811846195 [Eh]
	 Total Energy              =     -76.3417543391897340 [Eh]

	 ================> DF-SCS-MP2 Energies <==================
	-----------------------------------------------------------
	 SCS Same-Spin Scale       =       0.3333333333333333 [-]
	 SCS Opposite-Spin Scale   =       1.2000000000000000 [-]
	 SCS Same-Spin Energy      =      -0.0227626751153822 [Eh]
	 SCS Opposite-Spin Energy  =      -0.2584339870061677 [Eh]
	 SCS Correlation Energy    =      -0.2811966621215499 [Eh]
	 SCS Total Energy          =     -76.3393013201266655 [Eh]
	-----------------------------------------------------------

*** Psi4 exiting successfully. Buy a developer a beer!
