                               Psi4 1.8.2 release

  ==> Input File <==

--------------------------------------------------------------------------
MEMORY 60 GB

molecule dimer {
0 1
Gh(Na)     0.000000     0.000000     0.000000
Gh(O)     -2.058645     0.434487     1.171922
Gh(H)     -2.658565     1.121252     0.841320
Gh(H)     -2.557630    -0.382890     0.953784
Gh(O)      1.051296     1.338895     2.009781
Gh(H)      2.035858     1.255881     2.040475
Gh(H)      0.850641     1.874788     2.758326
O         -0.639434    -1.764377    -1.349866
H         -1.458636    -1.683678    -1.767648
H         -0.058484    -1.996889    -2.070390
Gh(O)      1.802084     1.145751    -1.009113
Gh(H)      2.499224     1.024550    -1.661574
Gh(H)      1.730347     2.091370    -0.837185

units ang
no_reorient
no_com
symmetry c1
}

set {
basis        aug-cc-pVTZ
scf_type     df
}

energy("mp2")
--------------------------------------------------------------------------

    Molecular point group: c1

    Geometry (in Angstrom), charge = 0, multiplicity = 1:

       Center              X                  Y                   Z               Mass
    ------------   -----------------  -----------------  -----------------  -----------------
      Gh(NA)          0.000000000000     0.000000000000     0.000000000000    22.989769282000
      Gh(O)          -2.058645000000     0.434487000000     1.171922000000    15.994914619570
      Gh(H)          -2.658565000000     1.121252000000     0.841320000000     1.007825032230
      Gh(H)          -2.557630000000    -0.382890000000     0.953784000000     1.007825032230
      Gh(O)           1.051296000000     1.338895000000     2.009781000000    15.994914619570
      Gh(H)           2.035858000000     1.255881000000     2.040475000000     1.007825032230
      Gh(H)           0.850641000000     1.874788000000     2.758326000000     1.007825032230
         O           -0.639434000000    -1.764377000000    -1.349866000000    15.994914619570
         H           -1.458636000000    -1.683678000000    -1.767648000000     1.007825032230
         H           -0.058484000000    -1.996889000000    -2.070390000000     1.007825032230
      Gh(O)           1.802084000000     1.145751000000    -1.009113000000    15.994914619570
      Gh(H)           2.499224000000     1.024550000000    -1.661574000000     1.007825032230
      Gh(H)           1.730347000000     2.091370000000    -0.837185000000     1.007825032230

  Charge       = 0
  Multiplicity = 1
  Basis Set: AUG-CC-PVTZ
    Blend: AUG-CC-PVTZ
  Basis Set: (AUG-CC-PVTZ AUX)
    Blend: AUG-CC-PVTZ-JKFIT + DEF2-UNIVERSAL-JKFIT

    Orbital Energies [Eh]
    ---------------------

    Doubly Occupied:

       1A    -20.564342     2A     -1.364937     3A     -0.724402
       4A     -0.591909     5A     -0.512441

  @DF-RHF Final Energy:   -76.06037545085407

   => Energetics <=

    Nuclear Repulsion Energy =              9.3829553984849419
    One-Electron Energy =                -123.3705961218016824
    Two-Electron Energy =                  37.9272652724626624
    Total Energy =                        -76.0603754508540817
 Dipole X            :         12.3687957          -12.5337824           -0.1649867
 Dipole Y            :         33.5280665          -33.6287781           -0.1007116
 Dipole Z            :         26.8992421          -27.6598570           -0.7606149
 Magnitude           :                                                    0.7847920
  Basis Set: (AUG-CC-PVTZ AUX)
    Blend: AUG-CC-PVTZ-RI + DEF2-QZVPP-RI
	 Reference Energy          =     -76.0603754508540675 [Eh]
	 Singles Energy            =      -0.0000000000000000 [Eh]
	 Same-Spin Energy          =      -0.0681103205452431 [Eh]
	 Opposite-Spin Energy      =      -0.2148490606573828 [Eh]
	 Correlation Energy        =      -0.2829593812026259 [Eh]
	 Total Energy              =     -76.3433348320566978 [Eh]

	 ================> DF-SCS-MP2 Energies <==================
	-----------------------------------------------------------
	 SCS Same-Spin Scale       =       0.3333333333333333 [-]
	 SCS Opposite-Spin Scale   =       1.2000000000000000 [-]
	 SCS Same-Spin Energy      =      -0.0227034401817477 [Eh]
	 SCS Opposite-Spin Energy  =      -0.2578188727888593 [Eh]
	 SCS Correlation Energy    =      -0.2805223129706070 [Eh]
	 SCS Total Energy          =     -76.3408977638246711 [Eh]
	-----------------------------------------------------------

*** Psi4 exiting successfully. Buy a developer a beer!
