                               Psi4 1.8.2 release

  ==> Input File <==

--------------------------------------------------------------------------
MEMORY 60 GB

molecule dimer {
0 1
Gh(Na)     0.000000     0.000000     0.000000
O          2.497786    -0.242273     0.422092
H          3.049045    -0.461710    -0.372715
H          2.916442     0.393536     1.013630
Gh(O)     -0.170722     1.880488     1.566801
Gh(H)     -0.585546     2.675444     1.117741
Gh(H)     -0.725283     1.778538     2.397862
Gh(O)     -0.123890    -2.509853    -0.843574
Gh(H)     -0.312475    -3.220754    -0.195645
Gh(H)     -0.767002    -2.582567    -1.518445
Gh(O)     -2.372716     0.104252     0.086632
Gh(H)     -3.016397     0.698396     0.520165
Gh(H)     -2.302894    -0.639156     0.705936

units ang
no_reorient
no_com
symmetry c1
}

set {
basis        aug-cc-pVTZ
scf_type     df
}

energy("mp2")
--------------------------------------------------------------------------

    Molecular point group: c1

    Geometry (in Angstrom), charge = 0, multiplicity = 1:

       Center              X                  Y                   Z               Mass
    ------------   -----------------  -----------------  -----------------  -----------------
      Gh(NA)          0.000000000000     0.000000000000     0.000000000000    22.989769282000
         O            2.497786000000    -0.242273000000     0.422092000000    15.994914619570
         H            3.049045000000    -0.461710000000    -0.372715000000     1.007825032230
         H            2.916442000000     0.393536000000     1.013630000000     1.007825032230
      Gh(O)          -0.170722000000     1.880488000000     1.566801000000    15.994914619570
      Gh(H)          -0.585546000000     2.675444000000     1.117741000000     1.007825032230
      Gh(H)          -0.725283000000     1.778538000000     2.397862000000     1.007825032230
      Gh(O)          -0.123890000000    -2.509853000000    -0.843574000000    15.994914619570
      Gh(H)          -0.312475000000    -3.220754000000    -0.195645000000     1.007825032230
      Gh(H)          -0.767002000000    -2.582567000000    -1.518445000000     1.007825032230
      Gh(O)          -2.372716000000     0.104252000000     0.086632000000    15.994914619570
      Gh(H)          -3.016397000000     0.698396000000     0.520165000000     1.007825032230
      Gh(H)          -2.302894000000    -0.639156000000     0.705936000000     1.007825032230

  Charge       = 0
  Multiplicity = 1
  Basis Set: AUG-CC-PVTZ
    Blend: AUG-CC-PVTZ
  Basis Set: (AUG-CC-PVTZ AUX)
    Blend: AUG-CC-PVTZ-JKFIT + DEF2-UNIVERSAL-JKFIT

    Orbital Energies [Eh]
    ---------------------

    Doubly Occupied:

       1A    -20.566327     2A     -1.337353     3A     -0.721993
       4A     -0.563989     5A     -0.505853

  @DF-RHF Final Energy:   -76.05647823944287

   => Energetics <=

    Nuclear Repulsion Energy =              8.9831796224320133
    One-Electron Energy =                -122.6882817681748605
    Two-Electron Energy =                  37.6486239062999672
    Total Energy =                        -76.0564782394428676
 Dipole X            :        -48.3796957           49.0341883            0.6544926
 Dipole Y            :          4.0740526           -3.7914671            0.2825855
 Dipole Z            :         -7.7263832            7.5922601           -0.1341232
 Magnitude           :                                                    0.7253993
  Basis Set: (AUG-CC-PVTZ AUX)
    Blend: AUG-CC-PVTZ-RI + DEF2-QZVPP-RI
	 Reference Energy          =     -76.0564782394428676 [Eh]
	 Singles Energy            =      -0.0000000000000000 [Eh]
	 Same-Spin Energy          =      -0.0686588397637988 [Eh]
	 Opposite-Spin Energy      =      -0.2163122545245691 [Eh]
	 Correlation Energy        =      -0.2849710942883680 [Eh]
	 Total Energy              =     -76.3414493337312337 [Eh]

	 ================> DF-SCS-MP2 Energies <==================
	-----------------------------------------------------------
	 SCS Same-Spin Scale       =       0.3333333333333333 [-]
	 SCS Opposite-Spin Scale   =       1.2000000000000000 [-]
	 SCS Same-Spin Energy      =      -0.0228862799212663 [Eh]
	 SCS Opposite-Spin Energy  =      -0.2595747054294830 [Eh]
	 SCS Correlation Energy    =      -0.2824609853507493 [Eh]
	 SCS Total Energy          =     -76.3389392247936200 [Eh]
	-----------------------------------------------------------

*** Psi4 exiting successfully. Buy a developer a beer!
