                               Psi4 1.8.2 release

  ==> Input File <==

--------------------------------------------------------------------------
MEMORY 60 GB

molecule dimer {
0 1
Gh(Na)     0.000000     0.000000     0.000000
Gh(O)      0.766127     0.515039     1.981709
Gh(H)      1.319922    -0.208424     2.371871
Gh(H)      0.227460     0.853158     2.684082
O          1.024406     2.176228    -1.057194
H          1.536833     2.576739    -0.331655
H          0.165288     2.624778    -1.158303
Gh(O)     -0.492044    -0.696903    -2.430464
Gh(H)      0.340264    -0.313786    -2.821962
Gh(H)     -0.852891    -1.398862    -2.972918
Gh(O)     -2.210786     0.705829     0.674056
Gh(H)     -2.694782     0.461413     1.505258
Gh(H)     -2.606634     1.473977     0.320053

units ang
no_reorient
no_com
symmetry c1
}

set {
basis        aug-cc-pVTZ
scf_type     df
}

energy("mp2")
--------------------------------------------------------------------------

    Molecular point group: c1

    Geometry (in Angstrom), charge = 0, multiplicity = 1:

       Center              X                  Y                   Z               Mass
    ------------   -----------------  -----------------  -----------------  -----------------
      Gh(NA)          0.000000000000     0.000000000000     0.000000000000    22.989769282000
      Gh(O)           0.766127000000     0.515039000000     1.981709000000    15.994914619570
      Gh(H)           1.319922000000    -0.208424000000     2.371871000000     1.007825032230
      Gh(H)           0.227460000000     0.853158000000     2.684082000000     1.007825032230
         O            1.024406000000     2.176228000000    -1.057194000000    15.994914619570
         H            1.536833000000     2.576739000000    -0.331655000000     1.007825032230
         H            0.165288000000     2.624778000000    -1.158303000000     1.007825032230
      Gh(O)          -0.492044000000    -0.696903000000    -2.430464000000    15.994914619570
      Gh(H)           0.340264000000    -0.313786000000    -2.821962000000     1.007825032230
      Gh(H)          -0.852891000000    -1.398862000000    -2.972918000000     1.007825032230
      Gh(O)          -2.210786000000     0.705829000000     0.674056000000    15.994914619570
      Gh(H)          -2.694782000000     0.461413000000     1.505258000000     1.007825032230
      Gh(H)          -2.606634000000     1.473977000000     0.320053000000     1.007825032230

  Charge       = 0
  Multiplicity = 1
  Basis Set: AUG-CC-PVTZ
    Blend: AUG-CC-PVTZ
  Basis Set: (AUG-CC-PVTZ AUX)
    Blend: AUG-CC-PVTZ-JKFIT + DEF2-UNIVERSAL-JKFIT

    Orbital Energies [Eh]
    ---------------------

    Doubly Occupied:

       1A    -20.567132     2A     -1.340673     3A     -0.719341
       4A     -0.569858     5A     -0.507055

  @DF-RHF Final Energy:   -76.05829550752838

   => Energetics <=

    Nuclear Repulsion Energy =              9.0196007423169018
    One-Electron Energy =                -122.7476721011630900
    Two-Electron Energy =                  37.6697758513178229
    Total Energy =                        -76.0582955075283706
 Dipole X            :        -18.9355903           18.7033168           -0.2322735
 Dipole Y            :        -42.1599671           42.7292418            0.5692748
 Dipole Z            :         19.2164863          -18.7980695            0.4184168
 Magnitude           :                                                    0.7437052
  Basis Set: (AUG-CC-PVTZ AUX)
    Blend: AUG-CC-PVTZ-RI + DEF2-QZVPP-RI
	 Reference Energy          =     -76.0582955075283849 [Eh]
	 Singles Energy            =      -0.0000000000000000 [Eh]
	 Same-Spin Energy          =      -0.0686154837554326 [Eh]
	 Opposite-Spin Energy      =      -0.2162846324710750 [Eh]
	 Correlation Energy        =      -0.2849001162265076 [Eh]
	 Total Energy              =     -76.3431956237548945 [Eh]

	 ================> DF-SCS-MP2 Energies <==================
	-----------------------------------------------------------
	 SCS Same-Spin Scale       =       0.3333333333333333 [-]
	 SCS Opposite-Spin Scale   =       1.2000000000000000 [-]
	 SCS Same-Spin Energy      =      -0.0228718279184775 [Eh]
	 SCS Opposite-Spin Energy  =      -0.2595415589652900 [Eh]
	 SCS Correlation Energy    =      -0.2824133868837675 [Eh]
	 SCS Total Energy          =     -76.3407088944121455 [Eh]
	-----------------------------------------------------------

*** Psi4 exiting successfully. Buy a developer a beer!
