                               Psi4 1.8.2 release

  ==> Input File <==

--------------------------------------------------------------------------
MEMORY 60 GB

molecule dimer {
1 1
Na         0.000000     0.000000     0.000000
O         -2.192329    -0.219597     0.872611
H         -2.400627    -1.141881     0.703901
H         -2.733316     0.372478     0.330936
O          0.238623    -0.099539     2.578983
H          0.207742    -1.033748     2.608329
H          1.103598     0.137296     2.191773
O          1.524795     0.116081    -1.794134
H          1.742531     1.047954    -1.881416
H          1.357694    -0.079869    -2.731791
O         -1.274931    -0.745610    -1.953360
H         -0.929134    -0.208918    -2.691167
H         -2.232484    -0.803013    -1.990186
O          1.395144    -1.945533     0.271036
H          1.781949    -2.056633    -0.619793
H          0.646768    -2.590327     0.264060
O         -0.583733     2.446213    -0.013811
H         -0.941055     2.972170    -0.745643
H         -1.111530     2.471200     0.778068

units ang
no_reorient
no_com
symmetry c1
}

set {
basis        aug-cc-pVTZ
scf_type     df
}

energy("mp2")
--------------------------------------------------------------------------

    Molecular point group: c1

    Geometry (in Angstrom), charge = 1, multiplicity = 1:

       Center              X                  Y                   Z               Mass
    ------------   -----------------  -----------------  -----------------  -----------------
         NA           0.000000000000     0.000000000000     0.000000000000    22.989769282000
         O           -2.192329000000    -0.219597000000     0.872611000000    15.994914619570
         H           -2.400627000000    -1.141881000000     0.703901000000     1.007825032230
         H           -2.733316000000     0.372478000000     0.330936000000     1.007825032230
         O            0.238623000000    -0.099539000000     2.578983000000    15.994914619570
         H            0.207742000000    -1.033748000000     2.608329000000     1.007825032230
         H            1.103598000000     0.137296000000     2.191773000000     1.007825032230
         O            1.524795000000     0.116081000000    -1.794134000000    15.994914619570
         H            1.742531000000     1.047954000000    -1.881416000000     1.007825032230
         H            1.357694000000    -0.079869000000    -2.731791000000     1.007825032230
         O           -1.274931000000    -0.745610000000    -1.953360000000    15.994914619570
         H           -0.929134000000    -0.208918000000    -2.691167000000     1.007825032230
         H           -2.232484000000    -0.803013000000    -1.990186000000     1.007825032230
         O            1.395144000000    -1.945533000000     0.271036000000    15.994914619570
         H            1.781949000000    -2.056633000000    -0.619793000000     1.007825032230
         H            0.646768000000    -2.590327000000     0.264060000000     1.007825032230
         O           -0.583733000000     2.446213000000    -0.013811000000    15.994914619570
         H           -0.941055000000     2.972170000000    -0.745643000000     1.007825032230
         H           -1.111530000000     2.471200000000     0.778068000000     1.007825032230

  Charge       = 1
  Multiplicity = 1
  Basis Set: AUG-CC-PVTZ
    Blend: AUG-CC-PVTZ
  Basis Set: (AUG-CC-PVTZ AUX)
    Blend: AUG-CC-PVTZ-JKFIT + DEF2-UNIVERSAL-JKFIT

    Orbital Energies [Eh]
    ---------------------

    Doubly Occupied:

       1A    -40.558946     2A    -20.742541     3A    -20.736845
       4A    -20.723132     5A    -20.720841     6A    -20.719877
       7A    -20.691666     8A     -2.881663     9A     -1.607092
      10A     -1.606439    11A     -1.606070    12A     -1.530245
      13A     -1.518118    14A     -1.506167    15A     -1.503666
      16A     -1.497407    17A     -1.481538    18A     -0.901373
      19A     -0.893370    20A     -0.884566    21A     -0.873980
      22A     -0.857059    23A     -0.849427    24A     -0.781219
      25A     -0.752947    26A     -0.745790    27A     -0.737282
      28A     -0.733222    29A     -0.703266    30A     -0.695933
      31A     -0.687233    32A     -0.670072    33A     -0.668028
      34A     -0.662882    35A     -0.638517

  @DF-RHF Final Energy:  -618.13478006601838

   => Energetics <=

    Nuclear Repulsion Energy =            408.4206392825974490
    One-Electron Energy =               -1662.3739899778745439
    Two-Electron Energy =                 635.8185706292587156
    Total Energy =                       -618.1347800660183793
 Dipole X            :         18.9128588          -20.1205037           -1.2076449
 Dipole Y            :          8.5089554           -8.4984215            0.0105339
 Dipole Z            :          5.1917647           -7.7333810           -2.5416163
 Magnitude           :                                                    2.8139529
  Basis Set: (AUG-CC-PVTZ AUX)
    Blend: AUG-CC-PVTZ-RI + DEF2-QZVPP-RI
	 Reference Energy          =    -618.1347800660183793 [Eh]
	 Singles Energy            =      -0.0000000000000000 [Eh]
	 Same-Spin Energy          =      -0.4229967033063489 [Eh]
	 Opposite-Spin Energy      =      -1.3204260835185984 [Eh]
	 Correlation Energy        =      -1.7434227868249472 [Eh]
	 Total Energy              =    -619.8782028528432875 [Eh]

	 ================> DF-SCS-MP2 Energies <==================
	-----------------------------------------------------------
	 SCS Same-Spin Scale       =       0.3333333333333333 [-]
	 SCS Opposite-Spin Scale   =       1.2000000000000000 [-]
	 SCS Same-Spin Energy      =      -0.1409989011021163 [Eh]
	 SCS Opposite-Spin Energy  =      -1.5845113002223179 [Eh]
	 SCS Correlation Energy    =      -1.7255102013244341 [Eh]
	 SCS Total Energy          =    -619.8602902673428616 [Eh]
	-----------------------------------------------------------

*** Psi4 exiting successfully. Buy a developer a beer!
