                               Psi4 1.9 release

  ==> Input File <==

--------------------------------------------------------------------------
MEMORY 60 GB

molecule dimer {
1 1
Na     0.000000     0.000000     0.000000
--
0 1
O      2.205971     0.635159     0.728373
H      3.053339     0.255335     0.378257
H      2.077247     0.411983     1.671787
O     -2.285012    -0.545726    -1.025332
H     -1.993376    -0.558243    -1.924281
H     -2.614469    -1.469788    -0.906414
O      0.374764     0.481414    -2.151325
H     -0.097932    -0.007771    -2.837168
H      0.086886     1.404508    -2.205016
O     -1.072663     0.652617     2.238731
H     -0.201901     0.519877     2.729850
H     -1.247442     1.590189     2.428781

units ang
no_reorient
no_com
symmetry c1
}

set {
basis        aug-cc-pVTZ
scf_type     df
}

energy("mp2", bsse_type="cp")
--------------------------------------------------------------------------

                               Psi4 1.9 release
    Molecular point group: c1
  Charge       = 0
  Multiplicity = 1
  Basis Set: AUG-CC-PVTZ
    Blend: AUG-CC-PVTZ
  Basis Set: (AUG-CC-PVTZ AUX)
    Blend: AUG-CC-PVTZ-JKFIT + DEF2-UNIVERSAL-JKFIT
  @DF-RHF Final Energy:  -304.21615378567316
    Total Energy =                       -304.2161537856731570
 Dipole X            :         13.9242335          -13.5175284            0.4067050
 Dipole Y            :        -22.7244123           22.5516174           -0.1727949
 Dipole Z            :          4.2692517           -4.4231459           -0.1538942
 Magnitude           :                                                    0.4679214
  Basis Set: (AUG-CC-PVTZ AUX)
    Blend: AUG-CC-PVTZ-RI + DEF2-QZVPP-RI
	 Reference Energy          =    -304.2161537856731570 [Eh]
	 Singles Energy            =      -0.0000000000000000 [Eh]
	 Same-Spin Energy          =      -0.2767341899385066 [Eh]
	 Opposite-Spin Energy      =      -0.8697262371285397 [Eh]
	 Correlation Energy        =      -1.1464604270670462 [Eh]
	 Total Energy              =    -305.3626142127401977 [Eh]
	 SCS Total Energy          =    -305.3520700002068793 [Eh]
                               Psi4 1.9 release
    Molecular point group: c1
  Multiplicity = 1
  Basis Set: AUG-CC-PVTZ
    Blend: AUG-CC-PVTZ
  Basis Set: (AUG-CC-PVTZ AUX)
    Blend: AUG-CC-PVTZ-JKFIT + DEF2-UNIVERSAL-JKFIT
  @DF-RHF Final Energy:  -161.67607982709964
    Total Energy =                       -161.6760798270996418
  Basis Set: (AUG-CC-PVTZ AUX)
	 Singles Energy            =      -0.0000000000000000 [Eh]
	 Same-Spin Energy          =      -0.0050862280663639 [Eh]
	 Opposite-Spin Energy      =      -0.0163157936559646 [Eh]
	 Correlation Energy        =      -0.0214020217223285 [Eh]
	 Total Energy              =    -161.6974818488219796 [Eh]
	 SCS Total Energy          =    -161.6973541888422403 [Eh]
                               Psi4 1.9 release
    Molecular point group: c1

    Geometry (in Bohr), charge = 1, multiplicity = 1:

       Center              X                  Y                   Z               Mass
    ------------   -----------------  -----------------  -----------------  -----------------
         NA           0.000000000000     0.000000000000     0.000000000000    22.989769282000
         O            4.168681030702     1.200276556120     1.376425487178    15.994914619570
         H            5.769974478179     0.482513220244     0.714802135037     1.007825032230
         H            3.925427924929     0.778535038344     3.159219570101     1.007825032230
         O           -4.318046873385    -1.031272679542    -1.937596667668    15.994914619570
         H           -3.766934705061    -1.054926381454    -3.636364078422     1.007825032230
         H           -4.940630373500    -2.777496782484    -1.712874216281     1.007825032230
         O            0.708201321681     0.909740612961    -4.065415056851    15.994914619570
         H           -0.185064658918    -0.014685061721    -5.361470491913     1.007825032230
         H            0.164190744137     2.654135461015    -4.166876342253     1.007825032230
         O           -2.027039294912     1.233267394818     4.230588458572    15.994914619570
         H           -0.381537594456     0.982425148925     5.158668863581     1.007825032230
         H           -2.357323737393     3.005021697716     4.589730908716     1.007825032230

  Charge       = 1
  Multiplicity = 1
  Basis Set: AUG-CC-PVTZ
    Blend: AUG-CC-PVTZ
  Basis Set: (AUG-CC-PVTZ AUX)
    Blend: AUG-CC-PVTZ-JKFIT + DEF2-UNIVERSAL-JKFIT

    Orbital Energies [Eh]
    ---------------------

    Doubly Occupied:

       1A    -40.602108     2A    -20.749237     3A    -20.744253
       4A    -20.739958     5A    -20.732003     6A     -2.923248
       7A     -1.648997     8A     -1.647658     9A     -1.645991
      10A     -1.533767    11A     -1.515139    12A     -1.513583
      13A     -1.506768    14A     -0.904187    15A     -0.892617
      16A     -0.870732    17A     -0.859070    18A     -0.774393
      19A     -0.758736    20A     -0.751950    21A     -0.750416
      22A     -0.704058    23A     -0.688100    24A     -0.678884
      25A     -0.674310

  @DF-RHF Final Energy:  -465.99390259597209

   => Energetics <=

    Nuclear Repulsion Energy =            210.3459692715588574
    One-Electron Energy =               -1059.0594134750908779
    Two-Electron Energy =                 382.7195416075599610
    Total Energy =                       -465.9939025959720880
 Dipole X            :         13.8947740          -13.5175284            0.3772456
 Dipole Y            :        -22.5994396           22.5516174           -0.0478222
 Dipole Z            :          4.2001967           -4.4231459           -0.2229491
 Magnitude           :                                                    0.4408032
  Basis Set: (AUG-CC-PVTZ AUX)
    Blend: AUG-CC-PVTZ-RI + DEF2-QZVPP-RI
	 Reference Energy          =    -465.9939025959720880 [Eh]
	 Singles Energy            =      -0.0000000000000000 [Eh]
	 Same-Spin Energy          =      -0.2812914367486410 [Eh]
	 Opposite-Spin Energy      =      -0.8822100128750885 [Eh]
	 Correlation Energy        =      -1.1635014496237295 [Eh]
	 Total Energy              =    -467.1574040455957970 [Eh]

	 ================> DF-SCS-MP2 Energies <==================
	-----------------------------------------------------------
	 SCS Same-Spin Scale       =       0.3333333333333333 [-]
	 SCS Opposite-Spin Scale   =       1.2000000000000000 [-]
	 SCS Same-Spin Energy      =      -0.0937638122495470 [Eh]
	 SCS Opposite-Spin Energy  =      -1.0586520154501062 [Eh]
	 SCS Correlation Energy    =      -1.1524158276996532 [Eh]
	 SCS Total Energy          =    -467.1463184236717439 [Eh]
	-----------------------------------------------------------

*** Psi4 exiting successfully. Buy a developer a beer!
