                               Psi4 1.8.2 release

  ==> Input File <==

--------------------------------------------------------------------------
MEMORY 60 GB

molecule dimer {
1 1
Na         0.000000     0.000000     0.000000
O          2.497786    -0.242273     0.422092
H          3.049045    -0.461710    -0.372715
H          2.916442     0.393536     1.013630
O         -0.170722     1.880488     1.566801
H         -0.585546     2.675444     1.117741
H         -0.725283     1.778538     2.397862
O         -0.123890    -2.509853    -0.843574
H         -0.312475    -3.220754    -0.195645
H         -0.767002    -2.582567    -1.518445
O         -2.372716     0.104252     0.086632
H         -3.016397     0.698396     0.520165
H         -2.302894    -0.639156     0.705936

units ang
no_reorient
no_com
symmetry c1
}

set {
basis        aug-cc-pVTZ
scf_type     df
}

energy("mp2")
--------------------------------------------------------------------------

    Molecular point group: c1

    Geometry (in Angstrom), charge = 1, multiplicity = 1:

       Center              X                  Y                   Z               Mass
    ------------   -----------------  -----------------  -----------------  -----------------
         NA           0.000000000000     0.000000000000     0.000000000000    22.989769282000
         O            2.497786000000    -0.242273000000     0.422092000000    15.994914619570
         H            3.049045000000    -0.461710000000    -0.372715000000     1.007825032230
         H            2.916442000000     0.393536000000     1.013630000000     1.007825032230
         O           -0.170722000000     1.880488000000     1.566801000000    15.994914619570
         H           -0.585546000000     2.675444000000     1.117741000000     1.007825032230
         H           -0.725283000000     1.778538000000     2.397862000000     1.007825032230
         O           -0.123890000000    -2.509853000000    -0.843574000000    15.994914619570
         H           -0.312475000000    -3.220754000000    -0.195645000000     1.007825032230
         H           -0.767002000000    -2.582567000000    -1.518445000000     1.007825032230
         O           -2.372716000000     0.104252000000     0.086632000000    15.994914619570
         H           -3.016397000000     0.698396000000     0.520165000000     1.007825032230
         H           -2.302894000000    -0.639156000000     0.705936000000     1.007825032230

  Charge       = 1
  Multiplicity = 1
  Basis Set: AUG-CC-PVTZ
    Blend: AUG-CC-PVTZ
  Basis Set: (AUG-CC-PVTZ AUX)
    Blend: AUG-CC-PVTZ-JKFIT + DEF2-UNIVERSAL-JKFIT

    Orbital Energies [Eh]
    ---------------------

    Doubly Occupied:

       1A    -40.605770     2A    -20.745128     3A    -20.741959
       4A    -20.723797     5A    -20.716114     6A     -2.924491
       7A     -1.649819     8A     -1.647924     9A     -1.647425
      10A     -1.524540    11A     -1.510796    12A     -1.501793
      13A     -1.488566    14A     -0.885066    15A     -0.879038
      16A     -0.871433    17A     -0.858588    18A     -0.768614
      19A     -0.757030    20A     -0.746079    21A     -0.723898
      22A     -0.700511    23A     -0.672012    24A     -0.671064
      25A     -0.659784

  @DF-RHF Final Energy:  -466.00420334136766

   => Energetics <=

    Nuclear Repulsion Energy =            205.1580122113543894
    One-Electron Energy =               -1049.0819503178611285
    Two-Electron Energy =                 377.9197347651390828
    Total Energy =                       -466.0042033413676563
 Dipole X            :          4.9014712           -5.8589938           -0.9575226
 Dipole Y            :         14.2528201          -14.1679590            0.0848611
 Dipole Z            :        -24.6533483           25.5569150            0.9035667
 Magnitude           :                                                    1.3192740
  Basis Set: (AUG-CC-PVTZ AUX)
    Blend: AUG-CC-PVTZ-RI + DEF2-QZVPP-RI
	 Reference Energy          =    -466.0042033413676563 [Eh]
	 Singles Energy            =      -0.0000000000000000 [Eh]
	 Same-Spin Energy          =      -0.2803450408562024 [Eh]
	 Opposite-Spin Energy      =      -0.8799803445824683 [Eh]
	 Correlation Energy        =      -1.1603253854386708 [Eh]
	 Total Energy              =    -467.1645287268063385 [Eh]

	 ================> DF-SCS-MP2 Energies <==================
	-----------------------------------------------------------
	 SCS Same-Spin Scale       =       0.3333333333333333 [-]
	 SCS Opposite-Spin Scale   =       1.2000000000000000 [-]
	 SCS Same-Spin Energy      =      -0.0934483469520675 [Eh]
	 SCS Opposite-Spin Energy  =      -1.0559764134989620 [Eh]
	 SCS Correlation Energy    =      -1.1494247604510295 [Eh]
	 SCS Total Energy          =    -467.1536281018186969 [Eh]
	-----------------------------------------------------------

*** Psi4 exiting successfully. Buy a developer a beer!
