                               Psi4 1.8.2 release

  ==> Input File <==

--------------------------------------------------------------------------
MEMORY 60 GB

molecule dimer {
0 1
Gh(Na)     0.000000     0.000000     0.000000
Gh(O)      1.404702    -0.485518    -1.896445
Gh(H)      1.038745    -1.321937    -2.102680
Gh(H)      1.307717     0.036148    -2.685769
Gh(O)     -1.779006    -0.081116    -1.451137
Gh(H)     -1.861816     0.166913    -2.371670
Gh(H)     -2.628732     0.137084    -0.991427
O         -0.705629    -1.885287     0.969773
H         -1.640917    -1.977294     0.921356
H         -0.341296    -2.802783     1.169197
Gh(O)     -0.020124     2.263140    -0.701517
Gh(H)      0.750889     2.324265    -1.265418
Gh(H)     -0.815691     2.319251    -1.249151

units ang
no_reorient
no_com
symmetry c1
}

set {
basis        aug-cc-pVTZ
scf_type     df
}

energy("mp2")
--------------------------------------------------------------------------

    Molecular point group: c1

    Geometry (in Angstrom), charge = 0, multiplicity = 1:

       Center              X                  Y                   Z               Mass
    ------------   -----------------  -----------------  -----------------  -----------------
      Gh(NA)          0.000000000000     0.000000000000     0.000000000000    22.989769282000
      Gh(O)           1.404702000000    -0.485518000000    -1.896445000000    15.994914619570
      Gh(H)           1.038745000000    -1.321937000000    -2.102680000000     1.007825032230
      Gh(H)           1.307717000000     0.036148000000    -2.685769000000     1.007825032230
      Gh(O)          -1.779006000000    -0.081116000000    -1.451137000000    15.994914619570
      Gh(H)          -1.861816000000     0.166913000000    -2.371670000000     1.007825032230
      Gh(H)          -2.628732000000     0.137084000000    -0.991427000000     1.007825032230
         O           -0.705629000000    -1.885287000000     0.969773000000    15.994914619570
         H           -1.640917000000    -1.977294000000     0.921356000000     1.007825032230
         H           -0.341296000000    -2.802783000000     1.169197000000     1.007825032230
      Gh(O)          -0.020124000000     2.263140000000    -0.701517000000    15.994914619570
      Gh(H)           0.750889000000     2.324265000000    -1.265418000000     1.007825032230
      Gh(H)          -0.815691000000     2.319251000000    -1.249151000000     1.007825032230

  Charge       = 0
  Multiplicity = 1
  Basis Set: AUG-CC-PVTZ
    Blend: AUG-CC-PVTZ
  Basis Set: (AUG-CC-PVTZ AUX)
    Blend: AUG-CC-PVTZ-JKFIT + DEF2-UNIVERSAL-JKFIT

    Orbital Energies [Eh]
    ---------------------

    Doubly Occupied:

       1A    -20.568889     2A     -1.344724     3A     -0.712259
       4A     -0.577799     5A     -0.508479

  @DF-RHF Final Energy:   -76.05709478622123

   => Energetics <=

    Nuclear Repulsion Energy =              9.0414067184426941
    One-Electron Energy =                -122.7727000065230243
    Two-Electron Energy =                  37.6741985018591095
    Total Energy =                        -76.0570947862212279
 Dipole X            :         14.0265542          -14.4134041           -0.3868499
 Dipole Y            :         36.8719954          -37.5344452           -0.6624498
 Dipole Z            :        -18.5130821           18.6114156            0.0983335
 Magnitude           :                                                    0.7734094
  Basis Set: (AUG-CC-PVTZ AUX)
    Blend: AUG-CC-PVTZ-RI + DEF2-QZVPP-RI
	 Reference Energy          =     -76.0570947862212279 [Eh]
	 Singles Energy            =      -0.0000000000000000 [Eh]
	 Same-Spin Energy          =      -0.0686507365325836 [Eh]
	 Opposite-Spin Energy      =      -0.2166371791488561 [Eh]
	 Correlation Energy        =      -0.2852879156814397 [Eh]
	 Total Energy              =     -76.3423827019026646 [Eh]

	 ================> DF-SCS-MP2 Energies <==================
	-----------------------------------------------------------
	 SCS Same-Spin Scale       =       0.3333333333333333 [-]
	 SCS Opposite-Spin Scale   =       1.2000000000000000 [-]
	 SCS Same-Spin Energy      =      -0.0228835788441945 [Eh]
	 SCS Opposite-Spin Energy  =      -0.2599646149786273 [Eh]
	 SCS Correlation Energy    =      -0.2828481938228219 [Eh]
	 SCS Total Energy          =     -76.3399429800440430 [Eh]
	-----------------------------------------------------------

*** Psi4 exiting successfully. Buy a developer a beer!
