                               Psi4 1.8.2 release

  ==> Input File <==

--------------------------------------------------------------------------
MEMORY 60 GB

molecule dimer {
0 1
Gh(Na)     0.000000     0.000000     0.000000
Gh(O)     -1.724880    -1.271601     1.213900
Gh(H)     -2.325128    -0.571095     1.379831
Gh(H)     -2.168723    -1.746989     0.502293
Gh(O)     -0.039054    -1.936295    -1.391128
Gh(H)      0.391505    -2.720753    -1.100880
Gh(H)      0.371378    -1.668308    -2.222008
Gh(O)     -1.221731     2.060268    -0.618102
Gh(H)     -2.197672     1.923654    -0.578974
Gh(H)     -1.034113     2.478922     0.254269
Gh(O)      2.170696    -1.419467     0.263194
Gh(H)      2.386052    -0.539926    -0.129718
Gh(H)      2.614810    -1.412889     1.118737
O          1.577504     0.614945    -1.358706
H          1.342517     0.541305    -2.293175
H          1.634371     1.604489    -1.284154
Gh(O)      0.804081     0.832483     2.115286
Gh(H)      0.484562     0.652400     2.977864
Gh(H)      1.717967     0.859279     2.323688

units ang
no_reorient
no_com
symmetry c1
}

set {
basis        aug-cc-pVTZ
scf_type     df
}

energy("mp2")
--------------------------------------------------------------------------

    Molecular point group: c1

    Geometry (in Angstrom), charge = 0, multiplicity = 1:

       Center              X                  Y                   Z               Mass
    ------------   -----------------  -----------------  -----------------  -----------------
      Gh(NA)          0.000000000000     0.000000000000     0.000000000000    22.989769282000
      Gh(O)          -1.724880000000    -1.271601000000     1.213900000000    15.994914619570
      Gh(H)          -2.325128000000    -0.571095000000     1.379831000000     1.007825032230
      Gh(H)          -2.168723000000    -1.746989000000     0.502293000000     1.007825032230
      Gh(O)          -0.039054000000    -1.936295000000    -1.391128000000    15.994914619570
      Gh(H)           0.391505000000    -2.720753000000    -1.100880000000     1.007825032230
      Gh(H)           0.371378000000    -1.668308000000    -2.222008000000     1.007825032230
      Gh(O)          -1.221731000000     2.060268000000    -0.618102000000    15.994914619570
      Gh(H)          -2.197672000000     1.923654000000    -0.578974000000     1.007825032230
      Gh(H)          -1.034113000000     2.478922000000     0.254269000000     1.007825032230
      Gh(O)           2.170696000000    -1.419467000000     0.263194000000    15.994914619570
      Gh(H)           2.386052000000    -0.539926000000    -0.129718000000     1.007825032230
      Gh(H)           2.614810000000    -1.412889000000     1.118737000000     1.007825032230
         O            1.577504000000     0.614945000000    -1.358706000000    15.994914619570
         H            1.342517000000     0.541305000000    -2.293175000000     1.007825032230
         H            1.634371000000     1.604489000000    -1.284154000000     1.007825032230
      Gh(O)           0.804081000000     0.832483000000     2.115286000000    15.994914619570
      Gh(H)           0.484562000000     0.652400000000     2.977864000000     1.007825032230
      Gh(H)           1.717967000000     0.859279000000     2.323688000000     1.007825032230

  Charge       = 0
  Multiplicity = 1
  Basis Set: AUG-CC-PVTZ
    Blend: AUG-CC-PVTZ
  Basis Set: (AUG-CC-PVTZ AUX)
    Blend: AUG-CC-PVTZ-JKFIT + DEF2-UNIVERSAL-JKFIT

    Orbital Energies [Eh]
    ---------------------

    Doubly Occupied:

       1A    -20.573135     2A     -1.345709     3A     -0.695444
       4A     -0.590405     5A     -0.510018

  @DF-RHF Final Energy:   -76.05716028392388

   => Energetics <=

    Nuclear Repulsion Energy =              8.9938798878445585
    One-Electron Energy =                -122.6726555034046982
    Two-Electron Energy =                  37.6216153316362707
    Total Energy =                        -76.0571602839238778
 Dipole X            :        -29.5899931           29.4739072           -0.1160859
 Dipole Y            :        -12.7635524           13.3515840            0.5880316
 Dipole Z            :         26.7413023          -27.3008299           -0.5595276
 Magnitude           :                                                    0.8199562
  Basis Set: (AUG-CC-PVTZ AUX)
    Blend: AUG-CC-PVTZ-RI + DEF2-QZVPP-RI
	 Reference Energy          =     -76.0571602839238778 [Eh]
	 Singles Energy            =      -0.0000000000000000 [Eh]
	 Same-Spin Energy          =      -0.0690197109133461 [Eh]
	 Opposite-Spin Energy      =      -0.2181438937452860 [Eh]
	 Correlation Energy        =      -0.2871636046586321 [Eh]
	 Total Energy              =     -76.3443238885825082 [Eh]

	 ================> DF-SCS-MP2 Energies <==================
	-----------------------------------------------------------
	 SCS Same-Spin Scale       =       0.3333333333333333 [-]
	 SCS Opposite-Spin Scale   =       1.2000000000000000 [-]
	 SCS Same-Spin Energy      =      -0.0230065703044487 [Eh]
	 SCS Opposite-Spin Energy  =      -0.2617726724943432 [Eh]
	 SCS Correlation Energy    =      -0.2847792427987919 [Eh]
	 SCS Total Energy          =     -76.3419395267226690 [Eh]
	-----------------------------------------------------------

*** Psi4 exiting successfully. Buy a developer a beer!
