                               Psi4 1.8.2 release

  ==> Input File <==

--------------------------------------------------------------------------
MEMORY 60 GB

molecule dimer {
1 1
Na         0.000000     0.000000     0.000000
Gh(O)     -0.634954     2.413494    -0.469274
Gh(H)     -0.282418     2.529735     0.411993
Gh(H)      0.141916     2.156275    -1.092832
Gh(O)      1.214648     0.775486     1.918368
Gh(H)      0.880044     0.448486     2.755494
Gh(H)      1.217297     1.754919     1.974001
Gh(O)     -0.701755    -1.577387     1.746965
Gh(H)      0.074402    -2.165534     1.642667
Gh(H)     -1.200487    -1.862180     2.524719
Gh(O)     -0.775218    -1.328748    -1.945209
Gh(H)     -1.162383    -1.989746    -1.350365
Gh(H)     -0.197621    -1.804248    -2.558987
Gh(O)      1.999358    -1.188625    -0.266368
Gh(H)      1.946447    -1.713828    -1.091922
Gh(H)      2.822903    -0.667217    -0.248495
Gh(O)     -2.490267     0.426443     0.351436
Gh(H)     -2.601949     1.346809     0.579271
Gh(H)     -3.125572    -0.045171     0.927670

units ang
no_reorient
no_com
symmetry c1
}

set {
basis        aug-cc-pVTZ
scf_type     df
}

energy("mp2")
--------------------------------------------------------------------------

    Molecular point group: c1

    Geometry (in Angstrom), charge = 1, multiplicity = 1:

       Center              X                  Y                   Z               Mass
    ------------   -----------------  -----------------  -----------------  -----------------
         NA           0.000000000000     0.000000000000     0.000000000000    22.989769282000
      Gh(O)          -0.634954000000     2.413494000000    -0.469274000000    15.994914619570
      Gh(H)          -0.282418000000     2.529735000000     0.411993000000     1.007825032230
      Gh(H)           0.141916000000     2.156275000000    -1.092832000000     1.007825032230
      Gh(O)           1.214648000000     0.775486000000     1.918368000000    15.994914619570
      Gh(H)           0.880044000000     0.448486000000     2.755494000000     1.007825032230
      Gh(H)           1.217297000000     1.754919000000     1.974001000000     1.007825032230
      Gh(O)          -0.701755000000    -1.577387000000     1.746965000000    15.994914619570
      Gh(H)           0.074402000000    -2.165534000000     1.642667000000     1.007825032230
      Gh(H)          -1.200487000000    -1.862180000000     2.524719000000     1.007825032230
      Gh(O)          -0.775218000000    -1.328748000000    -1.945209000000    15.994914619570
      Gh(H)          -1.162383000000    -1.989746000000    -1.350365000000     1.007825032230
      Gh(H)          -0.197621000000    -1.804248000000    -2.558987000000     1.007825032230
      Gh(O)           1.999358000000    -1.188625000000    -0.266368000000    15.994914619570
      Gh(H)           1.946447000000    -1.713828000000    -1.091922000000     1.007825032230
      Gh(H)           2.822903000000    -0.667217000000    -0.248495000000     1.007825032230
      Gh(O)          -2.490267000000     0.426443000000     0.351436000000    15.994914619570
      Gh(H)          -2.601949000000     1.346809000000     0.579271000000     1.007825032230
      Gh(H)          -3.125572000000    -0.045171000000     0.927670000000     1.007825032230

  Charge       = 1
  Multiplicity = 1
  Basis Set: AUG-CC-PVTZ
    Blend: AUG-CC-PVTZ
  Basis Set: (AUG-CC-PVTZ AUX)
    Blend: AUG-CC-PVTZ-JKFIT + DEF2-UNIVERSAL-JKFIT

    Orbital Energies [Eh]
    ---------------------

    Doubly Occupied:

       1A    -40.760414     2A     -3.073774     3A     -1.797130
       4A     -1.797117     5A     -1.797109

  @DF-RHF Final Energy:  -161.67609616576303

   => Energetics <=

    Nuclear Repulsion Energy =              0.0000000000000000
    One-Electron Energy =                -224.9011048183958792
    Two-Electron Energy =                  63.2250086526328516
    Total Energy =                       -161.6760961657630276
 Dipole X            :         -0.0000473            0.0000000           -0.0000473
 Dipole Y            :         -0.0000396            0.0000000           -0.0000396
 Dipole Z            :         -0.0000033            0.0000000           -0.0000033
 Magnitude           :                                                    0.0000618
  Basis Set: (AUG-CC-PVTZ AUX)
    Blend: AUG-CC-PVTZ-RI + DEF2-QZVPP-RI
	 Reference Energy          =    -161.6760961657630276 [Eh]
	 Singles Energy            =      -0.0000000000000000 [Eh]
	 Same-Spin Energy          =      -0.0071346753363682 [Eh]
	 Opposite-Spin Energy      =      -0.0215196991444482 [Eh]
	 Correlation Energy        =      -0.0286543744808164 [Eh]
	 Total Energy              =    -161.7047505402438503 [Eh]

	 ================> DF-SCS-MP2 Energies <==================
	-----------------------------------------------------------
	 SCS Same-Spin Scale       =       0.3333333333333333 [-]
	 SCS Opposite-Spin Scale   =       1.2000000000000000 [-]
	 SCS Same-Spin Energy      =      -0.0023782251121227 [Eh]
	 SCS Opposite-Spin Energy  =      -0.0258236389733378 [Eh]
	 SCS Correlation Energy    =      -0.0282018640854605 [Eh]
	 SCS Total Energy          =    -161.7042980298485020 [Eh]
	-----------------------------------------------------------

*** Psi4 exiting successfully. Buy a developer a beer!
