                               Psi4 1.8.2 release

  ==> Input File <==

--------------------------------------------------------------------------
MEMORY 60 GB

molecule dimer {
1 1
Na         0.000000     0.000000     0.000000
O         -1.303188     1.664866     1.104595
H         -0.470288     2.199361     1.156535
H         -1.573108     1.918059     0.254875
O          0.729354    -2.356522     0.687908
H          1.312049    -1.877683     1.251734
H          0.115995    -2.750276     1.273369
O          0.100788    -0.239392    -2.295890
H         -0.074582     0.302705    -3.084869
H         -0.313292    -1.090884    -2.589965
O          2.035040     1.209218     0.044939
H          2.826981     0.709029     0.335038
H          2.348264     1.657480    -0.765905

units ang
no_reorient
no_com
symmetry c1
}

set {
basis        aug-cc-pVTZ
scf_type     df
}

energy("mp2")
--------------------------------------------------------------------------

    Molecular point group: c1

    Geometry (in Angstrom), charge = 1, multiplicity = 1:

       Center              X                  Y                   Z               Mass
    ------------   -----------------  -----------------  -----------------  -----------------
         NA           0.000000000000     0.000000000000     0.000000000000    22.989769282000
         O           -1.303188000000     1.664866000000     1.104595000000    15.994914619570
         H           -0.470288000000     2.199361000000     1.156535000000     1.007825032230
         H           -1.573108000000     1.918059000000     0.254875000000     1.007825032230
         O            0.729354000000    -2.356522000000     0.687908000000    15.994914619570
         H            1.312049000000    -1.877683000000     1.251734000000     1.007825032230
         H            0.115995000000    -2.750276000000     1.273369000000     1.007825032230
         O            0.100788000000    -0.239392000000    -2.295890000000    15.994914619570
         H           -0.074582000000     0.302705000000    -3.084869000000     1.007825032230
         H           -0.313292000000    -1.090884000000    -2.589965000000     1.007825032230
         O            2.035040000000     1.209218000000     0.044939000000    15.994914619570
         H            2.826981000000     0.709029000000     0.335038000000     1.007825032230
         H            2.348264000000     1.657480000000    -0.765905000000     1.007825032230

  Charge       = 1
  Multiplicity = 1
  Basis Set: AUG-CC-PVTZ
    Blend: AUG-CC-PVTZ
  Basis Set: (AUG-CC-PVTZ AUX)
    Blend: AUG-CC-PVTZ-JKFIT + DEF2-UNIVERSAL-JKFIT

    Orbital Energies [Eh]
    ---------------------

    Doubly Occupied:

       1A    -40.605672     2A    -20.751348     3A    -20.749763
       4A    -20.741240     5A    -20.733106     6A     -2.927344
       7A     -1.652321     8A     -1.651764     9A     -1.651044
      10A     -1.534327    11A     -1.532778    12A     -1.526996
      13A     -1.524373    14A     -0.897076    15A     -0.884738
      16A     -0.877087    17A     -0.873562    18A     -0.785887
      19A     -0.779252    20A     -0.768145    21A     -0.760648
      22A     -0.697169    23A     -0.694005    24A     -0.690532
      25A     -0.685759

  @DF-RHF Final Energy:  -466.00139666409234

   => Energetics <=

    Nuclear Repulsion Energy =            211.8529984313634600
    One-Electron Energy =               -1061.7569174074931198
    Two-Electron Energy =                 383.9025223120373767
    Total Energy =                       -466.0013966640923400
 Dipole X            :        -30.6072506           31.4979003            0.8906496
 Dipole Y            :         -5.8732834            6.2231535            0.3498701
 Dipole Z            :         10.0846783          -11.0299005           -0.9452223
 Magnitude           :                                                    1.3450320
  Basis Set: (AUG-CC-PVTZ AUX)
    Blend: AUG-CC-PVTZ-RI + DEF2-QZVPP-RI
	 Reference Energy          =    -466.0013966640923400 [Eh]
	 Singles Energy            =      -0.0000000000000000 [Eh]
	 Same-Spin Energy          =      -0.2800145404826597 [Eh]
	 Opposite-Spin Energy      =      -0.8787306829491847 [Eh]
	 Correlation Energy        =      -1.1587452234318443 [Eh]
	 Total Energy              =    -467.1601418875241620 [Eh]

	 ================> DF-SCS-MP2 Energies <==================
	-----------------------------------------------------------
	 SCS Same-Spin Scale       =       0.3333333333333333 [-]
	 SCS Opposite-Spin Scale   =       1.2000000000000000 [-]
	 SCS Same-Spin Energy      =      -0.0933381801608866 [Eh]
	 SCS Opposite-Spin Energy  =      -1.0544768195390215 [Eh]
	 SCS Correlation Energy    =      -1.1478149996999081 [Eh]
	 SCS Total Energy          =    -467.1492116637922436 [Eh]
	-----------------------------------------------------------

*** Psi4 exiting successfully. Buy a developer a beer!
