                               Psi4 1.8.2 release

  ==> Input File <==

--------------------------------------------------------------------------
MEMORY 60 GB

molecule dimer {
1 1
Na         0.000000     0.000000     0.000000
Gh(O)      0.766127     0.515039     1.981709
Gh(H)      1.319922    -0.208424     2.371871
Gh(H)      0.227460     0.853158     2.684082
Gh(O)      1.024406     2.176228    -1.057194
Gh(H)      1.536833     2.576739    -0.331655
Gh(H)      0.165288     2.624778    -1.158303
Gh(O)     -0.492044    -0.696903    -2.430464
Gh(H)      0.340264    -0.313786    -2.821962
Gh(H)     -0.852891    -1.398862    -2.972918
Gh(O)     -2.210786     0.705829     0.674056
Gh(H)     -2.694782     0.461413     1.505258
Gh(H)     -2.606634     1.473977     0.320053

units ang
no_reorient
no_com
symmetry c1
}

set {
basis        aug-cc-pVTZ
scf_type     df
}

energy("mp2")
--------------------------------------------------------------------------

    Molecular point group: c1

    Geometry (in Angstrom), charge = 1, multiplicity = 1:

       Center              X                  Y                   Z               Mass
    ------------   -----------------  -----------------  -----------------  -----------------
         NA           0.000000000000     0.000000000000     0.000000000000    22.989769282000
      Gh(O)           0.766127000000     0.515039000000     1.981709000000    15.994914619570
      Gh(H)           1.319922000000    -0.208424000000     2.371871000000     1.007825032230
      Gh(H)           0.227460000000     0.853158000000     2.684082000000     1.007825032230
      Gh(O)           1.024406000000     2.176228000000    -1.057194000000    15.994914619570
      Gh(H)           1.536833000000     2.576739000000    -0.331655000000     1.007825032230
      Gh(H)           0.165288000000     2.624778000000    -1.158303000000     1.007825032230
      Gh(O)          -0.492044000000    -0.696903000000    -2.430464000000    15.994914619570
      Gh(H)           0.340264000000    -0.313786000000    -2.821962000000     1.007825032230
      Gh(H)          -0.852891000000    -1.398862000000    -2.972918000000     1.007825032230
      Gh(O)          -2.210786000000     0.705829000000     0.674056000000    15.994914619570
      Gh(H)          -2.694782000000     0.461413000000     1.505258000000     1.007825032230
      Gh(H)          -2.606634000000     1.473977000000     0.320053000000     1.007825032230

  Charge       = 1
  Multiplicity = 1
  Basis Set: AUG-CC-PVTZ
    Blend: AUG-CC-PVTZ
  Basis Set: (AUG-CC-PVTZ AUX)
    Blend: AUG-CC-PVTZ-JKFIT + DEF2-UNIVERSAL-JKFIT

    Orbital Energies [Eh]
    ---------------------

    Doubly Occupied:

       1A    -40.760768     2A     -3.073955     3A     -1.797322
       4A     -1.797255     5A     -1.797242

  @DF-RHF Final Energy:  -161.67608126161019

   => Energetics <=

    Nuclear Repulsion Energy =              0.0000000000000000
    One-Electron Energy =                -224.8990779922173147
    Two-Electron Energy =                  63.2229967306071359
    Total Energy =                       -161.6760812616101930
 Dipole X            :          0.0000246            0.0000000            0.0000246
 Dipole Y            :          0.0002362            0.0000000            0.0002362
 Dipole Z            :         -0.0000049            0.0000000           -0.0000049
 Magnitude           :                                                    0.0002375
  Basis Set: (AUG-CC-PVTZ AUX)
    Blend: AUG-CC-PVTZ-RI + DEF2-QZVPP-RI
	 Reference Energy          =    -161.6760812616101930 [Eh]
	 Singles Energy            =      -0.0000000000000000 [Eh]
	 Same-Spin Energy          =      -0.0051329146852178 [Eh]
	 Opposite-Spin Energy      =      -0.0163883283139927 [Eh]
	 Correlation Energy        =      -0.0215212429992105 [Eh]
	 Total Energy              =    -161.6976025046093923 [Eh]

	 ================> DF-SCS-MP2 Energies <==================
	-----------------------------------------------------------
	 SCS Same-Spin Scale       =       0.3333333333333333 [-]
	 SCS Opposite-Spin Scale   =       1.2000000000000000 [-]
	 SCS Same-Spin Energy      =      -0.0017109715617393 [Eh]
	 SCS Opposite-Spin Energy  =      -0.0196659939767912 [Eh]
	 SCS Correlation Energy    =      -0.0213769655385305 [Eh]
	 SCS Total Energy          =    -161.6974582271487293 [Eh]
	-----------------------------------------------------------

*** Psi4 exiting successfully. Buy a developer a beer!
