                               Psi4 1.8.2 release

  ==> Input File <==

--------------------------------------------------------------------------
MEMORY 60 GB

molecule dimer {
1 1
Na         0.000000     0.000000     0.000000
O          0.766127     0.515039     1.981709
H          1.319922    -0.208424     2.371871
H          0.227460     0.853158     2.684082
O          1.024406     2.176228    -1.057194
H          1.536833     2.576739    -0.331655
H          0.165288     2.624778    -1.158303
O         -0.492044    -0.696903    -2.430464
H          0.340264    -0.313786    -2.821962
H         -0.852891    -1.398862    -2.972918
O         -2.210786     0.705829     0.674056
H         -2.694782     0.461413     1.505258
H         -2.606634     1.473977     0.320053

units ang
no_reorient
no_com
symmetry c1
}

set {
basis        aug-cc-pVTZ
scf_type     df
}

energy("mp2")
--------------------------------------------------------------------------

    Molecular point group: c1

    Geometry (in Angstrom), charge = 1, multiplicity = 1:

       Center              X                  Y                   Z               Mass
    ------------   -----------------  -----------------  -----------------  -----------------
         NA           0.000000000000     0.000000000000     0.000000000000    22.989769282000
         O            0.766127000000     0.515039000000     1.981709000000    15.994914619570
         H            1.319922000000    -0.208424000000     2.371871000000     1.007825032230
         H            0.227460000000     0.853158000000     2.684082000000     1.007825032230
         O            1.024406000000     2.176228000000    -1.057194000000    15.994914619570
         H            1.536833000000     2.576739000000    -0.331655000000     1.007825032230
         H            0.165288000000     2.624778000000    -1.158303000000     1.007825032230
         O           -0.492044000000    -0.696903000000    -2.430464000000    15.994914619570
         H            0.340264000000    -0.313786000000    -2.821962000000     1.007825032230
         H           -0.852891000000    -1.398862000000    -2.972918000000     1.007825032230
         O           -2.210786000000     0.705829000000     0.674056000000    15.994914619570
         H           -2.694782000000     0.461413000000     1.505258000000     1.007825032230
         H           -2.606634000000     1.473977000000     0.320053000000     1.007825032230

  Charge       = 1
  Multiplicity = 1
  Basis Set: AUG-CC-PVTZ
    Blend: AUG-CC-PVTZ
  Basis Set: (AUG-CC-PVTZ AUX)
    Blend: AUG-CC-PVTZ-JKFIT + DEF2-UNIVERSAL-JKFIT

    Orbital Energies [Eh]
    ---------------------

    Doubly Occupied:

       1A    -40.592973     2A    -20.748010     3A    -20.733627
       4A    -20.721649     5A    -20.716801     6A     -2.914171
       7A     -1.639392     8A     -1.638489     9A     -1.637794
      10A     -1.531021    11A     -1.518588    12A     -1.496670
      13A     -1.490219    14A     -0.899506    15A     -0.890686
      16A     -0.874354    17A     -0.870406    18A     -0.778409
      19A     -0.758954    20A     -0.729490    21A     -0.726219
      22A     -0.699567    23A     -0.679860    24A     -0.666133
      25A     -0.659963

  @DF-RHF Final Energy:  -466.01163143758629

   => Energetics <=

    Nuclear Repulsion Energy =            210.3309965799161319
    One-Electron Energy =               -1059.4593487205368092
    Two-Electron Energy =                 383.1167207030343889
    Total Energy =                       -466.0116314375862885
 Dipole X            :         18.0286340          -18.6382100           -0.6095761
 Dipole Y            :        -51.6048547           52.2897367            0.6848820
 Dipole Z            :         14.2148838          -13.3390438            0.8758400
 Magnitude           :                                                    1.2679677
  Basis Set: (AUG-CC-PVTZ AUX)
    Blend: AUG-CC-PVTZ-RI + DEF2-QZVPP-RI
	 Reference Energy          =    -466.0116314375862885 [Eh]
	 Singles Energy            =      -0.0000000000000000 [Eh]
	 Same-Spin Energy          =      -0.2800166301102627 [Eh]
	 Opposite-Spin Energy      =      -0.8785816595869584 [Eh]
	 Correlation Energy        =      -1.1585982896972211 [Eh]
	 Total Energy              =    -467.1702297272835267 [Eh]

	 ================> DF-SCS-MP2 Energies <==================
	-----------------------------------------------------------
	 SCS Same-Spin Scale       =       0.3333333333333333 [-]
	 SCS Opposite-Spin Scale   =       1.2000000000000000 [-]
	 SCS Same-Spin Energy      =      -0.0933388767034209 [Eh]
	 SCS Opposite-Spin Energy  =      -1.0542979915043500 [Eh]
	 SCS Correlation Energy    =      -1.1476368682077709 [Eh]
	 SCS Total Energy          =    -467.1592683057940576 [Eh]
	-----------------------------------------------------------

*** Psi4 exiting successfully. Buy a developer a beer!
