                               Psi4 1.8.2 release

  ==> Input File <==

--------------------------------------------------------------------------
MEMORY 60 GB

molecule dimer {
0 1
Gh(Na)     0.000000     0.000000     0.000000
Gh(O)     -0.385609     0.971783     2.130412
Gh(H)      0.171738     1.741781     2.032620
Gh(H)      0.110888     0.513405     2.845892
Gh(O)      1.650679    -1.448679     0.973540
Gh(H)      2.407191    -1.477866     0.372562
Gh(H)      2.005735    -1.634422     1.882786
Gh(O)      1.370942     1.688736    -1.335288
Gh(H)      1.905338     1.353027    -2.042046
Gh(H)      2.089085     2.118485    -0.854267
O         -0.901623    -0.275276    -2.159721
H         -0.471246    -1.081532    -2.486808
H         -0.652592     0.403088    -2.864428

units ang
no_reorient
no_com
symmetry c1
}

set {
basis        aug-cc-pVTZ
scf_type     df
}

energy("mp2")
--------------------------------------------------------------------------

    Molecular point group: c1

    Geometry (in Angstrom), charge = 0, multiplicity = 1:

       Center              X                  Y                   Z               Mass
    ------------   -----------------  -----------------  -----------------  -----------------
      Gh(NA)          0.000000000000     0.000000000000     0.000000000000    22.989769282000
      Gh(O)          -0.385609000000     0.971783000000     2.130412000000    15.994914619570
      Gh(H)           0.171738000000     1.741781000000     2.032620000000     1.007825032230
      Gh(H)           0.110888000000     0.513405000000     2.845892000000     1.007825032230
      Gh(O)           1.650679000000    -1.448679000000     0.973540000000    15.994914619570
      Gh(H)           2.407191000000    -1.477866000000     0.372562000000     1.007825032230
      Gh(H)           2.005735000000    -1.634422000000     1.882786000000     1.007825032230
      Gh(O)           1.370942000000     1.688736000000    -1.335288000000    15.994914619570
      Gh(H)           1.905338000000     1.353027000000    -2.042046000000     1.007825032230
      Gh(H)           2.089085000000     2.118485000000    -0.854267000000     1.007825032230
         O           -0.901623000000    -0.275276000000    -2.159721000000    15.994914619570
         H           -0.471246000000    -1.081532000000    -2.486808000000     1.007825032230
         H           -0.652592000000     0.403088000000    -2.864428000000     1.007825032230

  Charge       = 0
  Multiplicity = 1
  Basis Set: AUG-CC-PVTZ
    Blend: AUG-CC-PVTZ
  Basis Set: (AUG-CC-PVTZ AUX)
    Blend: AUG-CC-PVTZ-JKFIT + DEF2-UNIVERSAL-JKFIT

    Orbital Energies [Eh]
    ---------------------

    Doubly Occupied:

       1A    -20.573551     2A     -1.338991     3A     -0.696251
       4A     -0.582579     5A     -0.508442

  @DF-RHF Final Energy:   -76.05588622549925

   => Energetics <=

    Nuclear Repulsion Energy =              8.8984080312860634
    One-Electron Energy =                -122.5089581661473375
    Two-Electron Energy =                  37.5546639093620200
    Total Energy =                        -76.0558862254992505
 Dipole X            :         16.1948708          -15.7543103            0.4405604
 Dipole Y            :          5.3538877           -5.4436433           -0.0897556
 Dipole Z            :         42.0960002          -42.7626201           -0.6666199
 Magnitude           :                                                    0.8040719
  Basis Set: (AUG-CC-PVTZ AUX)
    Blend: AUG-CC-PVTZ-RI + DEF2-QZVPP-RI
	 Reference Energy          =     -76.0558862254992505 [Eh]
	 Singles Energy            =      -0.0000000000000000 [Eh]
	 Same-Spin Energy          =      -0.0690267221425471 [Eh]
	 Opposite-Spin Energy      =      -0.2177085914508138 [Eh]
	 Correlation Energy        =      -0.2867353135933610 [Eh]
	 Total Energy              =     -76.3426215390926046 [Eh]

	 ================> DF-SCS-MP2 Energies <==================
	-----------------------------------------------------------
	 SCS Same-Spin Scale       =       0.3333333333333333 [-]
	 SCS Opposite-Spin Scale   =       1.2000000000000000 [-]
	 SCS Same-Spin Energy      =      -0.0230089073808490 [Eh]
	 SCS Opposite-Spin Energy  =      -0.2612503097409766 [Eh]
	 SCS Correlation Energy    =      -0.2842592171218256 [Eh]
	 SCS Total Energy          =     -76.3401454426210790 [Eh]
	-----------------------------------------------------------

*** Psi4 exiting successfully. Buy a developer a beer!
