                               Psi4 1.8.2 release

  ==> Input File <==

--------------------------------------------------------------------------
MEMORY 60 GB

molecule dimer {
0 1
Gh(Na)     0.000000     0.000000     0.000000
Gh(O)     -2.267046    -0.058444    -0.576173
Gh(H)     -2.957507     0.583536    -0.703646
Gh(H)     -2.245748    -0.641405    -1.346391
O          2.020528    -0.856869     0.738830
H          2.866660    -0.369129     0.689068
H          2.097887    -1.320091     1.596498
Gh(O)      0.786320    -0.955734    -2.146642
Gh(H)      0.999726    -1.902132    -2.090619
Gh(H)      0.456867    -0.843797    -3.039678
Gh(O)     -0.382137    -2.373173     0.216705
Gh(H)      0.026752    -3.262338     0.298848
Gh(H)     -1.300501    -2.497887     0.385697
Gh(O)     -0.519840     0.317423     2.277683
Gh(H)      0.259638     0.493602     2.844944
Gh(H)     -0.969288    -0.486423     2.544550

units ang
no_reorient
no_com
symmetry c1
}

set {
basis        aug-cc-pVTZ
scf_type     df
}

energy("mp2")
--------------------------------------------------------------------------

    Molecular point group: c1

    Geometry (in Angstrom), charge = 0, multiplicity = 1:

       Center              X                  Y                   Z               Mass
    ------------   -----------------  -----------------  -----------------  -----------------
      Gh(NA)          0.000000000000     0.000000000000     0.000000000000    22.989769282000
      Gh(O)          -2.267046000000    -0.058444000000    -0.576173000000    15.994914619570
      Gh(H)          -2.957507000000     0.583536000000    -0.703646000000     1.007825032230
      Gh(H)          -2.245748000000    -0.641405000000    -1.346391000000     1.007825032230
         O            2.020528000000    -0.856869000000     0.738830000000    15.994914619570
         H            2.866660000000    -0.369129000000     0.689068000000     1.007825032230
         H            2.097887000000    -1.320091000000     1.596498000000     1.007825032230
      Gh(O)           0.786320000000    -0.955734000000    -2.146642000000    15.994914619570
      Gh(H)           0.999726000000    -1.902132000000    -2.090619000000     1.007825032230
      Gh(H)           0.456867000000    -0.843797000000    -3.039678000000     1.007825032230
      Gh(O)          -0.382137000000    -2.373173000000     0.216705000000    15.994914619570
      Gh(H)           0.026752000000    -3.262338000000     0.298848000000     1.007825032230
      Gh(H)          -1.300501000000    -2.497887000000     0.385697000000     1.007825032230
      Gh(O)          -0.519840000000     0.317423000000     2.277683000000    15.994914619570
      Gh(H)           0.259638000000     0.493602000000     2.844944000000     1.007825032230
      Gh(H)          -0.969288000000    -0.486423000000     2.544550000000     1.007825032230

  Charge       = 0
  Multiplicity = 1
  Basis Set: AUG-CC-PVTZ
    Blend: AUG-CC-PVTZ
  Basis Set: (AUG-CC-PVTZ AUX)
    Blend: AUG-CC-PVTZ-JKFIT + DEF2-UNIVERSAL-JKFIT

    Orbital Energies [Eh]
    ---------------------

    Doubly Occupied:

       1A    -20.571557     2A     -1.344610     3A     -0.702278
       4A     -0.585241     5A     -0.509314

  @DF-RHF Final Energy:   -76.05841761076367

   => Energetics <=

    Nuclear Repulsion Energy =              9.0059610800887437
    One-Electron Energy =                -122.7027550019721929
    Two-Electron Energy =                  37.6383763111197780
    Total Energy =                        -76.0584176107636836
 Dipole X            :        -39.3252238           39.9275906            0.6023668
 Dipole Y            :         16.1619919          -16.1461450            0.0158469
 Dipole Z            :        -14.9618047           15.4885846            0.5267799
 Magnitude           :                                                    0.8003711
  Basis Set: (AUG-CC-PVTZ AUX)
    Blend: AUG-CC-PVTZ-RI + DEF2-QZVPP-RI
	 Reference Energy          =     -76.0584176107636694 [Eh]
	 Singles Energy            =      -0.0000000000000000 [Eh]
	 Same-Spin Energy          =      -0.0688299866378149 [Eh]
	 Opposite-Spin Energy      =      -0.2171598689213366 [Eh]
	 Correlation Energy        =      -0.2859898555591515 [Eh]
	 Total Energy              =     -76.3444074663228207 [Eh]

	 ================> DF-SCS-MP2 Energies <==================
	-----------------------------------------------------------
	 SCS Same-Spin Scale       =       0.3333333333333333 [-]
	 SCS Opposite-Spin Scale   =       1.2000000000000000 [-]
	 SCS Same-Spin Energy      =      -0.0229433288792716 [Eh]
	 SCS Opposite-Spin Energy  =      -0.2605918427056039 [Eh]
	 SCS Correlation Energy    =      -0.2835351715848756 [Eh]
	 SCS Total Energy          =     -76.3419527823485424 [Eh]
	-----------------------------------------------------------

*** Psi4 exiting successfully. Buy a developer a beer!
