                               Psi4 1.9 release

  ==> Input File <==

--------------------------------------------------------------------------
MEMORY 60 GB

molecule dimer {
1 1
Na     0.000000     0.000000     0.000000
--
0 1
O     -0.673232    -1.361551     1.844656
H     -1.547116    -1.792032     1.858565
H     -0.316973    -1.439934     2.743867
O      0.336907     1.936373     1.176897
H      0.697941     1.645446     2.028898
H     -0.264584     2.611499     1.395482
O      2.529759    -0.112909    -0.584417
H      2.441833     0.580572    -1.291541
H      2.910429    -0.881984    -1.056684
O     -0.010284    -1.811195    -1.348257
H      0.547324    -2.624263    -1.265891
H     -0.939829    -2.087539    -1.346780
O     -2.278247     0.340150    -0.389340
H     -3.045876     0.723307     0.114275
H     -2.643174    -0.488879    -0.716904

units ang
no_reorient
no_com
symmetry c1
}

set {
basis        aug-cc-pVTZ
scf_type     df
}

energy("mp2", bsse_type="cp")
--------------------------------------------------------------------------

                               Psi4 1.9 release
    Molecular point group: c1
  Charge       = 0
  Multiplicity = 1
  Basis Set: AUG-CC-PVTZ
    Blend: AUG-CC-PVTZ
  Basis Set: (AUG-CC-PVTZ AUX)
    Blend: AUG-CC-PVTZ-JKFIT + DEF2-UNIVERSAL-JKFIT
  @DF-RHF Final Energy:  -380.26872412880488
    Total Energy =                       -380.2687241288048767
 Dipole X            :          4.2809618           -5.5195140           -1.2385522
 Dipole Y            :         21.3111482          -22.3495320           -1.0383838
 Dipole Z            :        -14.5252865           15.2304348            0.7051483
 Magnitude           :                                                    1.7633736
  Basis Set: (AUG-CC-PVTZ AUX)
    Blend: AUG-CC-PVTZ-RI + DEF2-QZVPP-RI
	 Reference Energy          =    -380.2687241288048767 [Eh]
	 Singles Energy            =      -0.0000000000000000 [Eh]
	 Same-Spin Energy          =      -0.3464334619385498 [Eh]
	 Opposite-Spin Energy      =      -1.0878192410180914 [Eh]
	 Correlation Energy        =      -1.4342527029566412 [Eh]
	 Total Energy              =    -381.7029768317615321 [Eh]
	 SCS Total Energy          =    -381.6895850386727602 [Eh]
                               Psi4 1.9 release
    Molecular point group: c1
  Multiplicity = 1
  Basis Set: AUG-CC-PVTZ
    Blend: AUG-CC-PVTZ
  Basis Set: (AUG-CC-PVTZ AUX)
    Blend: AUG-CC-PVTZ-JKFIT + DEF2-UNIVERSAL-JKFIT
  @DF-RHF Final Energy:  -161.67609121355341
    Total Energy =                       -161.6760912135534056
  Basis Set: (AUG-CC-PVTZ AUX)
	 Singles Energy            =      -0.0000000000000000 [Eh]
	 Same-Spin Energy          =      -0.0062650703141192 [Eh]
	 Opposite-Spin Energy      =      -0.0192551932257558 [Eh]
	 Correlation Energy        =      -0.0255202635398750 [Eh]
	 Total Energy              =    -161.7016114770932802 [Eh]
	 SCS Total Energy          =    -161.7012858021956845 [Eh]
                               Psi4 1.9 release
    Molecular point group: c1

    Geometry (in Bohr), charge = 1, multiplicity = 1:

       Center              X                  Y                   Z               Mass
    ------------   -----------------  -----------------  -----------------  -----------------
         NA           0.000000000000     0.000000000000     0.000000000000    22.989769282000
         O           -1.272224098894    -2.572958495843     3.485894635683    15.994914619570
         H           -2.923625524314    -3.386449688056     3.512178836362     1.007825032230
         H           -0.598992159165    -2.721080898735     5.185157154682     1.007825032230
         O            0.636661959750     3.659214646731     2.224013007873    15.994914619570
         H            1.318917341728     3.109442294230     3.834061556489     1.007825032230
         H           -0.499991297178     4.935017886907     2.637078793006     1.007825032230
         O            4.780551673412    -0.213367087099    -1.104388073062    15.994914619570
         H            4.614395614105     1.097122076109    -2.440658769800     1.007825032230
         H            5.499913717590    -1.666708207036    -1.996843361153     1.007825032230
         O           -0.019433943474    -3.422662509799    -2.547836476731    15.994914619570
         H            1.034292461890    -4.959138351172    -2.392187294682     1.007825032230
         H           -1.776019414763    -3.944876986212    -2.545045351244     1.007825032230
         O           -4.305262876146     0.642790341574    -0.735745969686    15.994914619570
         H           -5.755871452105     1.366852134627     0.215948452987     1.007825032230
         H           -4.994874961931    -0.923847418488    -1.354752218245     1.007825032230

  Charge       = 1
  Multiplicity = 1
  Basis Set: AUG-CC-PVTZ
    Blend: AUG-CC-PVTZ
  Basis Set: (AUG-CC-PVTZ AUX)
    Blend: AUG-CC-PVTZ-JKFIT + DEF2-UNIVERSAL-JKFIT

    Orbital Energies [Eh]
    ---------------------

    Doubly Occupied:

       1A    -40.547058     2A    -20.735891     3A    -20.730820
       4A    -20.727670     5A    -20.716576     6A    -20.707579
       7A     -2.870783     8A     -1.597582     9A     -1.595521
      10A     -1.595034    11A     -1.513292    12A     -1.511202
      13A     -1.506640    14A     -1.505429    15A     -1.476493
      16A     -0.882247    17A     -0.876441    18A     -0.873598
      19A     -0.865639    20A     -0.837093    21A     -0.766628
      22A     -0.753459    23A     -0.750394    24A     -0.749490
      25A     -0.721358    26A     -0.683856    27A     -0.679423
      28A     -0.669616    29A     -0.664616    30A     -0.647530

  @DF-RHF Final Energy:  -542.08451713777276

   => Energetics <=

    Nuclear Repulsion Energy =            304.5049065856103425
    One-Electron Energy =               -1351.6609245606259719
    Two-Electron Energy =                 505.0715008372429224
    Total Energy =                       -542.0845171377727638
 Dipole X            :          4.1666726           -5.5195140           -1.3528414
 Dipole Y            :         21.1369124          -22.3495320           -1.2126196
 Dipole Z            :        -14.3930468           15.2304348            0.8373880
 Magnitude           :                                                    2.0004611
  Basis Set: (AUG-CC-PVTZ AUX)
    Blend: AUG-CC-PVTZ-RI + DEF2-QZVPP-RI
	 Reference Energy          =    -542.0845171377727638 [Eh]
	 Singles Energy            =      -0.0000000000000000 [Eh]
	 Same-Spin Energy          =      -0.3513770736190044 [Eh]
	 Opposite-Spin Energy      =      -1.1003094407915406 [Eh]
	 Correlation Energy        =      -1.4516865144105449 [Eh]
	 Total Energy              =    -543.5362036521833033 [Eh]

	 ================> DF-SCS-MP2 Energies <==================
	-----------------------------------------------------------
	 SCS Same-Spin Scale       =       0.3333333333333333 [-]
	 SCS Opposite-Spin Scale   =       1.2000000000000000 [-]
	 SCS Same-Spin Energy      =      -0.1171256912063348 [Eh]
	 SCS Opposite-Spin Energy  =      -1.3203713289498487 [Eh]
	 SCS Correlation Energy    =      -1.4374970201561834 [Eh]
	 SCS Total Energy          =    -543.5220141579289930 [Eh]
	-----------------------------------------------------------

*** Psi4 exiting successfully. Buy a developer a beer!
