                               Psi4 1.8.2 release

  ==> Input File <==

--------------------------------------------------------------------------
MEMORY 60 GB

molecule dimer {
1 1
Na         0.000000     0.000000     0.000000
Gh(O)      1.592894    -1.543639    -0.308375
Gh(H)      1.423686    -2.341419    -0.830979
Gh(H)      2.403710    -1.151684    -0.598431
Gh(O)      1.988946     0.824225     1.115878
Gh(H)      2.779875     0.295505     1.252466
Gh(H)      2.237778     1.548762     0.503946
Gh(O)     -0.323220     1.312717     2.049838
Gh(H)      0.524459     0.926454     2.265662
Gh(H)     -1.000485     1.060576     2.756433
Gh(O)     -1.798560    -1.449805     0.232533
Gh(H)     -2.520777    -1.195942    -0.335276
Gh(H)     -2.004259    -2.272448     0.655052
Gh(O)      1.457351     0.926491    -1.892607
Gh(H)      2.288674     0.755986    -1.447960
Gh(H)      1.638498     1.608992    -2.536718
Gh(O)     -1.853918     1.628861    -0.694243
Gh(H)     -2.596561     1.796080    -1.223462
Gh(H)     -1.590046     2.537809    -0.490567

units ang
no_reorient
no_com
symmetry c1
}

set {
basis        aug-cc-pVTZ
scf_type     df
}

energy("mp2")
--------------------------------------------------------------------------

    Molecular point group: c1

    Geometry (in Angstrom), charge = 1, multiplicity = 1:

       Center              X                  Y                   Z               Mass
    ------------   -----------------  -----------------  -----------------  -----------------
         NA           0.000000000000     0.000000000000     0.000000000000    22.989769282000
      Gh(O)           1.592894000000    -1.543639000000    -0.308375000000    15.994914619570
      Gh(H)           1.423686000000    -2.341419000000    -0.830979000000     1.007825032230
      Gh(H)           2.403710000000    -1.151684000000    -0.598431000000     1.007825032230
      Gh(O)           1.988946000000     0.824225000000     1.115878000000    15.994914619570
      Gh(H)           2.779875000000     0.295505000000     1.252466000000     1.007825032230
      Gh(H)           2.237778000000     1.548762000000     0.503946000000     1.007825032230
      Gh(O)          -0.323220000000     1.312717000000     2.049838000000    15.994914619570
      Gh(H)           0.524459000000     0.926454000000     2.265662000000     1.007825032230
      Gh(H)          -1.000485000000     1.060576000000     2.756433000000     1.007825032230
      Gh(O)          -1.798560000000    -1.449805000000     0.232533000000    15.994914619570
      Gh(H)          -2.520777000000    -1.195942000000    -0.335276000000     1.007825032230
      Gh(H)          -2.004259000000    -2.272448000000     0.655052000000     1.007825032230
      Gh(O)           1.457351000000     0.926491000000    -1.892607000000    15.994914619570
      Gh(H)           2.288674000000     0.755986000000    -1.447960000000     1.007825032230
      Gh(H)           1.638498000000     1.608992000000    -2.536718000000     1.007825032230
      Gh(O)          -1.853918000000     1.628861000000    -0.694243000000    15.994914619570
      Gh(H)          -2.596561000000     1.796080000000    -1.223462000000     1.007825032230
      Gh(H)          -1.590046000000     2.537809000000    -0.490567000000     1.007825032230

  Charge       = 1
  Multiplicity = 1
  Basis Set: AUG-CC-PVTZ
    Blend: AUG-CC-PVTZ
  Basis Set: (AUG-CC-PVTZ AUX)
    Blend: AUG-CC-PVTZ-JKFIT + DEF2-UNIVERSAL-JKFIT

    Orbital Energies [Eh]
    ---------------------

    Doubly Occupied:

       1A    -40.760494     2A     -3.073811     3A     -1.797169
       4A     -1.797160     5A     -1.797129

  @DF-RHF Final Energy:  -161.67609706179400

   => Energetics <=

    Nuclear Repulsion Energy =              0.0000000000000000
    One-Electron Energy =                -224.9006682372588841
    Two-Electron Energy =                  63.2245711754648738
    Total Energy =                       -161.6760970617939961
 Dipole X            :         -0.0000383            0.0000000           -0.0000383
 Dipole Y            :         -0.0000088            0.0000000           -0.0000088
 Dipole Z            :         -0.0001186            0.0000000           -0.0001186
 Magnitude           :                                                    0.0001250
  Basis Set: (AUG-CC-PVTZ AUX)
    Blend: AUG-CC-PVTZ-RI + DEF2-QZVPP-RI
	 Reference Energy          =    -161.6760970617939961 [Eh]
	 Singles Energy            =      -0.0000000000000000 [Eh]
	 Same-Spin Energy          =      -0.0070441068259325 [Eh]
	 Opposite-Spin Energy      =      -0.0213044324028735 [Eh]
	 Correlation Energy        =      -0.0283485392288060 [Eh]
	 Total Energy              =    -161.7044456010227975 [Eh]

	 ================> DF-SCS-MP2 Energies <==================
	-----------------------------------------------------------
	 SCS Same-Spin Scale       =       0.3333333333333333 [-]
	 SCS Opposite-Spin Scale   =       1.2000000000000000 [-]
	 SCS Same-Spin Energy      =      -0.0023480356086442 [Eh]
	 SCS Opposite-Spin Energy  =      -0.0255653188834482 [Eh]
	 SCS Correlation Energy    =      -0.0279133544920924 [Eh]
	 SCS Total Energy          =    -161.7040104162860814 [Eh]
	-----------------------------------------------------------

*** Psi4 exiting successfully. Buy a developer a beer!
