                               Psi4 1.8.2 release

  ==> Input File <==

--------------------------------------------------------------------------
MEMORY 60 GB

molecule dimer {
1 1
Na         0.000000     0.000000     0.000000
Gh(O)     -2.057757    -0.567435    -1.344412
Gh(H)     -2.384068    -1.418540    -1.257705
Gh(H)     -2.568328    -0.071263    -1.951173
Gh(O)      0.120681    -1.848179     1.208782
Gh(H)     -0.814575    -2.083590     1.439398
Gh(H)      0.484907    -2.595566     0.683991
Gh(O)      0.592422    -1.139151    -2.248474
Gh(H)     -0.326986    -1.097038    -2.041671
Gh(H)      0.797950    -2.100848    -2.177029
Gh(O)      2.158692     0.499247     0.293467
Gh(H)      2.128230     1.387558     0.586444
Gh(H)      2.800191     0.400597    -0.407694
Gh(O)     -1.819980     0.746347     1.326387
Gh(H)     -2.366039    -0.038270     1.450016
Gh(H)     -1.335759     0.819436     2.149391

units ang
no_reorient
no_com
symmetry c1
}

set {
basis        aug-cc-pVTZ
scf_type     df
}

energy("mp2")
--------------------------------------------------------------------------

    Molecular point group: c1

    Geometry (in Angstrom), charge = 1, multiplicity = 1:

       Center              X                  Y                   Z               Mass
    ------------   -----------------  -----------------  -----------------  -----------------
         NA           0.000000000000     0.000000000000     0.000000000000    22.989769282000
      Gh(O)          -2.057757000000    -0.567435000000    -1.344412000000    15.994914619570
      Gh(H)          -2.384068000000    -1.418540000000    -1.257705000000     1.007825032230
      Gh(H)          -2.568328000000    -0.071263000000    -1.951173000000     1.007825032230
      Gh(O)           0.120681000000    -1.848179000000     1.208782000000    15.994914619570
      Gh(H)          -0.814575000000    -2.083590000000     1.439398000000     1.007825032230
      Gh(H)           0.484907000000    -2.595566000000     0.683991000000     1.007825032230
      Gh(O)           0.592422000000    -1.139151000000    -2.248474000000    15.994914619570
      Gh(H)          -0.326986000000    -1.097038000000    -2.041671000000     1.007825032230
      Gh(H)           0.797950000000    -2.100848000000    -2.177029000000     1.007825032230
      Gh(O)           2.158692000000     0.499247000000     0.293467000000    15.994914619570
      Gh(H)           2.128230000000     1.387558000000     0.586444000000     1.007825032230
      Gh(H)           2.800191000000     0.400597000000    -0.407694000000     1.007825032230
      Gh(O)          -1.819980000000     0.746347000000     1.326387000000    15.994914619570
      Gh(H)          -2.366039000000    -0.038270000000     1.450016000000     1.007825032230
      Gh(H)          -1.335759000000     0.819436000000     2.149391000000     1.007825032230

  Charge       = 1
  Multiplicity = 1
  Basis Set: AUG-CC-PVTZ
    Blend: AUG-CC-PVTZ
  Basis Set: (AUG-CC-PVTZ AUX)
    Blend: AUG-CC-PVTZ-JKFIT + DEF2-UNIVERSAL-JKFIT

    Orbital Energies [Eh]
    ---------------------

    Doubly Occupied:

       1A    -40.760321     2A     -3.073756     3A     -1.797129
       4A     -1.797103     5A     -1.797080

  @DF-RHF Final Energy:  -161.67609312698903

   => Energetics <=

    Nuclear Repulsion Energy =              0.0000000000000000
    One-Electron Energy =                -224.9014064998084734
    Two-Electron Energy =                  63.2253133728194712
    Total Energy =                       -161.6760931269890023
 Dipole X            :         -0.0000601            0.0000000           -0.0000601
 Dipole Y            :         -0.0000140            0.0000000           -0.0000140
 Dipole Z            :         -0.0000695            0.0000000           -0.0000695
 Magnitude           :                                                    0.0000929
  Basis Set: (AUG-CC-PVTZ AUX)
    Blend: AUG-CC-PVTZ-RI + DEF2-QZVPP-RI
	 Reference Energy          =    -161.6760931269890307 [Eh]
	 Singles Energy            =      -0.0000000000000000 [Eh]
	 Same-Spin Energy          =      -0.0065317765695914 [Eh]
	 Opposite-Spin Energy      =      -0.0198967345153217 [Eh]
	 Correlation Energy        =      -0.0264285110849130 [Eh]
	 Total Energy              =    -161.7025216380739323 [Eh]

	 ================> DF-SCS-MP2 Energies <==================
	-----------------------------------------------------------
	 SCS Same-Spin Scale       =       0.3333333333333333 [-]
	 SCS Opposite-Spin Scale   =       1.2000000000000000 [-]
	 SCS Same-Spin Energy      =      -0.0021772588565305 [Eh]
	 SCS Opposite-Spin Energy  =      -0.0238760814183860 [Eh]
	 SCS Correlation Energy    =      -0.0260533402749165 [Eh]
	 SCS Total Energy          =    -161.7021464672639581 [Eh]
	-----------------------------------------------------------

*** Psi4 exiting successfully. Buy a developer a beer!
