                               Psi4 1.8.2 release

  ==> Input File <==

--------------------------------------------------------------------------
MEMORY 60 GB

molecule dimer {
0 1
Gh(Na)     0.000000     0.000000     0.000000
Gh(O)     -0.193331     2.133012     0.051126
Gh(H)      0.653992     2.486181    -0.227094
Gh(H)     -0.472516     2.846712     0.650011
Gh(O)      0.288803    -2.322357    -0.174914
Gh(H)     -0.642727    -2.354494    -0.182470
Gh(H)      0.543217    -2.550000    -1.066325
Gh(O)     -0.773660    -0.489796     2.272680
Gh(H)     -0.543862     0.115681     2.979151
Gh(H)     -0.362466    -1.237847     2.655977
O         -1.896119    -0.066378    -1.470424
H         -2.170950     0.762265    -1.877462
H         -2.621122    -0.681651    -1.551543
Gh(O)      1.464272     0.251391    -1.866281
Gh(H)      2.258159     0.208517    -1.354089
Gh(H)      1.592895    -0.381460    -2.532995

units ang
no_reorient
no_com
symmetry c1
}

set {
basis        aug-cc-pVTZ
scf_type     df
}

energy("mp2")
--------------------------------------------------------------------------

    Molecular point group: c1

    Geometry (in Angstrom), charge = 0, multiplicity = 1:

       Center              X                  Y                   Z               Mass
    ------------   -----------------  -----------------  -----------------  -----------------
      Gh(NA)          0.000000000000     0.000000000000     0.000000000000    22.989769282000
      Gh(O)          -0.193331000000     2.133012000000     0.051126000000    15.994914619570
      Gh(H)           0.653992000000     2.486181000000    -0.227094000000     1.007825032230
      Gh(H)          -0.472516000000     2.846712000000     0.650011000000     1.007825032230
      Gh(O)           0.288803000000    -2.322357000000    -0.174914000000    15.994914619570
      Gh(H)          -0.642727000000    -2.354494000000    -0.182470000000     1.007825032230
      Gh(H)           0.543217000000    -2.550000000000    -1.066325000000     1.007825032230
      Gh(O)          -0.773660000000    -0.489796000000     2.272680000000    15.994914619570
      Gh(H)          -0.543862000000     0.115681000000     2.979151000000     1.007825032230
      Gh(H)          -0.362466000000    -1.237847000000     2.655977000000     1.007825032230
         O           -1.896119000000    -0.066378000000    -1.470424000000    15.994914619570
         H           -2.170950000000     0.762265000000    -1.877462000000     1.007825032230
         H           -2.621122000000    -0.681651000000    -1.551543000000     1.007825032230
      Gh(O)           1.464272000000     0.251391000000    -1.866281000000    15.994914619570
      Gh(H)           2.258159000000     0.208517000000    -1.354089000000     1.007825032230
      Gh(H)           1.592895000000    -0.381460000000    -2.532995000000     1.007825032230

  Charge       = 0
  Multiplicity = 1
  Basis Set: AUG-CC-PVTZ
    Blend: AUG-CC-PVTZ
  Basis Set: (AUG-CC-PVTZ AUX)
    Blend: AUG-CC-PVTZ-JKFIT + DEF2-UNIVERSAL-JKFIT

    Orbital Energies [Eh]
    ---------------------

    Doubly Occupied:

       1A    -20.565905     2A     -1.350529     3A     -0.722697
       4A     -0.578596     5A     -0.509255

  @DF-RHF Final Energy:   -76.06052135508197

   => Energetics <=

    Nuclear Repulsion Energy =              9.1728826523882159
    One-Electron Energy =                -123.0128395248539590
    Two-Electron Energy =                  37.7794355173837744
    Total Energy =                        -76.0605213550819741
 Dipole X            :         37.0500696          -37.7208685           -0.6707989
 Dipole Y            :          0.9928565           -0.8511515            0.1417050
 Dipole Z            :         28.3824573          -28.7094695           -0.3270122
 Magnitude           :                                                    0.7595976
  Basis Set: (AUG-CC-PVTZ AUX)
    Blend: AUG-CC-PVTZ-RI + DEF2-QZVPP-RI
	 Reference Energy          =     -76.0605213550819741 [Eh]
	 Singles Energy            =      -0.0000000000000000 [Eh]
	 Same-Spin Energy          =      -0.0683830924753334 [Eh]
	 Opposite-Spin Energy      =      -0.2157080313102355 [Eh]
	 Correlation Energy        =      -0.2840911237855689 [Eh]
	 Total Energy              =     -76.3446124788675462 [Eh]

	 ================> DF-SCS-MP2 Energies <==================
	-----------------------------------------------------------
	 SCS Same-Spin Scale       =       0.3333333333333333 [-]
	 SCS Opposite-Spin Scale   =       1.2000000000000000 [-]
	 SCS Same-Spin Energy      =      -0.0227943641584445 [Eh]
	 SCS Opposite-Spin Energy  =      -0.2588496375722826 [Eh]
	 SCS Correlation Energy    =      -0.2816440017307270 [Eh]
	 SCS Total Energy          =     -76.3421653568126999 [Eh]
	-----------------------------------------------------------

*** Psi4 exiting successfully. Buy a developer a beer!
