                               Psi4 1.8.2 release

  ==> Input File <==

--------------------------------------------------------------------------
MEMORY 60 GB

molecule dimer {
0 1
Gh(Na)     0.000000     0.000000     0.000000
Gh(O)      1.436661     1.902962    -0.211771
Gh(H)      2.350805     1.847534     0.091780
Gh(H)      1.026974     2.533356     0.386801
Gh(O)     -1.323065    -1.521620    -1.098658
Gh(H)     -2.179765    -1.636529    -1.427199
Gh(H)     -0.814186    -2.298524    -1.350965
Gh(O)     -1.869489     1.230228     0.654969
Gh(H)     -2.527117     1.848262     0.238872
Gh(H)     -2.357574     0.443019     0.966796
Gh(O)      0.132845    -0.887295     1.960114
Gh(H)     -0.489936    -1.193447     2.627722
Gh(H)      0.980462    -1.159278     2.361285
O          1.844118    -1.561191    -0.276992
H          2.698911    -1.163388     0.115895
H          1.690859    -2.432842     0.069830

units ang
no_reorient
no_com
symmetry c1
}

set {
basis        aug-cc-pVTZ
scf_type     df
}

energy("mp2")
--------------------------------------------------------------------------

    Molecular point group: c1

    Geometry (in Angstrom), charge = 0, multiplicity = 1:

       Center              X                  Y                   Z               Mass
    ------------   -----------------  -----------------  -----------------  -----------------
      Gh(NA)          0.000000000000     0.000000000000     0.000000000000    22.989769282000
      Gh(O)           1.436661000000     1.902962000000    -0.211771000000    15.994914619570
      Gh(H)           2.350805000000     1.847534000000     0.091780000000     1.007825032230
      Gh(H)           1.026974000000     2.533356000000     0.386801000000     1.007825032230
      Gh(O)          -1.323065000000    -1.521620000000    -1.098658000000    15.994914619570
      Gh(H)          -2.179765000000    -1.636529000000    -1.427199000000     1.007825032230
      Gh(H)          -0.814186000000    -2.298524000000    -1.350965000000     1.007825032230
      Gh(O)          -1.869489000000     1.230228000000     0.654969000000    15.994914619570
      Gh(H)          -2.527117000000     1.848262000000     0.238872000000     1.007825032230
      Gh(H)          -2.357574000000     0.443019000000     0.966796000000     1.007825032230
      Gh(O)           0.132845000000    -0.887295000000     1.960114000000    15.994914619570
      Gh(H)          -0.489936000000    -1.193447000000     2.627722000000     1.007825032230
      Gh(H)           0.980462000000    -1.159278000000     2.361285000000     1.007825032230
         O            1.844118000000    -1.561191000000    -0.276992000000    15.994914619570
         H            2.698911000000    -1.163388000000     0.115895000000     1.007825032230
         H            1.690859000000    -2.432842000000     0.069830000000     1.007825032230

  Charge       = 0
  Multiplicity = 1
  Basis Set: AUG-CC-PVTZ
    Blend: AUG-CC-PVTZ
  Basis Set: (AUG-CC-PVTZ AUX)
    Blend: AUG-CC-PVTZ-JKFIT + DEF2-UNIVERSAL-JKFIT

    Orbital Energies [Eh]
    ---------------------

    Doubly Occupied:

       1A    -20.568738     2A     -1.336224     3A     -0.713266
       4A     -0.567337     5A     -0.506190

  @DF-RHF Final Energy:   -76.05439288672579

   => Energetics <=

    Nuclear Repulsion Energy =              8.9246375570033258
    One-Electron Energy =                -122.5745455438253657
    Two-Electron Energy =                  37.5955151000962431
    Total Energy =                        -76.0543928867257932
 Dipole X            :        -35.7135028           36.1744868            0.4609839
 Dipole Y            :         30.0744544          -30.3976771           -0.3232227
 Dipole Z            :          4.3285102           -3.8365428            0.4919675
 Magnitude           :                                                    0.7476705
  Basis Set: (AUG-CC-PVTZ AUX)
    Blend: AUG-CC-PVTZ-RI + DEF2-QZVPP-RI
	 Reference Energy          =     -76.0543928867257932 [Eh]
	 Singles Energy            =      -0.0000000000000000 [Eh]
	 Same-Spin Energy          =      -0.0688214725086844 [Eh]
	 Opposite-Spin Energy      =      -0.2171632312989170 [Eh]
	 Correlation Energy        =      -0.2859847038076014 [Eh]
	 Total Energy              =     -76.3403775905333930 [Eh]

	 ================> DF-SCS-MP2 Energies <==================
	-----------------------------------------------------------
	 SCS Same-Spin Scale       =       0.3333333333333333 [-]
	 SCS Opposite-Spin Scale   =       1.2000000000000000 [-]
	 SCS Same-Spin Energy      =      -0.0229404908362281 [Eh]
	 SCS Opposite-Spin Energy  =      -0.2605958775587005 [Eh]
	 SCS Correlation Energy    =      -0.2835363683949286 [Eh]
	 SCS Total Energy          =     -76.3379292551207271 [Eh]
	-----------------------------------------------------------

*** Psi4 exiting successfully. Buy a developer a beer!
