                               Psi4 1.8.2 release

  ==> Input File <==

--------------------------------------------------------------------------
MEMORY 60 GB

molecule dimer {
0 1
Gh(Na)     0.000000     0.000000     0.000000
Gh(O)     -1.599330     1.629936    -0.826504
Gh(H)     -2.060317     0.981063    -1.364915
Gh(H)     -1.486177     2.393893    -1.396625
O         -0.042840    -0.395400    -2.442957
H          0.550503     0.190653    -2.874800
H         -0.913132    -0.259864    -2.869914
Gh(O)     -0.515091    -0.239782     2.281892
Gh(H)     -1.087173    -1.040340     2.258925
Gh(H)     -0.899990     0.406767     2.844373
Gh(O)      1.517695     1.592560     0.966864
Gh(H)      2.451653     1.871029     1.146830
Gh(H)      0.876999     1.867977     1.656428

units ang
no_reorient
no_com
symmetry c1
}

set {
basis        aug-cc-pVTZ
scf_type     df
}

energy("mp2")
--------------------------------------------------------------------------

    Molecular point group: c1

    Geometry (in Angstrom), charge = 0, multiplicity = 1:

       Center              X                  Y                   Z               Mass
    ------------   -----------------  -----------------  -----------------  -----------------
      Gh(NA)          0.000000000000     0.000000000000     0.000000000000    22.989769282000
      Gh(O)          -1.599330000000     1.629936000000    -0.826504000000    15.994914619570
      Gh(H)          -2.060317000000     0.981063000000    -1.364915000000     1.007825032230
      Gh(H)          -1.486177000000     2.393893000000    -1.396625000000     1.007825032230
         O           -0.042840000000    -0.395400000000    -2.442957000000    15.994914619570
         H            0.550503000000     0.190653000000    -2.874800000000     1.007825032230
         H           -0.913132000000    -0.259864000000    -2.869914000000     1.007825032230
      Gh(O)          -0.515091000000    -0.239782000000     2.281892000000    15.994914619570
      Gh(H)          -1.087173000000    -1.040340000000     2.258925000000     1.007825032230
      Gh(H)          -0.899990000000     0.406767000000     2.844373000000     1.007825032230
      Gh(O)           1.517695000000     1.592560000000     0.966864000000    15.994914619570
      Gh(H)           2.451653000000     1.871029000000     1.146830000000     1.007825032230
      Gh(H)           0.876999000000     1.867977000000     1.656428000000     1.007825032230

  Charge       = 0
  Multiplicity = 1
  Basis Set: AUG-CC-PVTZ
    Blend: AUG-CC-PVTZ
  Basis Set: (AUG-CC-PVTZ AUX)
    Blend: AUG-CC-PVTZ-JKFIT + DEF2-UNIVERSAL-JKFIT

    Orbital Energies [Eh]
    ---------------------

    Doubly Occupied:

       1A    -20.566557     2A     -1.351930     3A     -0.719636
       4A     -0.581566     5A     -0.509798

  @DF-RHF Final Energy:   -76.05986665893748

   => Energetics <=

    Nuclear Repulsion Energy =              9.1783243333089963
    One-Electron Energy =                -123.0174051717328325
    Two-Electron Energy =                  37.7792141794863596
    Total Energy =                        -76.0598666589374801
 Dipole X            :          1.1544815           -1.3329164           -0.1784350
 Dipole Y            :          6.5915479           -6.1083715            0.4831764
 Dipole Z            :         47.2148997          -47.7880935           -0.5731937
 Magnitude           :                                                    0.7706164
  Basis Set: (AUG-CC-PVTZ AUX)
    Blend: AUG-CC-PVTZ-RI + DEF2-QZVPP-RI
	 Reference Energy          =     -76.0598666589374801 [Eh]
	 Singles Energy            =      -0.0000000000000000 [Eh]
	 Same-Spin Energy          =      -0.0684032870156761 [Eh]
	 Opposite-Spin Energy      =      -0.2157829611797518 [Eh]
	 Correlation Energy        =      -0.2841862481954280 [Eh]
	 Total Energy              =     -76.3440529071329053 [Eh]

	 ================> DF-SCS-MP2 Energies <==================
	-----------------------------------------------------------
	 SCS Same-Spin Scale       =       0.3333333333333333 [-]
	 SCS Opposite-Spin Scale   =       1.2000000000000000 [-]
	 SCS Same-Spin Energy      =      -0.0228010956718920 [Eh]
	 SCS Opposite-Spin Energy  =      -0.2589395534157022 [Eh]
	 SCS Correlation Energy    =      -0.2817406490875942 [Eh]
	 SCS Total Energy          =     -76.3416073080250754 [Eh]
	-----------------------------------------------------------

*** Psi4 exiting successfully. Buy a developer a beer!
