                               Psi4 1.8.2 release

  ==> Input File <==

--------------------------------------------------------------------------
MEMORY 60 GB

molecule dimer {
0 1
Gh(Na)     0.000000     0.000000     0.000000
Gh(O)      0.974400    -1.500805    -1.578092
Gh(H)      0.289260    -1.851647    -2.169700
Gh(H)      1.709261    -1.238602    -2.153686
Gh(O)     -1.797096     0.831159    -1.319080
Gh(H)     -1.656469     1.372669    -2.125826
Gh(H)     -2.720728     0.976342    -1.054127
Gh(O)      2.455762     0.636301     0.302092
Gh(H)      2.886737     1.301869     0.827337
Gh(H)      3.173762     0.185035    -0.192646
O          0.452548     1.189970     2.197550
H          1.237469     0.673737     2.428768
H         -0.021114     1.508820     3.014876

units ang
no_reorient
no_com
symmetry c1
}

set {
basis        aug-cc-pVTZ
scf_type     df
}

energy("mp2")
--------------------------------------------------------------------------

    Molecular point group: c1

    Geometry (in Angstrom), charge = 0, multiplicity = 1:

       Center              X                  Y                   Z               Mass
    ------------   -----------------  -----------------  -----------------  -----------------
      Gh(NA)          0.000000000000     0.000000000000     0.000000000000    22.989769282000
      Gh(O)           0.974400000000    -1.500805000000    -1.578092000000    15.994914619570
      Gh(H)           0.289260000000    -1.851647000000    -2.169700000000     1.007825032230
      Gh(H)           1.709261000000    -1.238602000000    -2.153686000000     1.007825032230
      Gh(O)          -1.797096000000     0.831159000000    -1.319080000000    15.994914619570
      Gh(H)          -1.656469000000     1.372669000000    -2.125826000000     1.007825032230
      Gh(H)          -2.720728000000     0.976342000000    -1.054127000000     1.007825032230
      Gh(O)           2.455762000000     0.636301000000     0.302092000000    15.994914619570
      Gh(H)           2.886737000000     1.301869000000     0.827337000000     1.007825032230
      Gh(H)           3.173762000000     0.185035000000    -0.192646000000     1.007825032230
         O            0.452548000000     1.189970000000     2.197550000000    15.994914619570
         H            1.237469000000     0.673737000000     2.428768000000     1.007825032230
         H           -0.021114000000     1.508820000000     3.014876000000     1.007825032230

  Charge       = 0
  Multiplicity = 1
  Basis Set: AUG-CC-PVTZ
    Blend: AUG-CC-PVTZ
  Basis Set: (AUG-CC-PVTZ AUX)
    Blend: AUG-CC-PVTZ-JKFIT + DEF2-UNIVERSAL-JKFIT

    Orbital Energies [Eh]
    ---------------------

    Doubly Occupied:

       1A    -20.568184     2A     -1.336763     3A     -0.715921
       4A     -0.567401     5A     -0.506227

  @DF-RHF Final Energy:   -76.05655406300801

   => Energetics <=

    Nuclear Repulsion Energy =              8.9483228652461619
    One-Electron Energy =                -122.6207559304396284
    Two-Electron Energy =                  37.6158790021854657
    Total Energy =                        -76.0565540630080079
 Dipole X            :         -8.9287261            9.1401121            0.2113859
 Dipole Y            :        -22.2478802           22.1141742           -0.1337060
 Dipole Z            :        -42.8098432           43.5091375            0.6992943
 Magnitude           :                                                    0.7426802
  Basis Set: (AUG-CC-PVTZ AUX)
    Blend: AUG-CC-PVTZ-RI + DEF2-QZVPP-RI
	 Reference Energy          =     -76.0565540630080079 [Eh]
	 Singles Energy            =      -0.0000000000000000 [Eh]
	 Same-Spin Energy          =      -0.0687479915624264 [Eh]
	 Opposite-Spin Energy      =      -0.2167313009971561 [Eh]
	 Correlation Energy        =      -0.2854792925595825 [Eh]
	 Total Energy              =     -76.3420333555675938 [Eh]

	 ================> DF-SCS-MP2 Energies <==================
	-----------------------------------------------------------
	 SCS Same-Spin Scale       =       0.3333333333333333 [-]
	 SCS Opposite-Spin Scale   =       1.2000000000000000 [-]
	 SCS Same-Spin Energy      =      -0.0229159971874755 [Eh]
	 SCS Opposite-Spin Energy  =      -0.2600775611965873 [Eh]
	 SCS Correlation Energy    =      -0.2829935583840628 [Eh]
	 SCS Total Energy          =     -76.3395476213920716 [Eh]
	-----------------------------------------------------------

*** Psi4 exiting successfully. Buy a developer a beer!
