                               Psi4 1.8.2 release

  ==> Input File <==

--------------------------------------------------------------------------
MEMORY 60 GB

molecule dimer {
1 1
Na         0.000000     0.000000     0.000000
O          0.947812     1.899105     0.977031
H          1.807821     2.044401     0.657786
H          0.588989     2.792278     0.908818
O         -1.444642    -1.016969     1.456953
H         -1.254934    -1.253499     2.356975
H         -2.235372    -0.425228     1.524061
O          0.226467    -2.132852    -0.671381
H         -0.562565    -2.437496    -1.216545
H          0.659167    -2.880779    -0.216328
O         -1.530553     1.646078    -1.126636
H         -0.996697     2.420031    -1.296472
H         -2.107683     1.693328    -1.872568
O          1.383865     0.646444    -1.792448
H          1.257365     1.030067    -2.661942
H          2.278809     0.740204    -1.509904

units ang
no_reorient
no_com
symmetry c1
}

set {
basis        aug-cc-pVTZ
scf_type     df
}

energy("mp2")
--------------------------------------------------------------------------

    Molecular point group: c1

    Geometry (in Angstrom), charge = 1, multiplicity = 1:

       Center              X                  Y                   Z               Mass
    ------------   -----------------  -----------------  -----------------  -----------------
         NA           0.000000000000     0.000000000000     0.000000000000    22.989769282000
         O            0.947812000000     1.899105000000     0.977031000000    15.994914619570
         H            1.807821000000     2.044401000000     0.657786000000     1.007825032230
         H            0.588989000000     2.792278000000     0.908818000000     1.007825032230
         O           -1.444642000000    -1.016969000000     1.456953000000    15.994914619570
         H           -1.254934000000    -1.253499000000     2.356975000000     1.007825032230
         H           -2.235372000000    -0.425228000000     1.524061000000     1.007825032230
         O            0.226467000000    -2.132852000000    -0.671381000000    15.994914619570
         H           -0.562565000000    -2.437496000000    -1.216545000000     1.007825032230
         H            0.659167000000    -2.880779000000    -0.216328000000     1.007825032230
         O           -1.530553000000     1.646078000000    -1.126636000000    15.994914619570
         H           -0.996697000000     2.420031000000    -1.296472000000     1.007825032230
         H           -2.107683000000     1.693328000000    -1.872568000000     1.007825032230
         O            1.383865000000     0.646444000000    -1.792448000000    15.994914619570
         H            1.257365000000     1.030067000000    -2.661942000000     1.007825032230
         H            2.278809000000     0.740204000000    -1.509904000000     1.007825032230

  Charge       = 1
  Multiplicity = 1
  Basis Set: AUG-CC-PVTZ
    Blend: AUG-CC-PVTZ
  Basis Set: (AUG-CC-PVTZ AUX)
    Blend: AUG-CC-PVTZ-JKFIT + DEF2-UNIVERSAL-JKFIT

    Orbital Energies [Eh]
    ---------------------

    Doubly Occupied:

       1A    -40.539186     2A    -20.724910     3A    -20.719215
       4A    -20.717114     5A    -20.714545     6A    -20.707362
       7A     -2.863427     8A     -1.589664     9A     -1.588761
      10A     -1.588092    11A     -1.524316    12A     -1.514901
      13A     -1.509864    14A     -1.497212    15A     -1.475596
      16A     -0.892459    17A     -0.875547    18A     -0.863686
      19A     -0.859739    20A     -0.854502    21A     -0.769051
      22A     -0.758680    23A     -0.747700    24A     -0.743528
      25A     -0.718601    26A     -0.685421    27A     -0.669334
      28A     -0.663786    29A     -0.659256    30A     -0.647163

  @DF-RHF Final Energy:  -542.08716352740839

   => Energetics <=

    Nuclear Repulsion Energy =            308.1547905658542845
    One-Electron Energy =               -1359.1186662783902648
    Two-Electron Energy =                 508.8767121851276443
    Total Energy =                       -542.0871635274083928
 Dipole X            :          7.5105225           -7.3727816            0.1377409
 Dipole Y            :        -21.6847126           22.7858546            1.1011421
 Dipole Z            :         22.9878771          -23.7689128           -0.7810358
 Magnitude           :                                                    1.3570200
  Basis Set: (AUG-CC-PVTZ AUX)
    Blend: AUG-CC-PVTZ-RI + DEF2-QZVPP-RI
	 Reference Energy          =    -542.0871635274083928 [Eh]
	 Singles Energy            =      -0.0000000000000000 [Eh]
	 Same-Spin Energy          =      -0.3511391945291780 [Eh]
	 Opposite-Spin Energy      =      -1.0984588874563148 [Eh]
	 Correlation Energy        =      -1.4495980819854928 [Eh]
	 Total Energy              =    -543.5367616093939205 [Eh]

	 ================> DF-SCS-MP2 Energies <==================
	-----------------------------------------------------------
	 SCS Same-Spin Scale       =       0.3333333333333333 [-]
	 SCS Opposite-Spin Scale   =       1.2000000000000000 [-]
	 SCS Same-Spin Energy      =      -0.1170463981763927 [Eh]
	 SCS Opposite-Spin Energy  =      -1.3181506649475778 [Eh]
	 SCS Correlation Energy    =      -1.4351970631239706 [Eh]
	 SCS Total Energy          =    -543.5223605905323438 [Eh]
	-----------------------------------------------------------

*** Psi4 exiting successfully. Buy a developer a beer!
