                               Psi4 1.8.2 release

  ==> Input File <==

--------------------------------------------------------------------------
MEMORY 60 GB

molecule dimer {
0 1
Gh(Na)     0.000000     0.000000     0.000000
O         -1.599330     1.629936    -0.826504
H         -2.060317     0.981063    -1.364915
H         -1.486177     2.393893    -1.396625
Gh(O)     -0.042840    -0.395400    -2.442957
Gh(H)      0.550503     0.190653    -2.874800
Gh(H)     -0.913132    -0.259864    -2.869914
Gh(O)     -0.515091    -0.239782     2.281892
Gh(H)     -1.087173    -1.040340     2.258925
Gh(H)     -0.899990     0.406767     2.844373
Gh(O)      1.517695     1.592560     0.966864
Gh(H)      2.451653     1.871029     1.146830
Gh(H)      0.876999     1.867977     1.656428

units ang
no_reorient
no_com
symmetry c1
}

set {
basis        aug-cc-pVTZ
scf_type     df
}

energy("mp2")
--------------------------------------------------------------------------

    Molecular point group: c1

    Geometry (in Angstrom), charge = 0, multiplicity = 1:

       Center              X                  Y                   Z               Mass
    ------------   -----------------  -----------------  -----------------  -----------------
      Gh(NA)          0.000000000000     0.000000000000     0.000000000000    22.989769282000
         O           -1.599330000000     1.629936000000    -0.826504000000    15.994914619570
         H           -2.060317000000     0.981063000000    -1.364915000000     1.007825032230
         H           -1.486177000000     2.393893000000    -1.396625000000     1.007825032230
      Gh(O)          -0.042840000000    -0.395400000000    -2.442957000000    15.994914619570
      Gh(H)           0.550503000000     0.190653000000    -2.874800000000     1.007825032230
      Gh(H)          -0.913132000000    -0.259864000000    -2.869914000000     1.007825032230
      Gh(O)          -0.515091000000    -0.239782000000     2.281892000000    15.994914619570
      Gh(H)          -1.087173000000    -1.040340000000     2.258925000000     1.007825032230
      Gh(H)          -0.899990000000     0.406767000000     2.844373000000     1.007825032230
      Gh(O)           1.517695000000     1.592560000000     0.966864000000    15.994914619570
      Gh(H)           2.451653000000     1.871029000000     1.146830000000     1.007825032230
      Gh(H)           0.876999000000     1.867977000000     1.656428000000     1.007825032230

  Charge       = 0
  Multiplicity = 1
  Basis Set: AUG-CC-PVTZ
    Blend: AUG-CC-PVTZ
  Basis Set: (AUG-CC-PVTZ AUX)
    Blend: AUG-CC-PVTZ-JKFIT + DEF2-UNIVERSAL-JKFIT

    Orbital Energies [Eh]
    ---------------------

    Doubly Occupied:

       1A    -20.567279     2A     -1.351378     3A     -0.717173
       4A     -0.583004     5A     -0.509875

  @DF-RHF Final Energy:   -76.06052543144294

   => Energetics <=

    Nuclear Repulsion Energy =              9.1624702620314871
    One-Electron Energy =                -122.9885690081486018
    Two-Electron Energy =                  37.7655733146741781
    Total Energy =                        -76.0605254314429260
 Dipole X            :         30.6488392          -30.8802678           -0.2314286
 Dipole Y            :        -30.9420468           31.0188037            0.0767569
 Dipole Z            :         16.9764545          -17.7134839           -0.7370294
 Magnitude           :                                                    0.7763138
  Basis Set: (AUG-CC-PVTZ AUX)
    Blend: AUG-CC-PVTZ-RI + DEF2-QZVPP-RI
	 Reference Energy          =     -76.0605254314429402 [Eh]
	 Singles Energy            =      -0.0000000000000000 [Eh]
	 Same-Spin Energy          =      -0.0684481895353266 [Eh]
	 Opposite-Spin Energy      =      -0.2159087427560596 [Eh]
	 Correlation Energy        =      -0.2843569322913862 [Eh]
	 Total Energy              =     -76.3448823637343281 [Eh]

	 ================> DF-SCS-MP2 Energies <==================
	-----------------------------------------------------------
	 SCS Same-Spin Scale       =       0.3333333333333333 [-]
	 SCS Opposite-Spin Scale   =       1.2000000000000000 [-]
	 SCS Same-Spin Energy      =      -0.0228160631784422 [Eh]
	 SCS Opposite-Spin Energy  =      -0.2590904913072715 [Eh]
	 SCS Correlation Energy    =      -0.2819065544857137 [Eh]
	 SCS Total Energy          =     -76.3424319859286555 [Eh]
	-----------------------------------------------------------

*** Psi4 exiting successfully. Buy a developer a beer!
