                               Psi4 1.8.2 release

  ==> Input File <==

--------------------------------------------------------------------------
MEMORY 60 GB

molecule dimer {
1 1
Na         0.000000     0.000000     0.000000
O          1.661844     0.842701    -1.497041
H          2.528080     0.377121    -1.307093
H          1.848781     1.779490    -1.584275
O         -0.087779     2.077226     1.056665
H          0.723586     2.252445     1.568366
H         -0.229253     2.684807     0.350873
O         -0.986073    -2.138878    -0.877046
H         -0.792585    -1.599887    -1.687093
H         -0.537496    -2.949143    -1.090109
O         -1.993529     0.705204    -1.045757
H         -2.712929     0.142744    -1.464515
H         -2.466013     1.376847    -0.624703
O          2.026165    -1.165386     0.465272
H          2.085392    -1.934949     1.021382
H          2.008320    -1.517727    -0.446427

units ang
no_reorient
no_com
symmetry c1
}

set {
basis        aug-cc-pVTZ
scf_type     df
}

energy("mp2")
--------------------------------------------------------------------------

    Molecular point group: c1

    Geometry (in Angstrom), charge = 1, multiplicity = 1:

       Center              X                  Y                   Z               Mass
    ------------   -----------------  -----------------  -----------------  -----------------
         NA           0.000000000000     0.000000000000     0.000000000000    22.989769282000
         O            1.661844000000     0.842701000000    -1.497041000000    15.994914619570
         H            2.528080000000     0.377121000000    -1.307093000000     1.007825032230
         H            1.848781000000     1.779490000000    -1.584275000000     1.007825032230
         O           -0.087779000000     2.077226000000     1.056665000000    15.994914619570
         H            0.723586000000     2.252445000000     1.568366000000     1.007825032230
         H           -0.229253000000     2.684807000000     0.350873000000     1.007825032230
         O           -0.986073000000    -2.138878000000    -0.877046000000    15.994914619570
         H           -0.792585000000    -1.599887000000    -1.687093000000     1.007825032230
         H           -0.537496000000    -2.949143000000    -1.090109000000     1.007825032230
         O           -1.993529000000     0.705204000000    -1.045757000000    15.994914619570
         H           -2.712929000000     0.142744000000    -1.464515000000     1.007825032230
         H           -2.466013000000     1.376847000000    -0.624703000000     1.007825032230
         O            2.026165000000    -1.165386000000     0.465272000000    15.994914619570
         H            2.085392000000    -1.934949000000     1.021382000000     1.007825032230
         H            2.008320000000    -1.517727000000    -0.446427000000     1.007825032230

  Charge       = 1
  Multiplicity = 1
  Basis Set: AUG-CC-PVTZ
    Blend: AUG-CC-PVTZ
  Basis Set: (AUG-CC-PVTZ AUX)
    Blend: AUG-CC-PVTZ-JKFIT + DEF2-UNIVERSAL-JKFIT

    Orbital Energies [Eh]
    ---------------------

    Doubly Occupied:

       1A    -40.566641     2A    -20.739815     3A    -20.732289
       4A    -20.731735     5A    -20.725916     6A    -20.724207
       7A     -2.889473     8A     -1.615116     9A     -1.614254
      10A     -1.613596    11A     -1.526355    12A     -1.515813
      13A     -1.511852    14A     -1.511137    15A     -1.506137
      16A     -0.901586    17A     -0.898082    18A     -0.879542
      19A     -0.867008    20A     -0.861057    21A     -0.765013
      22A     -0.761623    23A     -0.754495    24A     -0.749386
      25A     -0.738090    26A     -0.693631    27A     -0.685056
      28A     -0.674203    29A     -0.672839    30A     -0.668396

  @DF-RHF Final Energy:  -542.07544136904949

   => Energetics <=

    Nuclear Repulsion Energy =            307.1281219072633917
    One-Electron Energy =               -1356.2184317754363292
    Two-Electron Energy =                 507.0148684991233381
    Total Energy =                       -542.0754413690494857
 Dipole X            :        -13.1777833           14.0234818            0.8456986
 Dipole Y            :         -5.9679475            6.0068422            0.0388947
 Dipole Z            :         37.6199341          -38.6389466           -1.0190125
 Magnitude           :                                                    1.3248039
  Basis Set: (AUG-CC-PVTZ AUX)
    Blend: AUG-CC-PVTZ-RI + DEF2-QZVPP-RI
	 Reference Energy          =    -542.0754413690494857 [Eh]
	 Singles Energy            =      -0.0000000000000000 [Eh]
	 Same-Spin Energy          =      -0.3516267763729052 [Eh]
	 Opposite-Spin Energy      =      -1.0995504684971835 [Eh]
	 Correlation Energy        =      -1.4511772448700888 [Eh]
	 Total Energy              =    -543.5266186139195952 [Eh]

	 ================> DF-SCS-MP2 Energies <==================
	-----------------------------------------------------------
	 SCS Same-Spin Scale       =       0.3333333333333333 [-]
	 SCS Opposite-Spin Scale   =       1.2000000000000000 [-]
	 SCS Same-Spin Energy      =      -0.1172089254576351 [Eh]
	 SCS Opposite-Spin Energy  =      -1.3194605621966202 [Eh]
	 SCS Correlation Energy    =      -1.4366694876542554 [Eh]
	 SCS Total Energy          =    -543.5121108567037709 [Eh]
	-----------------------------------------------------------

*** Psi4 exiting successfully. Buy a developer a beer!
