                               Psi4 1.9 release

  ==> Input File <==

--------------------------------------------------------------------------
MEMORY 60 GB

molecule dimer {
1 1
Na     0.000000     0.000000     0.000000
--
0 1
O     -0.332121    -2.281891     0.576606
H     -1.173755    -2.765721     0.225709
H      0.345779    -2.960927     0.521459
O      2.135977     0.253593     1.268585
H      2.395913    -0.668918     1.468574
H      2.696168     0.571416     0.528307
O     -2.315517     0.356728    -0.409186
H     -3.138798    -0.072402    -0.267720
H     -2.580394     1.283071    -0.200079
O      0.868281    -0.723066    -1.877874
H      0.164617    -1.195673    -2.317550
H      1.489308    -1.410794    -1.674628

units ang
no_reorient
no_com
symmetry c1
}

set {
basis        aug-cc-pVTZ
scf_type     df
}

energy("mp2", bsse_type="cp")
--------------------------------------------------------------------------

                               Psi4 1.9 release
    Molecular point group: c1
  Charge       = 0
  Multiplicity = 1
  Basis Set: AUG-CC-PVTZ
    Blend: AUG-CC-PVTZ
  Basis Set: (AUG-CC-PVTZ AUX)
    Blend: AUG-CC-PVTZ-JKFIT + DEF2-UNIVERSAL-JKFIT
  @DF-RHF Final Energy:  -304.21797740636487
    Total Energy =                       -304.2179774063648665
 Dipole X            :         -6.1680683            5.7670624           -0.4010058
 Dipole Y            :         48.3554419          -49.8453740           -1.4899321
 Dipole Z            :          9.4306965           -9.9227251           -0.4920287
 Magnitude           :                                                    1.6195047
  Basis Set: (AUG-CC-PVTZ AUX)
    Blend: AUG-CC-PVTZ-RI + DEF2-QZVPP-RI
	 Reference Energy          =    -304.2179774063648665 [Eh]
	 Singles Energy            =      -0.0000000000000000 [Eh]
	 Same-Spin Energy          =      -0.2764794160258136 [Eh]
	 Opposite-Spin Energy      =      -0.8689617715492772 [Eh]
	 Correlation Energy        =      -1.1454411875750909 [Eh]
	 Total Energy              =    -305.3634185939399686 [Eh]
	 SCS Total Energy          =    -305.3528913375659499 [Eh]
                               Psi4 1.9 release
    Molecular point group: c1
  Multiplicity = 1
  Basis Set: AUG-CC-PVTZ
    Blend: AUG-CC-PVTZ
  Basis Set: (AUG-CC-PVTZ AUX)
    Blend: AUG-CC-PVTZ-JKFIT + DEF2-UNIVERSAL-JKFIT
  @DF-RHF Final Energy:  -161.67608624162250
    Total Energy =                       -161.6760862416225280
  Basis Set: (AUG-CC-PVTZ AUX)
	 Singles Energy            =      -0.0000000000000000 [Eh]
	 Same-Spin Energy          =      -0.0055297136557974 [Eh]
	 Opposite-Spin Energy      =      -0.0172949991692266 [Eh]
	 Correlation Energy        =      -0.0228247128250240 [Eh]
	 Total Energy              =    -161.6989109544475127 [Eh]
	 SCS Total Energy          =    -161.6986834785108442 [Eh]
                               Psi4 1.9 release
    Molecular point group: c1

    Geometry (in Bohr), charge = 1, multiplicity = 1:

       Center              X                  Y                   Z               Mass
    ------------   -----------------  -----------------  -----------------  -----------------
         NA           0.000000000000     0.000000000000     0.000000000000    22.989769282000
         O           -0.627617730513    -4.312149038147     1.089627422296    15.994914619570
         H           -2.218075488387    -5.226455229427     0.426528194051     1.007825032230
         H            0.653427609935    -5.595341107473     0.985414695655     1.007825032230
         O            4.036411540277     0.479221317333     2.397278216864    15.994914619570
         H            4.527619390424    -1.264071820389     2.775202654968     1.007825032230
         H            5.095019108223     1.079819743705     0.998355540162     1.007825032230
         O           -4.375692968842     0.674118221282    -0.773249474372    15.994914619570
         H           -5.931468583135    -0.136819950935    -0.505917478308     1.007825032230
         H           -4.876237955775     2.424652789517    -0.378094513455     1.007825032230
         O            1.640813289939    -1.366396710630    -3.548667558118    15.994914619570
         H            0.311081045594    -2.259494505605    -4.379534782055     1.007825032230
         H            2.814384236453    -2.666014279439    -3.164588282023     1.007825032230

  Charge       = 1
  Multiplicity = 1
  Basis Set: AUG-CC-PVTZ
    Blend: AUG-CC-PVTZ
  Basis Set: (AUG-CC-PVTZ AUX)
    Blend: AUG-CC-PVTZ-JKFIT + DEF2-UNIVERSAL-JKFIT

    Orbital Energies [Eh]
    ---------------------

    Doubly Occupied:

       1A    -40.583715     2A    -20.748804     3A    -20.741847
       4A    -20.740859     5A    -20.732352     6A     -2.906798
       7A     -1.633191     8A     -1.631176     9A     -1.630563
      10A     -1.537781    11A     -1.528651    12A     -1.514896
      13A     -1.504618    14A     -0.897124    15A     -0.878989
      16A     -0.875054    17A     -0.871253    18A     -0.782363
      19A     -0.777202    20A     -0.768525    21A     -0.741385
      22A     -0.707776    23A     -0.688108    24A     -0.680715
      25A     -0.675857

  @DF-RHF Final Energy:  -466.00524996085710

   => Energetics <=

    Nuclear Repulsion Energy =            216.4844713483978467
    One-Electron Energy =               -1071.4202396890020736
    Two-Electron Energy =                 388.9305183797471273
    Total Energy =                       -466.0052499608570997
 Dipole X            :         -6.1602517            5.7670624           -0.3931893
 Dipole Y            :         47.9915567          -49.8453740           -1.8538174
 Dipole Z            :          9.3258443           -9.9227251           -0.5968808
 Magnitude           :                                                    1.9868325
  Basis Set: (AUG-CC-PVTZ AUX)
    Blend: AUG-CC-PVTZ-RI + DEF2-QZVPP-RI
	 Reference Energy          =    -466.0052499608570997 [Eh]
	 Singles Energy            =      -0.0000000000000000 [Eh]
	 Same-Spin Energy          =      -0.2811211331043578 [Eh]
	 Opposite-Spin Energy      =      -0.8812004479332887 [Eh]
	 Correlation Energy        =      -1.1623215810376464 [Eh]
	 Total Energy              =    -467.1675715418947448 [Eh]

	 ================> DF-SCS-MP2 Energies <==================
	-----------------------------------------------------------
	 SCS Same-Spin Scale       =       0.3333333333333333 [-]
	 SCS Opposite-Spin Scale   =       1.2000000000000000 [-]
	 SCS Same-Spin Energy      =      -0.0937070443681193 [Eh]
	 SCS Opposite-Spin Energy  =      -1.0574405375199463 [Eh]
	 SCS Correlation Energy    =      -1.1511475818880657 [Eh]
	 SCS Total Energy          =    -467.1563975427451396 [Eh]
	-----------------------------------------------------------

*** Psi4 exiting successfully. Buy a developer a beer!
