                               Psi4 1.9 release

  ==> Input File <==

--------------------------------------------------------------------------
MEMORY 60 GB

molecule dimer {
1 1
Na     0.000000     0.000000     0.000000
--
0 1
O     -0.283701     1.578559     1.887976
H      0.085980     1.398434     2.801414
H      0.312072     2.205050     1.541846
O     -1.725746    -1.417014     0.457220
H     -2.523655    -1.143003     0.934820
H     -1.900792    -2.355054     0.361742
O      1.131277    -1.180347     1.903162
H      1.903346    -1.656998     2.213950
H      0.798789    -0.647920     2.640386
O     -0.883525     1.834306    -1.288208
H     -0.936557     2.764670    -0.982975
H     -0.954930     2.069278    -2.199800

units ang
no_reorient
no_com
symmetry c1
}

set {
basis        aug-cc-pVTZ
scf_type     df
}

energy("mp2", bsse_type="cp")
--------------------------------------------------------------------------

                               Psi4 1.9 release
    Molecular point group: c1
  Charge       = 0
  Multiplicity = 1
  Basis Set: AUG-CC-PVTZ
    Blend: AUG-CC-PVTZ
  Basis Set: (AUG-CC-PVTZ AUX)
    Blend: AUG-CC-PVTZ-JKFIT + DEF2-UNIVERSAL-JKFIT
  @DF-RHF Final Energy:  -304.21675697925730
    Total Energy =                       -304.2167569792572976
 Dipole X            :         32.9146303          -32.7098497            0.2047807
 Dipole Y            :        -16.6792725           17.3070359            0.6277634
 Dipole Z            :        -57.7801359           58.5674938            0.7873579
 Magnitude           :                                                    1.0275965
  Basis Set: (AUG-CC-PVTZ AUX)
    Blend: AUG-CC-PVTZ-RI + DEF2-QZVPP-RI
	 Reference Energy          =    -304.2167569792572976 [Eh]
	 Singles Energy            =      -0.0000000000000000 [Eh]
	 Same-Spin Energy          =      -0.2766611645127837 [Eh]
	 Opposite-Spin Energy      =      -0.8685267663768950 [Eh]
	 Correlation Energy        =      -1.1451879308896786 [Eh]
	 Total Energy              =    -305.3619449101469741 [Eh]
	 SCS Total Energy          =    -305.3512094870804958 [Eh]
                               Psi4 1.9 release
    Molecular point group: c1
  Multiplicity = 1
  Basis Set: AUG-CC-PVTZ
    Blend: AUG-CC-PVTZ
  Basis Set: (AUG-CC-PVTZ AUX)
    Blend: AUG-CC-PVTZ-JKFIT + DEF2-UNIVERSAL-JKFIT
  @DF-RHF Final Energy:  -161.67608227630581
    Total Energy =                       -161.6760822763058059
  Basis Set: (AUG-CC-PVTZ AUX)
	 Singles Energy            =      -0.0000000000000000 [Eh]
	 Same-Spin Energy          =      -0.0051171120305403 [Eh]
	 Opposite-Spin Energy      =      -0.0162637491246463 [Eh]
	 Correlation Energy        =      -0.0213808611551866 [Eh]
	 Total Energy              =    -161.6974631374609999 [Eh]
	 SCS Total Energy          =    -161.6973044792655685 [Eh]
                               Psi4 1.9 release
    Molecular point group: c1

    Geometry (in Bohr), charge = 1, multiplicity = 1:

       Center              X                  Y                   Z               Mass
    ------------   -----------------  -----------------  -----------------  -----------------
         NA           0.000000000000     0.000000000000     0.000000000000    22.989769282000
         O           -0.536117191519     2.983044182877     3.567757571437    15.994914619570
         H            0.162478652267     2.642657264528     5.293905224023     1.007825032230
         H            0.589730611424     4.166940592941     2.913666667633     1.007825032230
         O           -3.261187302104    -2.677768375939     0.864020579082    15.994914619570
         H           -4.769016785142    -2.159962630577     1.766553776600     1.007825032230
         H           -3.591976301461    -4.450407070664     0.683593308075     1.007825032230
         O            2.137803702030    -2.230532563006     3.596454952379    15.994914619570
         H            3.596802661986    -3.131272410431     4.183759155457     1.007825032230
         H            1.509492442028    -1.224391351207     4.989606405493     1.007825032230
         O           -1.669620274995     3.466335970284    -2.434360312624    15.994914619570
         H           -1.769836230880     5.224469127269    -1.857553538172     1.007825032230
         H           -1.804556168983     3.910368697435    -4.157019530782     1.007825032230

  Charge       = 1
  Multiplicity = 1
  Basis Set: AUG-CC-PVTZ
    Blend: AUG-CC-PVTZ
  Basis Set: (AUG-CC-PVTZ AUX)
    Blend: AUG-CC-PVTZ-JKFIT + DEF2-UNIVERSAL-JKFIT

    Orbital Energies [Eh]
    ---------------------

    Doubly Occupied:

       1A    -40.590400     2A    -20.740058     3A    -20.735562
       4A    -20.723204     5A    -20.723101     6A     -2.910546
       7A     -1.635330     8A     -1.634979     9A     -1.633795
      10A     -1.526362    11A     -1.524327    12A     -1.510068
      13A     -1.506195    14A     -0.890206    15A     -0.873658
      16A     -0.861332    17A     -0.856851    18A     -0.786388
      19A     -0.768459    20A     -0.761784    21A     -0.743978
      22A     -0.690167    23A     -0.681308    24A     -0.673249
      25A     -0.662838

  @DF-RHF Final Energy:  -466.01056896003945

   => Energetics <=

    Nuclear Repulsion Energy =            215.1238125914529178
    One-Electron Energy =               -1068.9804696171088381
    Two-Electron Energy =                 387.8460880656165273
    Total Energy =                       -466.0105689600394498
 Dipole X            :         32.7007793          -32.7098497           -0.0090704
 Dipole Y            :        -16.5918054           17.3070359            0.7152305
 Dipole Z            :        -57.4266130           58.5674938            1.1408808
 Magnitude           :                                                    1.3465682
  Basis Set: (AUG-CC-PVTZ AUX)
    Blend: AUG-CC-PVTZ-RI + DEF2-QZVPP-RI
	 Reference Energy          =    -466.0105689600394498 [Eh]
	 Singles Energy            =      -0.0000000000000000 [Eh]
	 Same-Spin Energy          =      -0.2806263449240921 [Eh]
	 Opposite-Spin Energy      =      -0.8793731642851040 [Eh]
	 Correlation Energy        =      -1.1599995092091961 [Eh]
	 Total Energy              =    -467.1705684692486216 [Eh]

	 ================> DF-SCS-MP2 Energies <==================
	-----------------------------------------------------------
	 SCS Same-Spin Scale       =       0.3333333333333333 [-]
	 SCS Opposite-Spin Scale   =       1.2000000000000000 [-]
	 SCS Same-Spin Energy      =      -0.0935421149746973 [Eh]
	 SCS Opposite-Spin Energy  =      -1.0552477971421248 [Eh]
	 SCS Correlation Energy    =      -1.1487899121168221 [Eh]
	 SCS Total Energy          =    -467.1593588721562469 [Eh]
	-----------------------------------------------------------

*** Psi4 exiting successfully. Buy a developer a beer!
