                               Psi4 1.8.2 release

  ==> Input File <==

--------------------------------------------------------------------------
MEMORY 60 GB

molecule dimer {
1 1
Na         0.000000     0.000000     0.000000
O          1.123334     2.081258    -0.572008
H          1.216698     2.687495     0.190794
H          1.959598     2.117506    -1.056213
O          2.258056    -1.030970     0.237516
H          2.691734    -0.383332     0.814519
H          2.334528    -0.786860    -0.703473
O         -0.907363    -1.944297     0.044354
H         -1.273537    -2.411135    -0.753502
H         -1.634033    -1.924246     0.641980
O         -2.039574     0.663792    -0.777922
H         -1.939320     1.285531    -1.453140
H         -2.627457    -0.060953    -1.090527

units ang
no_reorient
no_com
symmetry c1
}

set {
basis        aug-cc-pVTZ
scf_type     df
}

energy("mp2")
--------------------------------------------------------------------------

    Molecular point group: c1

    Geometry (in Angstrom), charge = 1, multiplicity = 1:

       Center              X                  Y                   Z               Mass
    ------------   -----------------  -----------------  -----------------  -----------------
         NA           0.000000000000     0.000000000000     0.000000000000    22.989769282000
         O            1.123334000000     2.081258000000    -0.572008000000    15.994914619570
         H            1.216698000000     2.687495000000     0.190794000000     1.007825032230
         H            1.959598000000     2.117506000000    -1.056213000000     1.007825032230
         O            2.258056000000    -1.030970000000     0.237516000000    15.994914619570
         H            2.691734000000    -0.383332000000     0.814519000000     1.007825032230
         H            2.334528000000    -0.786860000000    -0.703473000000     1.007825032230
         O           -0.907363000000    -1.944297000000     0.044354000000    15.994914619570
         H           -1.273537000000    -2.411135000000    -0.753502000000     1.007825032230
         H           -1.634033000000    -1.924246000000     0.641980000000     1.007825032230
         O           -2.039574000000     0.663792000000    -0.777922000000    15.994914619570
         H           -1.939320000000     1.285531000000    -1.453140000000     1.007825032230
         H           -2.627457000000    -0.060953000000    -1.090527000000     1.007825032230

  Charge       = 1
  Multiplicity = 1
  Basis Set: AUG-CC-PVTZ
    Blend: AUG-CC-PVTZ
  Basis Set: (AUG-CC-PVTZ AUX)
    Blend: AUG-CC-PVTZ-JKFIT + DEF2-UNIVERSAL-JKFIT

    Orbital Energies [Eh]
    ---------------------

    Doubly Occupied:

       1A    -40.584095     2A    -20.748493     3A    -20.741181
       4A    -20.735957     5A    -20.726848     6A     -2.908607
       7A     -1.634890     8A     -1.633693     9A     -1.632607
      10A     -1.530947    11A     -1.526617    12A     -1.525744
      13A     -1.503786    14A     -0.903915    15A     -0.894239
      16A     -0.888530    17A     -0.883572    18A     -0.777994
      19A     -0.771195    20A     -0.761216    21A     -0.729609
      22A     -0.702744    23A     -0.696106    24A     -0.679910
      25A     -0.671024

  @DF-RHF Final Energy:  -466.00087493060465

   => Energetics <=

    Nuclear Repulsion Energy =            217.8993828232816270
    One-Electron Energy =               -1074.2134727589482281
    Two-Electron Energy =                 390.3132150050619771
    Total Energy =                       -466.0008749306046525
 Dipole X            :         -8.0230156            7.9440968           -0.0789188
 Dipole Y            :          3.1563633           -2.4901488            0.6662145
 Dipole Z            :         21.6330501          -22.5898655           -0.9568154
 Magnitude           :                                                    1.1685742
  Basis Set: (AUG-CC-PVTZ AUX)
    Blend: AUG-CC-PVTZ-RI + DEF2-QZVPP-RI
	 Reference Energy          =    -466.0008749306046525 [Eh]
	 Singles Energy            =      -0.0000000000000000 [Eh]
	 Same-Spin Energy          =      -0.2809082688680654 [Eh]
	 Opposite-Spin Energy      =      -0.8802063167564220 [Eh]
	 Correlation Energy        =      -1.1611145856244873 [Eh]
	 Total Energy              =    -467.1619895162291414 [Eh]

	 ================> DF-SCS-MP2 Energies <==================
	-----------------------------------------------------------
	 SCS Same-Spin Scale       =       0.3333333333333333 [-]
	 SCS Opposite-Spin Scale   =       1.2000000000000000 [-]
	 SCS Same-Spin Energy      =      -0.0936360896226884 [Eh]
	 SCS Opposite-Spin Energy  =      -1.0562475801077065 [Eh]
	 SCS Correlation Energy    =      -1.1498836697303949 [Eh]
	 SCS Total Energy          =    -467.1507586003350525 [Eh]
	-----------------------------------------------------------

*** Psi4 exiting successfully. Buy a developer a beer!
