                               Psi4 1.8.2 release

  ==> Input File <==

--------------------------------------------------------------------------
MEMORY 60 GB

molecule dimer {
0 1
Gh(Na)     0.000000     0.000000     0.000000
Gh(O)     -1.982434     0.371909     1.103721
Gh(H)     -1.999968    -0.133509     1.915544
Gh(H)     -2.677161    -0.029523     0.520499
O         -0.506861     1.576105    -1.534582
H         -1.312414     2.123471    -1.457035
H          0.255777     2.156557    -1.829559
Gh(O)      1.680895    -0.267523    -1.814314
Gh(H)      1.826160     0.587119    -2.126473
Gh(H)      2.577908    -0.601219    -1.659205
Gh(O)      1.269075    -0.963815     1.515438
Gh(H)      1.588209    -1.762903     1.072335
Gh(H)      1.939449    -0.207875     1.425336

units ang
no_reorient
no_com
symmetry c1
}

set {
basis        aug-cc-pVTZ
scf_type     df
}

energy("mp2")
--------------------------------------------------------------------------

    Molecular point group: c1

    Geometry (in Angstrom), charge = 0, multiplicity = 1:

       Center              X                  Y                   Z               Mass
    ------------   -----------------  -----------------  -----------------  -----------------
      Gh(NA)          0.000000000000     0.000000000000     0.000000000000    22.989769282000
      Gh(O)          -1.982434000000     0.371909000000     1.103721000000    15.994914619570
      Gh(H)          -1.999968000000    -0.133509000000     1.915544000000     1.007825032230
      Gh(H)          -2.677161000000    -0.029523000000     0.520499000000     1.007825032230
         O           -0.506861000000     1.576105000000    -1.534582000000    15.994914619570
         H           -1.312414000000     2.123471000000    -1.457035000000     1.007825032230
         H            0.255777000000     2.156557000000    -1.829559000000     1.007825032230
      Gh(O)           1.680895000000    -0.267523000000    -1.814314000000    15.994914619570
      Gh(H)           1.826160000000     0.587119000000    -2.126473000000     1.007825032230
      Gh(H)           2.577908000000    -0.601219000000    -1.659205000000     1.007825032230
      Gh(O)           1.269075000000    -0.963815000000     1.515438000000    15.994914619570
      Gh(H)           1.588209000000    -1.762903000000     1.072335000000     1.007825032230
      Gh(H)           1.939449000000    -0.207875000000     1.425336000000     1.007825032230

  Charge       = 0
  Multiplicity = 1
  Basis Set: AUG-CC-PVTZ
    Blend: AUG-CC-PVTZ
  Basis Set: (AUG-CC-PVTZ AUX)
    Blend: AUG-CC-PVTZ-JKFIT + DEF2-UNIVERSAL-JKFIT

    Orbital Energies [Eh]
    ---------------------

    Doubly Occupied:

       1A    -20.570411     2A     -1.334403     3A     -0.708194
       4A     -0.569891     5A     -0.506283

  @DF-RHF Final Energy:   -76.05588892430514

   => Energetics <=

    Nuclear Repulsion Energy =              8.8830085684419142
    One-Electron Energy =                -122.4994275152168655
    Two-Electron Energy =                  37.5605300224698126
    Total Energy =                        -76.0558889243051510
 Dipole X            :          9.6272745           -9.6593823           -0.0321079
 Dipole Y            :        -31.1704903           31.9153351            0.7448448
 Dipole Z            :         29.2672675          -29.4102801           -0.1430126
 Magnitude           :                                                    0.7591293
  Basis Set: (AUG-CC-PVTZ AUX)
    Blend: AUG-CC-PVTZ-RI + DEF2-QZVPP-RI
	 Reference Energy          =     -76.0558889243051368 [Eh]
	 Singles Energy            =      -0.0000000000000000 [Eh]
	 Same-Spin Energy          =      -0.0689125421047387 [Eh]
	 Opposite-Spin Energy      =      -0.2174126492158453 [Eh]
	 Correlation Energy        =      -0.2863251913205840 [Eh]
	 Total Energy              =     -76.3422141156257226 [Eh]

	 ================> DF-SCS-MP2 Energies <==================
	-----------------------------------------------------------
	 SCS Same-Spin Scale       =       0.3333333333333333 [-]
	 SCS Opposite-Spin Scale   =       1.2000000000000000 [-]
	 SCS Same-Spin Energy      =      -0.0229708473682462 [Eh]
	 SCS Opposite-Spin Energy  =      -0.2608951790590144 [Eh]
	 SCS Correlation Energy    =      -0.2838660264272606 [Eh]
	 SCS Total Energy          =     -76.3397549507323987 [Eh]
	-----------------------------------------------------------

*** Psi4 exiting successfully. Buy a developer a beer!
