                               Psi4 1.8.2 release

  ==> Input File <==

--------------------------------------------------------------------------
MEMORY 60 GB

molecule dimer {
0 1
Gh(Na)     0.000000     0.000000     0.000000
O          1.404702    -0.485518    -1.896445
H          1.038745    -1.321937    -2.102680
H          1.307717     0.036148    -2.685769
Gh(O)     -1.779006    -0.081116    -1.451137
Gh(H)     -1.861816     0.166913    -2.371670
Gh(H)     -2.628732     0.137084    -0.991427
Gh(O)     -0.705629    -1.885287     0.969773
Gh(H)     -1.640917    -1.977294     0.921356
Gh(H)     -0.341296    -2.802783     1.169197
Gh(O)     -0.020124     2.263140    -0.701517
Gh(H)      0.750889     2.324265    -1.265418
Gh(H)     -0.815691     2.319251    -1.249151

units ang
no_reorient
no_com
symmetry c1
}

set {
basis        aug-cc-pVTZ
scf_type     df
}

energy("mp2")
--------------------------------------------------------------------------

    Molecular point group: c1

    Geometry (in Angstrom), charge = 0, multiplicity = 1:

       Center              X                  Y                   Z               Mass
    ------------   -----------------  -----------------  -----------------  -----------------
      Gh(NA)          0.000000000000     0.000000000000     0.000000000000    22.989769282000
         O            1.404702000000    -0.485518000000    -1.896445000000    15.994914619570
         H            1.038745000000    -1.321937000000    -2.102680000000     1.007825032230
         H            1.307717000000     0.036148000000    -2.685769000000     1.007825032230
      Gh(O)          -1.779006000000    -0.081116000000    -1.451137000000    15.994914619570
      Gh(H)          -1.861816000000     0.166913000000    -2.371670000000     1.007825032230
      Gh(H)          -2.628732000000     0.137084000000    -0.991427000000     1.007825032230
      Gh(O)          -0.705629000000    -1.885287000000     0.969773000000    15.994914619570
      Gh(H)          -1.640917000000    -1.977294000000     0.921356000000     1.007825032230
      Gh(H)          -0.341296000000    -2.802783000000     1.169197000000     1.007825032230
      Gh(O)          -0.020124000000     2.263140000000    -0.701517000000    15.994914619570
      Gh(H)           0.750889000000     2.324265000000    -1.265418000000     1.007825032230
      Gh(H)          -0.815691000000     2.319251000000    -1.249151000000     1.007825032230

  Charge       = 0
  Multiplicity = 1
  Basis Set: AUG-CC-PVTZ
    Blend: AUG-CC-PVTZ
  Basis Set: (AUG-CC-PVTZ AUX)
    Blend: AUG-CC-PVTZ-JKFIT + DEF2-UNIVERSAL-JKFIT

    Orbital Energies [Eh]
    ---------------------

    Doubly Occupied:

       1A    -20.564083     2A     -1.360026     3A     -0.727333
       4A     -0.585476     5A     -0.511227

  @DF-RHF Final Energy:   -76.06116715650612

   => Energetics <=

    Nuclear Repulsion Energy =              9.3263661811623351
    One-Electron Energy =                -123.2787708863601353
    Two-Electron Energy =                  37.8912375486916986
    Total Energy =                        -76.0611671565061158
 Dipole X            :        -25.9818533           25.6701871           -0.3116662
 Dipole Y            :          9.5556043           -9.7697575           -0.2141532
 Dipole Z            :         37.0500328          -37.7189505           -0.6689176
 Magnitude           :                                                    0.7684063
  Basis Set: (AUG-CC-PVTZ AUX)
    Blend: AUG-CC-PVTZ-RI + DEF2-QZVPP-RI
	 Reference Energy          =     -76.0611671565061158 [Eh]
	 Singles Energy            =      -0.0000000000000000 [Eh]
	 Same-Spin Energy          =      -0.0681519343396303 [Eh]
	 Opposite-Spin Energy      =      -0.2150355407321732 [Eh]
	 Correlation Energy        =      -0.2831874750718035 [Eh]
	 Total Energy              =     -76.3443546315779145 [Eh]

	 ================> DF-SCS-MP2 Energies <==================
	-----------------------------------------------------------
	 SCS Same-Spin Scale       =       0.3333333333333333 [-]
	 SCS Opposite-Spin Scale   =       1.2000000000000000 [-]
	 SCS Same-Spin Energy      =      -0.0227173114465434 [Eh]
	 SCS Opposite-Spin Energy  =      -0.2580426488786078 [Eh]
	 SCS Correlation Energy    =      -0.2807599603251512 [Eh]
	 SCS Total Energy          =     -76.3419271168312719 [Eh]
	-----------------------------------------------------------

*** Psi4 exiting successfully. Buy a developer a beer!
