                               Psi4 1.8.2 release

  ==> Input File <==

--------------------------------------------------------------------------
MEMORY 60 GB

molecule dimer {
1 1
Na         0.000000     0.000000     0.000000
O         -2.058645     0.434487     1.171922
H         -2.658565     1.121252     0.841320
H         -2.557630    -0.382890     0.953784
O          1.051296     1.338895     2.009781
H          2.035858     1.255881     2.040475
H          0.850641     1.874788     2.758326
O         -0.639434    -1.764377    -1.349866
H         -1.458636    -1.683678    -1.767648
H         -0.058484    -1.996889    -2.070390
O          1.802084     1.145751    -1.009113
H          2.499224     1.024550    -1.661574
H          1.730347     2.091370    -0.837185

units ang
no_reorient
no_com
symmetry c1
}

set {
basis        aug-cc-pVTZ
scf_type     df
}

energy("mp2")
--------------------------------------------------------------------------

    Molecular point group: c1

    Geometry (in Angstrom), charge = 1, multiplicity = 1:

       Center              X                  Y                   Z               Mass
    ------------   -----------------  -----------------  -----------------  -----------------
         NA           0.000000000000     0.000000000000     0.000000000000    22.989769282000
         O           -2.058645000000     0.434487000000     1.171922000000    15.994914619570
         H           -2.658565000000     1.121252000000     0.841320000000     1.007825032230
         H           -2.557630000000    -0.382890000000     0.953784000000     1.007825032230
         O            1.051296000000     1.338895000000     2.009781000000    15.994914619570
         H            2.035858000000     1.255881000000     2.040475000000     1.007825032230
         H            0.850641000000     1.874788000000     2.758326000000     1.007825032230
         O           -0.639434000000    -1.764377000000    -1.349866000000    15.994914619570
         H           -1.458636000000    -1.683678000000    -1.767648000000     1.007825032230
         H           -0.058484000000    -1.996889000000    -2.070390000000     1.007825032230
         O            1.802084000000     1.145751000000    -1.009113000000    15.994914619570
         H            2.499224000000     1.024550000000    -1.661574000000     1.007825032230
         H            1.730347000000     2.091370000000    -0.837185000000     1.007825032230

  Charge       = 1
  Multiplicity = 1
  Basis Set: AUG-CC-PVTZ
    Blend: AUG-CC-PVTZ
  Basis Set: (AUG-CC-PVTZ AUX)
    Blend: AUG-CC-PVTZ-JKFIT + DEF2-UNIVERSAL-JKFIT

    Orbital Energies [Eh]
    ---------------------

    Doubly Occupied:

       1A    -40.587352     2A    -20.739567     3A    -20.733447
       4A    -20.733134     5A    -20.710817     6A     -2.908047
       7A     -1.632901     8A     -1.632513     9A     -1.631720
      10A     -1.542629    11A     -1.518023    12A     -1.510299
      13A     -1.493929    14A     -0.901376    15A     -0.888713
      16A     -0.864551    17A     -0.854738    18A     -0.781762
      19A     -0.763553    20A     -0.757664    21A     -0.735262
      22A     -0.695598    23A     -0.681191    24A     -0.677964
      25A     -0.654829

  @DF-RHF Final Energy:  -466.02186272833922

   => Energetics <=

    Nuclear Repulsion Energy =            209.6720727380285894
    One-Electron Energy =               -1058.1247141556923452
    Two-Electron Energy =                 382.4307786893244838
    Total Energy =                       -466.0218627283392152
 Dipole X            :         -3.0114166            3.0711130            0.0596964
 Dipole Y            :        -22.9449099           23.7017614            0.7568515
 Dipole Z            :        -13.8374519           12.9236480           -0.9138039
 Magnitude           :                                                    1.1880343
  Basis Set: (AUG-CC-PVTZ AUX)
    Blend: AUG-CC-PVTZ-RI + DEF2-QZVPP-RI
	 Reference Energy          =    -466.0218627283392152 [Eh]
	 Singles Energy            =      -0.0000000000000000 [Eh]
	 Same-Spin Energy          =      -0.2795219306178820 [Eh]
	 Opposite-Spin Energy      =      -0.8772335939581509 [Eh]
	 Correlation Energy        =      -1.1567555245760328 [Eh]
	 Total Energy              =    -467.1786182529152711 [Eh]

	 ================> DF-SCS-MP2 Energies <==================
	-----------------------------------------------------------
	 SCS Same-Spin Scale       =       0.3333333333333333 [-]
	 SCS Opposite-Spin Scale   =       1.2000000000000000 [-]
	 SCS Same-Spin Energy      =      -0.0931739768726273 [Eh]
	 SCS Opposite-Spin Energy  =      -1.0526803127497810 [Eh]
	 SCS Correlation Energy    =      -1.1458542896224084 [Eh]
	 SCS Total Energy          =    -467.1677170179616496 [Eh]
	-----------------------------------------------------------

*** Psi4 exiting successfully. Buy a developer a beer!
