                               Psi4 1.8.2 release

  ==> Input File <==

--------------------------------------------------------------------------
MEMORY 60 GB

molecule dimer {
0 1
Gh(Na)     0.000000     0.000000     0.000000
Gh(O)      1.626028     1.034922     1.580623
Gh(H)      1.378579     0.724001     2.502033
Gh(H)      2.064630     1.955065     1.635979
Gh(O)     -1.372352    -2.180406    -0.667887
Gh(H)     -1.156517    -2.493550     0.245784
Gh(H)     -1.510414    -2.963832    -1.183852
O         -1.339998     1.807402     0.199177
H         -1.582903     2.201952    -0.688290
H         -1.288117     2.504336     0.887083
Gh(O)     -1.123329    -0.697031     2.020695
Gh(H)     -0.556554    -0.315841     2.727097
Gh(H)     -1.512463    -1.540032     2.286606
Gh(O)     -0.325095     0.344770    -2.289885
Gh(H)     -0.904628    -0.206831    -2.834921
Gh(H)      0.583007     0.391315    -2.704986

units ang
no_reorient
no_com
symmetry c1
}

set {
basis        aug-cc-pVTZ
scf_type     df
}

energy("mp2")
--------------------------------------------------------------------------

    Molecular point group: c1

    Geometry (in Angstrom), charge = 0, multiplicity = 1:

       Center              X                  Y                   Z               Mass
    ------------   -----------------  -----------------  -----------------  -----------------
      Gh(NA)          0.000000000000     0.000000000000     0.000000000000    22.989769282000
      Gh(O)           1.626028000000     1.034922000000     1.580623000000    15.994914619570
      Gh(H)           1.378579000000     0.724001000000     2.502033000000     1.007825032230
      Gh(H)           2.064630000000     1.955065000000     1.635979000000     1.007825032230
      Gh(O)          -1.372352000000    -2.180406000000    -0.667887000000    15.994914619570
      Gh(H)          -1.156517000000    -2.493550000000     0.245784000000     1.007825032230
      Gh(H)          -1.510414000000    -2.963832000000    -1.183852000000     1.007825032230
         O           -1.339998000000     1.807402000000     0.199177000000    15.994914619570
         H           -1.582903000000     2.201952000000    -0.688290000000     1.007825032230
         H           -1.288117000000     2.504336000000     0.887083000000     1.007825032230
      Gh(O)          -1.123329000000    -0.697031000000     2.020695000000    15.994914619570
      Gh(H)          -0.556554000000    -0.315841000000     2.727097000000     1.007825032230
      Gh(H)          -1.512463000000    -1.540032000000     2.286606000000     1.007825032230
      Gh(O)          -0.325095000000     0.344770000000    -2.289885000000    15.994914619570
      Gh(H)          -0.904628000000    -0.206831000000    -2.834921000000     1.007825032230
      Gh(H)           0.583007000000     0.391315000000    -2.704986000000     1.007825032230

  Charge       = 0
  Multiplicity = 1
  Basis Set: AUG-CC-PVTZ
    Blend: AUG-CC-PVTZ
  Basis Set: (AUG-CC-PVTZ AUX)
    Blend: AUG-CC-PVTZ-JKFIT + DEF2-UNIVERSAL-JKFIT

    Orbital Energies [Eh]
    ---------------------

    Doubly Occupied:

       1A    -20.569721     2A     -1.332771     3A     -0.710541
       4A     -0.566457     5A     -0.505628

  @DF-RHF Final Energy:   -76.05532637732296

   => Energetics <=

    Nuclear Repulsion Energy =              8.8701370193681690
    One-Electron Energy =                -122.4806888769809490
    Two-Electron Energy =                  37.5552254802898062
    Total Energy =                        -76.0553263773229702
 Dipole X            :         25.5568856          -25.6832753           -0.1263898
 Dipole Y            :        -35.4926470           36.2175536            0.7249066
 Dipole Z            :         -3.5164674            3.3867842           -0.1296832
 Magnitude           :                                                    0.7471825
  Basis Set: (AUG-CC-PVTZ AUX)
    Blend: AUG-CC-PVTZ-RI + DEF2-QZVPP-RI
	 Reference Energy          =     -76.0553263773229560 [Eh]
	 Singles Energy            =      -0.0000000000000000 [Eh]
	 Same-Spin Energy          =      -0.0689152695615051 [Eh]
	 Opposite-Spin Energy      =      -0.2173751403348013 [Eh]
	 Correlation Energy        =      -0.2862904098963064 [Eh]
	 Total Energy              =     -76.3416167872192659 [Eh]

	 ================> DF-SCS-MP2 Energies <==================
	-----------------------------------------------------------
	 SCS Same-Spin Scale       =       0.3333333333333333 [-]
	 SCS Opposite-Spin Scale   =       1.2000000000000000 [-]
	 SCS Same-Spin Energy      =      -0.0229717565205017 [Eh]
	 SCS Opposite-Spin Energy  =      -0.2608501684017616 [Eh]
	 SCS Correlation Energy    =      -0.2838219249222633 [Eh]
	 SCS Total Energy          =     -76.3391483022452206 [Eh]
	-----------------------------------------------------------

*** Psi4 exiting successfully. Buy a developer a beer!
