                               Psi4 1.8.2 release

  ==> Input File <==

--------------------------------------------------------------------------
MEMORY 60 GB

molecule dimer {
1 1
Na         0.000000     0.000000     0.000000
Gh(O)     -1.453265    -0.927157     1.825285
Gh(H)     -2.100322    -0.255926     1.972817
Gh(H)     -1.935961    -1.746795     1.593913
Gh(O)      0.533351     1.207339     2.078428
Gh(H)      0.369434     2.123890     2.057849
Gh(H)      1.328925     0.987573     2.532613
Gh(O)      1.651761    -1.445261     0.090473
Gh(H)      2.214791    -1.702771     0.905964
Gh(H)      1.533721    -2.215695    -0.565653
Gh(O)     -2.231746     0.829196    -0.427680
Gh(H)     -2.770376     0.788932    -1.214090
Gh(H)     -2.790229     0.419292     0.320234
Gh(O)      0.777575     1.636496    -1.467094
Gh(H)      0.243066     2.358069    -1.870836
Gh(H)      1.727867     1.770498    -1.676592

units ang
no_reorient
no_com
symmetry c1
}

set {
basis        aug-cc-pVTZ
scf_type     df
}

energy("mp2")
--------------------------------------------------------------------------

    Molecular point group: c1

    Geometry (in Angstrom), charge = 1, multiplicity = 1:

       Center              X                  Y                   Z               Mass
    ------------   -----------------  -----------------  -----------------  -----------------
         NA           0.000000000000     0.000000000000     0.000000000000    22.989769282000
      Gh(O)          -1.453265000000    -0.927157000000     1.825285000000    15.994914619570
      Gh(H)          -2.100322000000    -0.255926000000     1.972817000000     1.007825032230
      Gh(H)          -1.935961000000    -1.746795000000     1.593913000000     1.007825032230
      Gh(O)           0.533351000000     1.207339000000     2.078428000000    15.994914619570
      Gh(H)           0.369434000000     2.123890000000     2.057849000000     1.007825032230
      Gh(H)           1.328925000000     0.987573000000     2.532613000000     1.007825032230
      Gh(O)           1.651761000000    -1.445261000000     0.090473000000    15.994914619570
      Gh(H)           2.214791000000    -1.702771000000     0.905964000000     1.007825032230
      Gh(H)           1.533721000000    -2.215695000000    -0.565653000000     1.007825032230
      Gh(O)          -2.231746000000     0.829196000000    -0.427680000000    15.994914619570
      Gh(H)          -2.770376000000     0.788932000000    -1.214090000000     1.007825032230
      Gh(H)          -2.790229000000     0.419292000000     0.320234000000     1.007825032230
      Gh(O)           0.777575000000     1.636496000000    -1.467094000000    15.994914619570
      Gh(H)           0.243066000000     2.358069000000    -1.870836000000     1.007825032230
      Gh(H)           1.727867000000     1.770498000000    -1.676592000000     1.007825032230

  Charge       = 1
  Multiplicity = 1
  Basis Set: AUG-CC-PVTZ
    Blend: AUG-CC-PVTZ
  Basis Set: (AUG-CC-PVTZ AUX)
    Blend: AUG-CC-PVTZ-JKFIT + DEF2-UNIVERSAL-JKFIT

    Orbital Energies [Eh]
    ---------------------

    Doubly Occupied:

       1A    -40.760485     2A     -3.073824     3A     -1.797190
       4A     -1.797164     5A     -1.797130

  @DF-RHF Final Energy:  -161.67609155050894

   => Energetics <=

    Nuclear Repulsion Energy =              0.0000000000000000
    One-Electron Energy =                -224.9005974321443659
    Two-Electron Energy =                  63.2245058816354231
    Total Energy =                       -161.6760915505089429
 Dipole X            :         -0.0000551            0.0000000           -0.0000551
 Dipole Y            :         -0.0000102            0.0000000           -0.0000102
 Dipole Z            :          0.0000687            0.0000000            0.0000687
 Magnitude           :                                                    0.0000886
  Basis Set: (AUG-CC-PVTZ AUX)
    Blend: AUG-CC-PVTZ-RI + DEF2-QZVPP-RI
	 Reference Energy          =    -161.6760915505089429 [Eh]
	 Singles Energy            =      -0.0000000000000000 [Eh]
	 Same-Spin Energy          =      -0.0061125168676863 [Eh]
	 Opposite-Spin Energy      =      -0.0188352405343816 [Eh]
	 Correlation Energy        =      -0.0249477574020679 [Eh]
	 Total Energy              =    -161.7010393079110031 [Eh]

	 ================> DF-SCS-MP2 Energies <==================
	-----------------------------------------------------------
	 SCS Same-Spin Scale       =       0.3333333333333333 [-]
	 SCS Opposite-Spin Scale   =       1.2000000000000000 [-]
	 SCS Same-Spin Energy      =      -0.0020375056225621 [Eh]
	 SCS Opposite-Spin Energy  =      -0.0226022886412579 [Eh]
	 SCS Correlation Energy    =      -0.0246397942638200 [Eh]
	 SCS Total Energy          =    -161.7007313447727768 [Eh]
	-----------------------------------------------------------

*** Psi4 exiting successfully. Buy a developer a beer!
