                               Psi4 1.8.2 release

  ==> Input File <==

--------------------------------------------------------------------------
MEMORY 60 GB

molecule dimer {
1 1
Na         0.000000     0.000000     0.000000
Gh(O)     -0.177744    -2.178850    -0.553539
Gh(H)     -0.869295    -2.621709    -0.135058
Gh(H)     -0.313895    -2.582009    -1.441257
Gh(O)      2.093826     0.024601     0.755933
Gh(H)      2.129969     0.591241     1.585698
Gh(H)      3.029505     0.110000     0.406142
Gh(O)      0.203324     2.325177     0.292567
Gh(H)      0.391095     2.453879     1.209027
Gh(H)     -0.303688     3.155131     0.044815
Gh(O)      0.320390     0.773751    -2.164870
Gh(H)      0.455080     1.775417    -2.130367
Gh(H)      0.649183     0.464819    -3.037165
Gh(O)     -1.390357     0.611765     2.061121
Gh(H)     -1.634301     1.509377     2.361661
Gh(H)     -2.142878     0.044850     2.278362

units ang
no_reorient
no_com
symmetry c1
}

set {
basis        aug-cc-pVTZ
scf_type     df
}

energy("mp2")
--------------------------------------------------------------------------

    Molecular point group: c1

    Geometry (in Angstrom), charge = 1, multiplicity = 1:

       Center              X                  Y                   Z               Mass
    ------------   -----------------  -----------------  -----------------  -----------------
         NA           0.000000000000     0.000000000000     0.000000000000    22.989769282000
      Gh(O)          -0.177744000000    -2.178850000000    -0.553539000000    15.994914619570
      Gh(H)          -0.869295000000    -2.621709000000    -0.135058000000     1.007825032230
      Gh(H)          -0.313895000000    -2.582009000000    -1.441257000000     1.007825032230
      Gh(O)           2.093826000000     0.024601000000     0.755933000000    15.994914619570
      Gh(H)           2.129969000000     0.591241000000     1.585698000000     1.007825032230
      Gh(H)           3.029505000000     0.110000000000     0.406142000000     1.007825032230
      Gh(O)           0.203324000000     2.325177000000     0.292567000000    15.994914619570
      Gh(H)           0.391095000000     2.453879000000     1.209027000000     1.007825032230
      Gh(H)          -0.303688000000     3.155131000000     0.044815000000     1.007825032230
      Gh(O)           0.320390000000     0.773751000000    -2.164870000000    15.994914619570
      Gh(H)           0.455080000000     1.775417000000    -2.130367000000     1.007825032230
      Gh(H)           0.649183000000     0.464819000000    -3.037165000000     1.007825032230
      Gh(O)          -1.390357000000     0.611765000000     2.061121000000    15.994914619570
      Gh(H)          -1.634301000000     1.509377000000     2.361661000000     1.007825032230
      Gh(H)          -2.142878000000     0.044850000000     2.278362000000     1.007825032230

  Charge       = 1
  Multiplicity = 1
  Basis Set: AUG-CC-PVTZ
    Blend: AUG-CC-PVTZ
  Basis Set: (AUG-CC-PVTZ AUX)
    Blend: AUG-CC-PVTZ-JKFIT + DEF2-UNIVERSAL-JKFIT

    Orbital Energies [Eh]
    ---------------------

    Doubly Occupied:

       1A    -40.760398     2A     -3.073794     3A     -1.797161
       4A     -1.797130     5A     -1.797117

  @DF-RHF Final Energy:  -161.67609276396425

   => Energetics <=

    Nuclear Repulsion Energy =              0.0000000000000000
    One-Electron Energy =                -224.9009857796825429
    Two-Electron Energy =                  63.2248930157182940
    Total Energy =                       -161.6760927639642489
 Dipole X            :         -0.0000692            0.0000000           -0.0000692
 Dipole Y            :          0.0000386            0.0000000            0.0000386
 Dipole Z            :         -0.0000492            0.0000000           -0.0000492
 Magnitude           :                                                    0.0000933
  Basis Set: (AUG-CC-PVTZ AUX)
    Blend: AUG-CC-PVTZ-RI + DEF2-QZVPP-RI
	 Reference Energy          =    -161.6760927639642489 [Eh]
	 Singles Energy            =      -0.0000000000000000 [Eh]
	 Same-Spin Energy          =      -0.0064683784467138 [Eh]
	 Opposite-Spin Energy      =      -0.0197225624495716 [Eh]
	 Correlation Energy        =      -0.0261909408962854 [Eh]
	 Total Energy              =    -161.7022837048605481 [Eh]

	 ================> DF-SCS-MP2 Energies <==================
	-----------------------------------------------------------
	 SCS Same-Spin Scale       =       0.3333333333333333 [-]
	 SCS Opposite-Spin Scale   =       1.2000000000000000 [-]
	 SCS Same-Spin Energy      =      -0.0021561261489046 [Eh]
	 SCS Opposite-Spin Energy  =      -0.0236670749394859 [Eh]
	 SCS Correlation Energy    =      -0.0258232010883905 [Eh]
	 SCS Total Energy          =    -161.7019159650526490 [Eh]
	-----------------------------------------------------------

*** Psi4 exiting successfully. Buy a developer a beer!
