                               Psi4 1.8.2 release

  ==> Input File <==

--------------------------------------------------------------------------
MEMORY 60 GB

molecule dimer {
0 1
Gh(Na)     0.000000     0.000000     0.000000
Gh(O)      1.953031     0.831091     0.860219
Gh(H)      2.066769     1.791772     0.968498
Gh(H)      2.719642     0.442245     0.453626
Gh(O)      0.997390    -1.806691    -0.823923
Gh(H)      0.719927    -2.694832    -0.590439
Gh(H)      1.062663    -1.693952    -1.760597
Gh(O)     -2.359813    -0.522401    -0.218748
Gh(H)     -3.107352    -1.043213     0.090344
Gh(H)     -2.840960     0.185888    -0.550284
O         -1.307455     1.999734     0.923894
H         -2.152987     2.044750     1.490236
H         -1.483833     2.732670     0.295877
Gh(O)     -0.718067     0.947143    -2.169991
Gh(H)     -1.389460     1.635350    -2.029136
Gh(H)      0.120162     1.348159    -2.406870
Gh(O)     -0.441223    -1.492378     2.010603
Gh(H)      0.380909    -1.895708     2.175635
Gh(H)     -0.383827    -0.728813     2.596321

units ang
no_reorient
no_com
symmetry c1
}

set {
basis        aug-cc-pVTZ
scf_type     df
}

energy("mp2")
--------------------------------------------------------------------------

    Molecular point group: c1

    Geometry (in Angstrom), charge = 0, multiplicity = 1:

       Center              X                  Y                   Z               Mass
    ------------   -----------------  -----------------  -----------------  -----------------
      Gh(NA)          0.000000000000     0.000000000000     0.000000000000    22.989769282000
      Gh(O)           1.953031000000     0.831091000000     0.860219000000    15.994914619570
      Gh(H)           2.066769000000     1.791772000000     0.968498000000     1.007825032230
      Gh(H)           2.719642000000     0.442245000000     0.453626000000     1.007825032230
      Gh(O)           0.997390000000    -1.806691000000    -0.823923000000    15.994914619570
      Gh(H)           0.719927000000    -2.694832000000    -0.590439000000     1.007825032230
      Gh(H)           1.062663000000    -1.693952000000    -1.760597000000     1.007825032230
      Gh(O)          -2.359813000000    -0.522401000000    -0.218748000000    15.994914619570
      Gh(H)          -3.107352000000    -1.043213000000     0.090344000000     1.007825032230
      Gh(H)          -2.840960000000     0.185888000000    -0.550284000000     1.007825032230
         O           -1.307455000000     1.999734000000     0.923894000000    15.994914619570
         H           -2.152987000000     2.044750000000     1.490236000000     1.007825032230
         H           -1.483833000000     2.732670000000     0.295877000000     1.007825032230
      Gh(O)          -0.718067000000     0.947143000000    -2.169991000000    15.994914619570
      Gh(H)          -1.389460000000     1.635350000000    -2.029136000000     1.007825032230
      Gh(H)           0.120162000000     1.348159000000    -2.406870000000     1.007825032230
      Gh(O)          -0.441223000000    -1.492378000000     2.010603000000    15.994914619570
      Gh(H)           0.380909000000    -1.895708000000     2.175635000000     1.007825032230
      Gh(H)          -0.383827000000    -0.728813000000     2.596321000000     1.007825032230

  Charge       = 0
  Multiplicity = 1
  Basis Set: AUG-CC-PVTZ
    Blend: AUG-CC-PVTZ
  Basis Set: (AUG-CC-PVTZ AUX)
    Blend: AUG-CC-PVTZ-JKFIT + DEF2-UNIVERSAL-JKFIT

    Orbital Energies [Eh]
    ---------------------

    Doubly Occupied:

       1A    -20.576242     2A     -1.335845     3A     -0.686838
       4A     -0.585123     5A     -0.508426

  @DF-RHF Final Energy:   -76.05369891143594

   => Energetics <=

    Nuclear Repulsion Energy =              8.8158274963629886
    One-Electron Energy =                -122.3541032300781239
    Two-Electron Energy =                  37.4845768222791946
    Total Energy =                        -76.0536989114359443
 Dipole X            :         25.9881955          -26.6384487           -0.6502533
 Dipole Y            :        -38.7587131           39.2596121            0.5008989
 Dipole Z            :        -17.3875712           17.3425174           -0.0450538
 Magnitude           :                                                    0.8220456
  Basis Set: (AUG-CC-PVTZ AUX)
    Blend: AUG-CC-PVTZ-RI + DEF2-QZVPP-RI
	 Reference Energy          =     -76.0536989114359443 [Eh]
	 Singles Energy            =      -0.0000000000000000 [Eh]
	 Same-Spin Energy          =      -0.0692857737808917 [Eh]
	 Opposite-Spin Energy      =      -0.2186220601813194 [Eh]
	 Correlation Energy        =      -0.2879078339622110 [Eh]
	 Total Energy              =     -76.3416067453981526 [Eh]

	 ================> DF-SCS-MP2 Energies <==================
	-----------------------------------------------------------
	 SCS Same-Spin Scale       =       0.3333333333333333 [-]
	 SCS Opposite-Spin Scale   =       1.2000000000000000 [-]
	 SCS Same-Spin Energy      =      -0.0230952579269639 [Eh]
	 SCS Opposite-Spin Energy  =      -0.2623464722175832 [Eh]
	 SCS Correlation Energy    =      -0.2854417301445471 [Eh]
	 SCS Total Energy          =     -76.3391406415804852 [Eh]
	-----------------------------------------------------------

*** Psi4 exiting successfully. Buy a developer a beer!
