                               Psi4 1.8.2 release

  ==> Input File <==

--------------------------------------------------------------------------
MEMORY 60 GB

molecule dimer {
0 1
Gh(Na)     0.000000     0.000000     0.000000
Gh(O)     -0.332121    -2.281891     0.576606
Gh(H)     -1.173755    -2.765721     0.225709
Gh(H)      0.345779    -2.960927     0.521459
Gh(O)      2.135977     0.253593     1.268585
Gh(H)      2.395913    -0.668918     1.468574
Gh(H)      2.696168     0.571416     0.528307
Gh(O)     -2.315517     0.356728    -0.409186
Gh(H)     -3.138798    -0.072402    -0.267720
Gh(H)     -2.580394     1.283071    -0.200079
O          0.868281    -0.723066    -1.877874
H          0.164617    -1.195673    -2.317550
H          1.489308    -1.410794    -1.674628

units ang
no_reorient
no_com
symmetry c1
}

set {
basis        aug-cc-pVTZ
scf_type     df
}

energy("mp2")
--------------------------------------------------------------------------

    Molecular point group: c1

    Geometry (in Angstrom), charge = 0, multiplicity = 1:

       Center              X                  Y                   Z               Mass
    ------------   -----------------  -----------------  -----------------  -----------------
      Gh(NA)          0.000000000000     0.000000000000     0.000000000000    22.989769282000
      Gh(O)          -0.332121000000    -2.281891000000     0.576606000000    15.994914619570
      Gh(H)          -1.173755000000    -2.765721000000     0.225709000000     1.007825032230
      Gh(H)           0.345779000000    -2.960927000000     0.521459000000     1.007825032230
      Gh(O)           2.135977000000     0.253593000000     1.268585000000    15.994914619570
      Gh(H)           2.395913000000    -0.668918000000     1.468574000000     1.007825032230
      Gh(H)           2.696168000000     0.571416000000     0.528307000000     1.007825032230
      Gh(O)          -2.315517000000     0.356728000000    -0.409186000000    15.994914619570
      Gh(H)          -3.138798000000    -0.072402000000    -0.267720000000     1.007825032230
      Gh(H)          -2.580394000000     1.283071000000    -0.200079000000     1.007825032230
         O            0.868281000000    -0.723066000000    -1.877874000000    15.994914619570
         H            0.164617000000    -1.195673000000    -2.317550000000     1.007825032230
         H            1.489308000000    -1.410794000000    -1.674628000000     1.007825032230

  Charge       = 0
  Multiplicity = 1
  Basis Set: AUG-CC-PVTZ
    Blend: AUG-CC-PVTZ
  Basis Set: (AUG-CC-PVTZ AUX)
    Blend: AUG-CC-PVTZ-JKFIT + DEF2-UNIVERSAL-JKFIT

    Orbital Energies [Eh]
    ---------------------

    Doubly Occupied:

       1A    -20.566730     2A     -1.357584     3A     -0.717426
       4A     -0.589186     5A     -0.511269

  @DF-RHF Final Energy:   -76.06079055758777

   => Energetics <=

    Nuclear Repulsion Energy =              9.2515442248407957
    One-Electron Energy =                -123.1402751292024078
    Two-Electron Energy =                  37.8279403467738433
    Total Energy =                        -76.0607905575877652
 Dipole X            :        -16.3056935           16.2519716           -0.0537219
 Dipole Y            :         15.0858988          -15.8566825           -0.7707836
 Dipole Z            :         35.7766743          -35.9334635           -0.1567892
 Magnitude           :                                                    0.7884011
  Basis Set: (AUG-CC-PVTZ AUX)
    Blend: AUG-CC-PVTZ-RI + DEF2-QZVPP-RI
	 Reference Energy          =     -76.0607905575877652 [Eh]
	 Singles Energy            =      -0.0000000000000000 [Eh]
	 Same-Spin Energy          =      -0.0683551332749322 [Eh]
	 Opposite-Spin Energy      =      -0.2156555273924259 [Eh]
	 Correlation Energy        =      -0.2840106606673581 [Eh]
	 Total Energy              =     -76.3448012182551281 [Eh]

	 ================> DF-SCS-MP2 Energies <==================
	-----------------------------------------------------------
	 SCS Same-Spin Scale       =       0.3333333333333333 [-]
	 SCS Opposite-Spin Scale   =       1.2000000000000000 [-]
	 SCS Same-Spin Energy      =      -0.0227850444249774 [Eh]
	 SCS Opposite-Spin Energy  =      -0.2587866328709110 [Eh]
	 SCS Correlation Energy    =      -0.2815716772958884 [Eh]
	 SCS Total Energy          =     -76.3423622348836517 [Eh]
	-----------------------------------------------------------

*** Psi4 exiting successfully. Buy a developer a beer!
