                               Psi4 1.8.2 release

  ==> Input File <==

--------------------------------------------------------------------------
MEMORY 60 GB

molecule dimer {
0 1
Gh(Na)     0.000000     0.000000     0.000000
Gh(O)      1.141551    -0.269713    -2.063354
Gh(H)      0.581191     0.178954    -2.697423
Gh(H)      1.852964     0.355336    -1.816107
O         -1.079228    -1.527136     1.353753
H         -0.231296    -1.832250     1.704646
H         -1.535491    -1.112505     2.099170
Gh(O)      1.382305     1.712080     0.506694
Gh(H)      2.284929     1.263696     0.506647
Gh(H)      1.263960     2.214578     1.342307
Gh(O)     -1.935349     1.087739    -0.470061
Gh(H)     -2.792958     0.609916    -0.258886
Gh(H)     -2.113097     1.840844    -1.058981

units ang
no_reorient
no_com
symmetry c1
}

set {
basis        aug-cc-pVTZ
scf_type     df
}

energy("mp2")
--------------------------------------------------------------------------

    Molecular point group: c1

    Geometry (in Angstrom), charge = 0, multiplicity = 1:

       Center              X                  Y                   Z               Mass
    ------------   -----------------  -----------------  -----------------  -----------------
      Gh(NA)          0.000000000000     0.000000000000     0.000000000000    22.989769282000
      Gh(O)           1.141551000000    -0.269713000000    -2.063354000000    15.994914619570
      Gh(H)           0.581191000000     0.178954000000    -2.697423000000     1.007825032230
      Gh(H)           1.852964000000     0.355336000000    -1.816107000000     1.007825032230
         O           -1.079228000000    -1.527136000000     1.353753000000    15.994914619570
         H           -0.231296000000    -1.832250000000     1.704646000000     1.007825032230
         H           -1.535491000000    -1.112505000000     2.099170000000     1.007825032230
      Gh(O)           1.382305000000     1.712080000000     0.506694000000    15.994914619570
      Gh(H)           2.284929000000     1.263696000000     0.506647000000     1.007825032230
      Gh(H)           1.263960000000     2.214578000000     1.342307000000     1.007825032230
      Gh(O)          -1.935349000000     1.087739000000    -0.470061000000    15.994914619570
      Gh(H)          -2.792958000000     0.609916000000    -0.258886000000     1.007825032230
      Gh(H)          -2.113097000000     1.840844000000    -1.058981000000     1.007825032230

  Charge       = 0
  Multiplicity = 1
  Basis Set: AUG-CC-PVTZ
    Blend: AUG-CC-PVTZ
  Basis Set: (AUG-CC-PVTZ AUX)
    Blend: AUG-CC-PVTZ-JKFIT + DEF2-UNIVERSAL-JKFIT

    Orbital Energies [Eh]
    ---------------------

    Doubly Occupied:

       1A    -20.568233     2A     -1.347607     3A     -0.714373
       4A     -0.580777     5A     -0.509184

  @DF-RHF Final Energy:   -76.05990337528529

   => Energetics <=

    Nuclear Repulsion Energy =              9.0973726002361239
    One-Electron Energy =                -122.8742022409556398
    Two-Electron Energy =                  37.7169262654342248
    Total Energy =                        -76.0599033752852876
 Dipole X            :         19.9138895          -19.6543063            0.2595831
 Dipole Y            :         28.7240856          -28.6517308            0.0723548
 Dipole Z            :        -26.9270410           27.6539498            0.7269088
 Magnitude           :                                                    0.7752516
  Basis Set: (AUG-CC-PVTZ AUX)
    Blend: AUG-CC-PVTZ-RI + DEF2-QZVPP-RI
	 Reference Energy          =     -76.0599033752852876 [Eh]
	 Singles Energy            =      -0.0000000000000000 [Eh]
	 Same-Spin Energy          =      -0.0685659183091187 [Eh]
	 Opposite-Spin Energy      =      -0.2162890470451965 [Eh]
	 Correlation Energy        =      -0.2848549653543152 [Eh]
	 Total Energy              =     -76.3447583406396006 [Eh]

	 ================> DF-SCS-MP2 Energies <==================
	-----------------------------------------------------------
	 SCS Same-Spin Scale       =       0.3333333333333333 [-]
	 SCS Opposite-Spin Scale   =       1.2000000000000000 [-]
	 SCS Same-Spin Energy      =      -0.0228553061030396 [Eh]
	 SCS Opposite-Spin Energy  =      -0.2595468564542358 [Eh]
	 SCS Correlation Energy    =      -0.2824021625572753 [Eh]
	 SCS Total Energy          =     -76.3423055378425630 [Eh]
	-----------------------------------------------------------

*** Psi4 exiting successfully. Buy a developer a beer!
