                               Psi4 1.8.2 release

  ==> Input File <==

--------------------------------------------------------------------------
MEMORY 60 GB

molecule dimer {
1 1
Na         0.000000     0.000000     0.000000
Gh(O)     -1.599330     1.629936    -0.826504
Gh(H)     -2.060317     0.981063    -1.364915
Gh(H)     -1.486177     2.393893    -1.396625
Gh(O)     -0.042840    -0.395400    -2.442957
Gh(H)      0.550503     0.190653    -2.874800
Gh(H)     -0.913132    -0.259864    -2.869914
Gh(O)     -0.515091    -0.239782     2.281892
Gh(H)     -1.087173    -1.040340     2.258925
Gh(H)     -0.899990     0.406767     2.844373
Gh(O)      1.517695     1.592560     0.966864
Gh(H)      2.451653     1.871029     1.146830
Gh(H)      0.876999     1.867977     1.656428

units ang
no_reorient
no_com
symmetry c1
}

set {
basis        aug-cc-pVTZ
scf_type     df
}

energy("mp2")
--------------------------------------------------------------------------

    Molecular point group: c1

    Geometry (in Angstrom), charge = 1, multiplicity = 1:

       Center              X                  Y                   Z               Mass
    ------------   -----------------  -----------------  -----------------  -----------------
         NA           0.000000000000     0.000000000000     0.000000000000    22.989769282000
      Gh(O)          -1.599330000000     1.629936000000    -0.826504000000    15.994914619570
      Gh(H)          -2.060317000000     0.981063000000    -1.364915000000     1.007825032230
      Gh(H)          -1.486177000000     2.393893000000    -1.396625000000     1.007825032230
      Gh(O)          -0.042840000000    -0.395400000000    -2.442957000000    15.994914619570
      Gh(H)           0.550503000000     0.190653000000    -2.874800000000     1.007825032230
      Gh(H)          -0.913132000000    -0.259864000000    -2.869914000000     1.007825032230
      Gh(O)          -0.515091000000    -0.239782000000     2.281892000000    15.994914619570
      Gh(H)          -1.087173000000    -1.040340000000     2.258925000000     1.007825032230
      Gh(H)          -0.899990000000     0.406767000000     2.844373000000     1.007825032230
      Gh(O)           1.517695000000     1.592560000000     0.966864000000    15.994914619570
      Gh(H)           2.451653000000     1.871029000000     1.146830000000     1.007825032230
      Gh(H)           0.876999000000     1.867977000000     1.656428000000     1.007825032230

  Charge       = 1
  Multiplicity = 1
  Basis Set: AUG-CC-PVTZ
    Blend: AUG-CC-PVTZ
  Basis Set: (AUG-CC-PVTZ AUX)
    Blend: AUG-CC-PVTZ-JKFIT + DEF2-UNIVERSAL-JKFIT

    Orbital Energies [Eh]
    ---------------------

    Doubly Occupied:

       1A    -40.760816     2A     -3.073961     3A     -1.797323
       4A     -1.797264     5A     -1.797248

  @DF-RHF Final Energy:  -161.67608321898135

   => Energetics <=

    Nuclear Repulsion Energy =              0.0000000000000000
    One-Electron Energy =                -224.8989426527247986
    Two-Electron Energy =                  63.2228594337434657
    Total Energy =                       -161.6760832189813186
 Dipole X            :         -0.0000517            0.0000000           -0.0000517
 Dipole Y            :          0.0001076            0.0000000            0.0001076
 Dipole Z            :          0.0000464            0.0000000            0.0000464
 Magnitude           :                                                    0.0001280
  Basis Set: (AUG-CC-PVTZ AUX)
    Blend: AUG-CC-PVTZ-RI + DEF2-QZVPP-RI
	 Reference Energy          =    -161.6760832189813470 [Eh]
	 Singles Energy            =      -0.0000000000000000 [Eh]
	 Same-Spin Energy          =      -0.0050573640280721 [Eh]
	 Opposite-Spin Energy      =      -0.0161896154537465 [Eh]
	 Correlation Energy        =      -0.0212469794818186 [Eh]
	 Total Energy              =    -161.6973301984631632 [Eh]

	 ================> DF-SCS-MP2 Energies <==================
	-----------------------------------------------------------
	 SCS Same-Spin Scale       =       0.3333333333333333 [-]
	 SCS Opposite-Spin Scale   =       1.2000000000000000 [-]
	 SCS Same-Spin Energy      =      -0.0016857880093574 [Eh]
	 SCS Opposite-Spin Energy  =      -0.0194275385444958 [Eh]
	 SCS Correlation Energy    =      -0.0211133265538532 [Eh]
	 SCS Total Energy          =    -161.6971965455352063 [Eh]
	-----------------------------------------------------------

*** Psi4 exiting successfully. Buy a developer a beer!
