                               Psi4 1.8.2 release

  ==> Input File <==

--------------------------------------------------------------------------
MEMORY 60 GB

molecule dimer {
1 1
Na         0.000000     0.000000     0.000000
O          1.277477    -1.767812    -0.575450
H          0.780188    -2.469714    -0.998624
H          2.217875    -1.661537    -0.908748
O         -1.969258     1.692991    -0.479796
H         -2.121142     1.504376    -1.395083
H         -1.578749     2.546515    -0.346354
O          2.202998     0.822357    -0.111544
H          3.092868     0.791390     0.244148
H          2.456428     0.648289    -1.002973
O         -1.745283    -1.493277     0.287650
H         -1.790260    -1.500231     1.250476
H         -1.310641    -2.335748     0.072603

units ang
no_reorient
no_com
symmetry c1
}

set {
basis        aug-cc-pVTZ
scf_type     df
}

energy("mp2")
--------------------------------------------------------------------------

    Molecular point group: c1

    Geometry (in Angstrom), charge = 1, multiplicity = 1:

       Center              X                  Y                   Z               Mass
    ------------   -----------------  -----------------  -----------------  -----------------
         NA           0.000000000000     0.000000000000     0.000000000000    22.989769282000
         O            1.277477000000    -1.767812000000    -0.575450000000    15.994914619570
         H            0.780188000000    -2.469714000000    -0.998624000000     1.007825032230
         H            2.217875000000    -1.661537000000    -0.908748000000     1.007825032230
         O           -1.969258000000     1.692991000000    -0.479796000000    15.994914619570
         H           -2.121142000000     1.504376000000    -1.395083000000     1.007825032230
         H           -1.578749000000     2.546515000000    -0.346354000000     1.007825032230
         O            2.202998000000     0.822357000000    -0.111544000000    15.994914619570
         H            3.092868000000     0.791390000000     0.244148000000     1.007825032230
         H            2.456428000000     0.648289000000    -1.002973000000     1.007825032230
         O           -1.745283000000    -1.493277000000     0.287650000000    15.994914619570
         H           -1.790260000000    -1.500231000000     1.250476000000     1.007825032230
         H           -1.310641000000    -2.335748000000     0.072603000000     1.007825032230

  Charge       = 1
  Multiplicity = 1
  Basis Set: AUG-CC-PVTZ
    Blend: AUG-CC-PVTZ
  Basis Set: (AUG-CC-PVTZ AUX)
    Blend: AUG-CC-PVTZ-JKFIT + DEF2-UNIVERSAL-JKFIT

    Orbital Energies [Eh]
    ---------------------

    Doubly Occupied:

       1A    -40.593933     2A    -20.751296     3A    -20.745900
       4A    -20.738325     5A    -20.713007     6A     -2.916224
       7A     -1.641640     8A     -1.641199     9A     -1.639753
      10A     -1.545487    11A     -1.525786    12A     -1.520954
      13A     -1.504961    14A     -0.915434    15A     -0.888124
      16A     -0.882844    17A     -0.879704    18A     -0.798012
      19A     -0.764453    20A     -0.761386    21A     -0.724583
      22A     -0.702553    23A     -0.690439    24A     -0.687750
      25A     -0.664075

  @DF-RHF Final Energy:  -465.99697384613432

   => Energetics <=

    Nuclear Repulsion Energy =            215.4333057377949672
    One-Electron Energy =               -1069.1849062897558724
    Two-Electron Energy =                 387.7546267058265812
    Total Energy =                       -465.9969738461343240
 Dipole X            :          1.7486744           -0.2380318            1.5106426
 Dipole Y            :         15.2160656          -15.9541791           -0.7381135
 Dipole Z            :         18.1729241          -19.1196348           -0.9467107
 Magnitude           :                                                    1.9295372
  Basis Set: (AUG-CC-PVTZ AUX)
    Blend: AUG-CC-PVTZ-RI + DEF2-QZVPP-RI
	 Reference Energy          =    -465.9969738461343240 [Eh]
	 Singles Energy            =      -0.0000000000000000 [Eh]
	 Same-Spin Energy          =      -0.2807512229710853 [Eh]
	 Opposite-Spin Energy      =      -0.8792335100545637 [Eh]
	 Correlation Energy        =      -1.1599847330256492 [Eh]
	 Total Energy              =    -467.1569585791599479 [Eh]

	 ================> DF-SCS-MP2 Energies <==================
	-----------------------------------------------------------
	 SCS Same-Spin Scale       =       0.3333333333333333 [-]
	 SCS Opposite-Spin Scale   =       1.2000000000000000 [-]
	 SCS Same-Spin Energy      =      -0.0935837409903618 [Eh]
	 SCS Opposite-Spin Energy  =      -1.0550802120654765 [Eh]
	 SCS Correlation Energy    =      -1.1486639530558382 [Eh]
	 SCS Total Energy          =    -467.1456377991901832 [Eh]
	-----------------------------------------------------------

*** Psi4 exiting successfully. Buy a developer a beer!
