                               Psi4 1.9 release

  ==> Input File <==

--------------------------------------------------------------------------
MEMORY 60 GB

molecule dimer {
1 1
Na     0.000000     0.000000     0.000000
--
0 1
O     -1.748724     1.414062     0.874886
H     -1.689945     2.308594     0.549541
H     -2.361366     1.350837     1.632814
O      0.302414     0.965556    -2.034213
H     -0.601270     1.062348    -2.426937
H      0.779372     0.758555    -2.825749
O      1.437561    -1.515632     0.722924
H      2.205461    -0.891894     0.700578
H      1.302992    -1.600284     1.634306
O      1.297210     1.818155     1.214323
H      1.433743     2.095204     2.181625
H      2.169762     1.506935     0.937370
O     -1.726322    -1.655173    -0.241891
H     -2.216976    -1.775963     0.645435
H     -1.679070    -2.537642    -0.673875

units ang
no_reorient
no_com
symmetry c1
}

set {
basis        aug-cc-pVTZ
scf_type     df
}

energy("mp2", bsse_type="cp")
--------------------------------------------------------------------------

                               Psi4 1.9 release
    Molecular point group: c1
  Charge       = 0
  Multiplicity = 1
  Basis Set: AUG-CC-PVTZ
    Blend: AUG-CC-PVTZ
  Basis Set: (AUG-CC-PVTZ AUX)
    Blend: AUG-CC-PVTZ-JKFIT + DEF2-UNIVERSAL-JKFIT
  @DF-RHF Final Energy:  -380.26298240864844
    Total Energy =                       -380.2629824086484405
 Dipole X            :          7.9650373           -7.8616103            0.1034270
 Dipole Y            :        -19.6473982           19.8278266            0.1804285
 Dipole Z            :        -11.7778096           12.5540932            0.7762836
 Magnitude           :                                                    0.8036590
  Basis Set: (AUG-CC-PVTZ AUX)
    Blend: AUG-CC-PVTZ-RI + DEF2-QZVPP-RI
	 Reference Energy          =    -380.2629824086484405 [Eh]
	 Singles Energy            =      -0.0000000000000000 [Eh]
	 Same-Spin Energy          =      -0.3467484635944214 [Eh]
	 Opposite-Spin Energy      =      -1.0889078860471650 [Eh]
	 Correlation Energy        =      -1.4356563496415864 [Eh]
	 Total Energy              =    -381.6986387582900306 [Eh]
	 SCS Total Energy          =    -381.6852546931031611 [Eh]
                               Psi4 1.9 release
    Molecular point group: c1
  Multiplicity = 1
  Basis Set: AUG-CC-PVTZ
    Blend: AUG-CC-PVTZ
  Basis Set: (AUG-CC-PVTZ AUX)
    Blend: AUG-CC-PVTZ-JKFIT + DEF2-UNIVERSAL-JKFIT
  @DF-RHF Final Energy:  -161.67609248711406
    Total Energy =                       -161.6760924871140617
  Basis Set: (AUG-CC-PVTZ AUX)
	 Singles Energy            =      -0.0000000000000000 [Eh]
	 Same-Spin Energy          =      -0.0061111734060433 [Eh]
	 Opposite-Spin Energy      =      -0.0188202615224020 [Eh]
	 Correlation Energy        =      -0.0249314349284453 [Eh]
	 Total Energy              =    -161.7010239220425092 [Eh]
	 SCS Total Energy          =    -161.7007138587429722 [Eh]
                               Psi4 1.9 release
    Molecular point group: c1

    Geometry (in Bohr), charge = 1, multiplicity = 1:

       Center              X                  Y                   Z               Mass
    ------------   -----------------  -----------------  -----------------  -----------------
         NA           0.000000000000     0.000000000000     0.000000000000    22.989769282000
         O           -3.304609429015     2.672189904417     1.653294930997    15.994914619570
         H           -3.193533217087     4.362610394875     1.038481984710     1.007825032230
         H           -4.462335021968     2.552711970135     3.085571273813     1.007825032230
         O            0.571479636504     1.824636398793    -3.844105450846    15.994914619570
         H           -1.136235627454     2.007546769928    -4.586246253740     1.007825032230
         H            1.472799629850     1.433461201097    -5.339891709286     1.007825032230
         O            2.716596578639    -2.864129386980     1.366128369520    15.994914619570
         H            4.167717270378    -1.685435392939     1.323900549521     1.007825032230
         H            2.462298023663    -3.024098482952     3.088390745192     1.007825032230
         O            2.451371627205     3.435815003632     2.294737897844    15.994914619570
         H            2.709381604292     3.959361736964     4.122673758452     1.007825032230
         H            4.100255937426     2.847694438867     1.771372578220     1.007825032230
         O           -3.262275784353    -3.127823660252    -0.457107742213    15.994914619570
         H           -4.189477466713    -3.356083678946     1.219695381785     1.007825032230
         H           -3.172982445472    -4.795448384459    -1.273439192793     1.007825032230

  Charge       = 1
  Multiplicity = 1
  Basis Set: AUG-CC-PVTZ
    Blend: AUG-CC-PVTZ
  Basis Set: (AUG-CC-PVTZ AUX)
    Blend: AUG-CC-PVTZ-JKFIT + DEF2-UNIVERSAL-JKFIT

    Orbital Energies [Eh]
    ---------------------

    Doubly Occupied:

       1A    -40.548241     2A    -20.734751     3A    -20.727349
       4A    -20.726806     5A    -20.718133     6A    -20.711384
       7A     -2.872714     8A     -1.600666     9A     -1.597903
      10A     -1.596232    11A     -1.527369    12A     -1.511324
      13A     -1.495695    14A     -1.493316    15A     -1.478041
      16A     -0.882716    17A     -0.874955    18A     -0.859266
      19A     -0.854659    20A     -0.846107    21A     -0.767988
      22A     -0.764711    23A     -0.743961    24A     -0.734023
      25A     -0.723393    26A     -0.692658    27A     -0.674190
      28A     -0.665485    29A     -0.657808    30A     -0.654379

  @DF-RHF Final Energy:  -542.07402448579944

   => Energetics <=

    Nuclear Repulsion Energy =            304.1730150534723407
    One-Electron Energy =               -1351.0216215648858906
    Two-Electron Energy =                 504.7745820256139950
    Total Energy =                       -542.0740244857994412
 Dipole X            :          7.9173917           -7.8616103            0.0557814
 Dipole Y            :        -19.5734963           19.8278266            0.2543304
 Dipole Z            :        -11.6914084           12.5540932            0.8626848
 Magnitude           :                                                    0.9011218
  Basis Set: (AUG-CC-PVTZ AUX)
    Blend: AUG-CC-PVTZ-RI + DEF2-QZVPP-RI
	 Reference Energy          =    -542.0740244857994412 [Eh]
	 Singles Energy            =      -0.0000000000000000 [Eh]
	 Same-Spin Energy          =      -0.3516710446212216 [Eh]
	 Opposite-Spin Energy      =      -1.1011365803026745 [Eh]
	 Correlation Energy        =      -1.4528076249238961 [Eh]
	 Total Energy              =    -543.5268321107233760 [Eh]

	 ================> DF-SCS-MP2 Energies <==================
	-----------------------------------------------------------
	 SCS Same-Spin Scale       =       0.3333333333333333 [-]
	 SCS Opposite-Spin Scale   =       1.2000000000000000 [-]
	 SCS Same-Spin Energy      =      -0.1172236815404072 [Eh]
	 SCS Opposite-Spin Energy  =      -1.3213638963632093 [Eh]
	 SCS Correlation Energy    =      -1.4385875779036166 [Eh]
	 SCS Total Energy          =    -543.5126120637030454 [Eh]
	-----------------------------------------------------------

*** Psi4 exiting successfully. Buy a developer a beer!
