                               Psi4 1.8.2 release

  ==> Input File <==

--------------------------------------------------------------------------
MEMORY 60 GB

molecule dimer {
1 1
Na         0.000000     0.000000     0.000000
O          0.985243     1.361756    -1.542488
H          1.874246     1.350733    -1.934909
H          0.414988     1.260066    -2.324670
O          0.823978     0.878247     2.115655
H          1.298081     1.751934     2.375790
H          0.257828     0.586640     2.820213
O         -0.226418    -1.408438    -1.797917
H         -0.917865    -2.089083    -1.585986
H          0.448556    -1.874981    -2.327105
O         -1.974562     0.901395    -0.277079
H         -2.014013     1.682929     0.320102
H         -2.637138     0.327502     0.068322

units ang
no_reorient
no_com
symmetry c1
}

set {
basis        aug-cc-pVTZ
scf_type     df
}

energy("mp2")
--------------------------------------------------------------------------

    Molecular point group: c1

    Geometry (in Angstrom), charge = 1, multiplicity = 1:

       Center              X                  Y                   Z               Mass
    ------------   -----------------  -----------------  -----------------  -----------------
         NA           0.000000000000     0.000000000000     0.000000000000    22.989769282000
         O            0.985243000000     1.361756000000    -1.542488000000    15.994914619570
         H            1.874246000000     1.350733000000    -1.934909000000     1.007825032230
         H            0.414988000000     1.260066000000    -2.324670000000     1.007825032230
         O            0.823978000000     0.878247000000     2.115655000000    15.994914619570
         H            1.298081000000     1.751934000000     2.375790000000     1.007825032230
         H            0.257828000000     0.586640000000     2.820213000000     1.007825032230
         O           -0.226418000000    -1.408438000000    -1.797917000000    15.994914619570
         H           -0.917865000000    -2.089083000000    -1.585986000000     1.007825032230
         H            0.448556000000    -1.874981000000    -2.327105000000     1.007825032230
         O           -1.974562000000     0.901395000000    -0.277079000000    15.994914619570
         H           -2.014013000000     1.682929000000     0.320102000000     1.007825032230
         H           -2.637138000000     0.327502000000     0.068322000000     1.007825032230

  Charge       = 1
  Multiplicity = 1
  Basis Set: AUG-CC-PVTZ
    Blend: AUG-CC-PVTZ
  Basis Set: (AUG-CC-PVTZ AUX)
    Blend: AUG-CC-PVTZ-JKFIT + DEF2-UNIVERSAL-JKFIT

    Orbital Energies [Eh]
    ---------------------

    Doubly Occupied:

       1A    -40.568586     2A    -20.739743     3A    -20.739540
       4A    -20.732394     5A    -20.720058     6A     -2.893495
       7A     -1.619936     8A     -1.618540     9A     -1.617678
      10A     -1.527340    11A     -1.512013    12A     -1.501508
      13A     -1.500804    14A     -0.887726    15A     -0.876862
      16A     -0.876062    17A     -0.858119    18A     -0.773264
      19A     -0.758986    20A     -0.751770    21A     -0.743235
      22A     -0.693899    23A     -0.683899    24A     -0.673379
      25A     -0.666486

  @DF-RHF Final Energy:  -466.01027045964804

   => Energetics <=

    Nuclear Repulsion Energy =            219.6595905675975189
    One-Electron Energy =               -1078.2690740186988023
    Two-Electron Energy =                 392.5992129914532143
    Total Energy =                       -466.0102704596480407
 Dipole X            :          7.9547407           -8.3325376           -0.3777969
 Dipole Y            :        -31.9990073           31.8596864           -0.1393208
 Dipole Z            :         27.7195544          -27.5954344            0.1241200
 Magnitude           :                                                    0.4213628
  Basis Set: (AUG-CC-PVTZ AUX)
    Blend: AUG-CC-PVTZ-RI + DEF2-QZVPP-RI
	 Reference Energy          =    -466.0102704596480407 [Eh]
	 Singles Energy            =      -0.0000000000000000 [Eh]
	 Same-Spin Energy          =      -0.2816301304364470 [Eh]
	 Opposite-Spin Energy      =      -0.8820538499875998 [Eh]
	 Correlation Energy        =      -1.1636839804240469 [Eh]
	 Total Energy              =    -467.1739544400720661 [Eh]

	 ================> DF-SCS-MP2 Energies <==================
	-----------------------------------------------------------
	 SCS Same-Spin Scale       =       0.3333333333333333 [-]
	 SCS Opposite-Spin Scale   =       1.2000000000000000 [-]
	 SCS Same-Spin Energy      =      -0.0938767101454823 [Eh]
	 SCS Opposite-Spin Energy  =      -1.0584646199851198 [Eh]
	 SCS Correlation Energy    =      -1.1523413301306020 [Eh]
	 SCS Total Energy          =    -467.1626117897786230 [Eh]
	-----------------------------------------------------------

*** Psi4 exiting successfully. Buy a developer a beer!
