                               Psi4 1.8.2 release

  ==> Input File <==

--------------------------------------------------------------------------
MEMORY 60 GB

molecule dimer {
1 1
Na         0.000000     0.000000     0.000000
O         -0.835240     0.473484     2.119495
H         -0.454693     1.245275     2.586267
H         -1.132360    -0.183285     2.785897
O          0.033539    -2.290098    -0.664363
H         -0.004054    -2.576443     0.261397
H          0.855844    -2.546782    -1.166561
O          1.583864     1.928752    -0.019939
H          1.499354     1.829133    -1.014737
H          1.387146     2.888641     0.263931

units ang
no_reorient
no_com
symmetry c1
}

set {
basis        aug-cc-pVTZ
scf_type     df
}

energy("mp2")
--------------------------------------------------------------------------

    Molecular point group: c1

    Geometry (in Angstrom), charge = 1, multiplicity = 1:

       Center              X                  Y                   Z               Mass
    ------------   -----------------  -----------------  -----------------  -----------------
         NA           0.000000000000     0.000000000000     0.000000000000    22.989769282000
         O           -0.835240000000     0.473484000000     2.119495000000    15.994914619570
         H           -0.454693000000     1.245275000000     2.586267000000     1.007825032230
         H           -1.132360000000    -0.183285000000     2.785897000000     1.007825032230
         O            0.033539000000    -2.290098000000    -0.664363000000    15.994914619570
         H           -0.004054000000    -2.576443000000     0.261397000000     1.007825032230
         H            0.855844000000    -2.546782000000    -1.166561000000     1.007825032230
         O            1.583864000000     1.928752000000    -0.019939000000    15.994914619570
         H            1.499354000000     1.829133000000    -1.014737000000     1.007825032230
         H            1.387146000000     2.888641000000     0.263931000000     1.007825032230

  Charge       = 1
  Multiplicity = 1
  Basis Set: AUG-CC-PVTZ
    Blend: AUG-CC-PVTZ
  Basis Set: (AUG-CC-PVTZ AUX)
    Blend: AUG-CC-PVTZ-JKFIT + DEF2-UNIVERSAL-JKFIT

    Orbital Energies [Eh]
    ---------------------

    Doubly Occupied:

       1A    -40.631197     2A    -20.752543     3A    -20.750362
       4A    -20.750028     5A     -2.950849     6A     -1.675658
       7A     -1.674895     8A     -1.673731     9A     -1.523696
      10A     -1.520046    11A     -1.505547    12A     -0.907570
      13A     -0.896022    14A     -0.880497    15A     -0.772146
      16A     -0.749629    17A     -0.748495    18A     -0.697238
      19A     -0.694127    20A     -0.688514

  @DF-RHF Final Energy:  -389.91804461802394

   => Energetics <=

    Nuclear Repulsion Energy =            135.6689724089793856
    One-Electron Energy =                -806.2884504855306886
    Two-Electron Energy =                 280.7014334585273900
    Total Energy =                       -389.9180446180239414
 Dipole X            :        -15.3856872           15.8898396            0.5041524
 Dipole Y            :         -2.6364258            2.9359598            0.2995340
 Dipole Z            :        -27.9511216           28.7195625            0.7684409
 Magnitude           :                                                    0.9666394
  Basis Set: (AUG-CC-PVTZ AUX)
    Blend: AUG-CC-PVTZ-RI + DEF2-QZVPP-RI
	 Reference Energy          =    -389.9180446180239414 [Eh]
	 Singles Energy            =      -0.0000000000000000 [Eh]
	 Same-Spin Energy          =      -0.2107208867619483 [Eh]
	 Opposite-Spin Energy      =      -0.6623312621278125 [Eh]
	 Correlation Energy        =      -0.8730521488897607 [Eh]
	 Total Energy              =    -390.7910967669137108 [Eh]

	 ================> DF-SCS-MP2 Energies <==================
	-----------------------------------------------------------
	 SCS Same-Spin Scale       =       0.3333333333333333 [-]
	 SCS Opposite-Spin Scale   =       1.2000000000000000 [-]
	 SCS Same-Spin Energy      =      -0.0702402955873161 [Eh]
	 SCS Opposite-Spin Energy  =      -0.7947975145533749 [Eh]
	 SCS Correlation Energy    =      -0.8650378101406910 [Eh]
	 SCS Total Energy          =    -390.7830824281646187 [Eh]
	-----------------------------------------------------------

*** Psi4 exiting successfully. Buy a developer a beer!
