                               Psi4 1.9 release

  ==> Input File <==

--------------------------------------------------------------------------
MEMORY 60 GB

molecule dimer {
1 1
Na     0.000000     0.000000     0.000000
--
0 1
O     -2.215330    -1.211537    -0.435171
H     -2.946479    -1.040175     0.184638
H     -2.480537    -0.897294    -1.285925
O     -1.377703     1.646645     0.851564
H     -0.838544     2.401427     0.750035
H     -2.139544     1.659704     0.318542
O      2.135687     1.382859    -0.640918
H      2.124534     2.024732    -1.423235
H      3.036809     1.045545    -0.627099
O      0.991615    -1.503469    -1.538780
H      0.523070    -2.328162    -1.765905
H      1.872728    -1.692798    -1.836695
O      0.609934    -0.580290     2.198415
H      1.329489    -1.199807     2.453223
H      0.835592     0.356422     2.441611

units ang
no_reorient
no_com
symmetry c1
}

set {
basis        aug-cc-pVTZ
scf_type     df
}

energy("mp2", bsse_type="cp")
--------------------------------------------------------------------------

                               Psi4 1.9 release
    Molecular point group: c1
  Charge       = 0
  Multiplicity = 1
  Basis Set: AUG-CC-PVTZ
    Blend: AUG-CC-PVTZ
  Basis Set: (AUG-CC-PVTZ AUX)
    Blend: AUG-CC-PVTZ-JKFIT + DEF2-UNIVERSAL-JKFIT
  @DF-RHF Final Energy:  -380.27492651126562
    Total Energy =                       -380.2749265112656190
 Dipole X            :         -4.0227699            4.6690257            0.6462558
 Dipole Y            :          3.9599567           -3.3953503            0.5646064
 Dipole Z            :         -6.1852066            5.0834956           -1.1017110
 Magnitude           :                                                    1.3964935
  Basis Set: (AUG-CC-PVTZ AUX)
    Blend: AUG-CC-PVTZ-RI + DEF2-QZVPP-RI
	 Reference Energy          =    -380.2749265112656190 [Eh]
	 Singles Energy            =      -0.0000000000000000 [Eh]
	 Same-Spin Energy          =      -0.3451671067636651 [Eh]
	 Opposite-Spin Energy      =      -1.0841081062201683 [Eh]
	 Correlation Energy        =      -1.4292752129838333 [Eh]
	 Total Energy              =    -381.7042017242494580 [Eh]
	 SCS Total Energy          =    -381.6909119409843925 [Eh]
                               Psi4 1.9 release
    Molecular point group: c1
  Multiplicity = 1
  Basis Set: AUG-CC-PVTZ
    Blend: AUG-CC-PVTZ
  Basis Set: (AUG-CC-PVTZ AUX)
    Blend: AUG-CC-PVTZ-JKFIT + DEF2-UNIVERSAL-JKFIT
  @DF-RHF Final Energy:  -161.67608984819503
    Total Energy =                       -161.6760898481950335
  Basis Set: (AUG-CC-PVTZ AUX)
	 Singles Energy            =      -0.0000000000000000 [Eh]
	 Same-Spin Energy          =      -0.0057560652658633 [Eh]
	 Opposite-Spin Energy      =      -0.0179713958857577 [Eh]
	 Correlation Energy        =      -0.0237274611516211 [Eh]
	 Total Energy              =    -161.6998173093466562 [Eh]
	 SCS Total Energy          =    -161.6995742116799022 [Eh]
                               Psi4 1.9 release
    Molecular point group: c1

    Geometry (in Bohr), charge = 1, multiplicity = 1:

       Center              X                  Y                   Z               Mass
    ------------   -----------------  -----------------  -----------------  -----------------
         NA           0.000000000000     0.000000000000     0.000000000000    22.989769282000
         O           -4.186366977510    -2.289473120859    -0.822354007742    15.994914619570
         H           -5.568038344413    -1.965645872548     0.348915252352     1.007825032230
         H           -4.687535574065    -1.695639914017    -2.430046067879     1.007825032230
         O           -2.603481352222     3.111708075855     1.609222738299    15.994914619570
         H           -1.584618504146     4.538039340280     1.417360734508     1.007825032230
         H           -4.043152193367     3.136386009327     0.601957139456     1.007825032230
         O            4.035863519701     2.613224780124    -1.211159488876    15.994914619570
         H            4.014787404223     3.826188957450    -2.689524362166     1.007825032230
         H            5.738737305325     1.975793701842    -1.185045363548     1.007825032230
         O            1.873880771896    -2.841144648116    -2.907872767332    15.994914619570
         H            0.988459044443    -4.399588555698    -3.337076813577     1.007825032230
         H            3.538943027476    -3.198924605723    -3.470850525998     1.007825032230
         O            1.152608214605    -1.096589173342     4.154402260098    15.994914619570
         H            2.512370096809    -2.267306633407     4.635919594674     1.007825032230
         H            1.579040032624     0.673539965088     4.613976094905     1.007825032230

  Charge       = 1
  Multiplicity = 1
  Basis Set: AUG-CC-PVTZ
    Blend: AUG-CC-PVTZ
  Basis Set: (AUG-CC-PVTZ AUX)
    Blend: AUG-CC-PVTZ-JKFIT + DEF2-UNIVERSAL-JKFIT

    Orbital Energies [Eh]
    ---------------------

    Doubly Occupied:

       1A    -40.560162     2A    -20.726633     3A    -20.723292
       4A    -20.721397     5A    -20.717165     6A    -20.714032
       7A     -2.882025     8A     -1.607588     9A     -1.607070
      10A     -1.605347    11A     -1.528763    12A     -1.508103
      13A     -1.503474    14A     -1.495897    15A     -1.481743
      16A     -0.916772    17A     -0.874411    18A     -0.864022
      19A     -0.860178    20A     -0.856920    21A     -0.760572
      22A     -0.746244    23A     -0.744356    24A     -0.735626
      25A     -0.719094    26A     -0.686021    27A     -0.669061
      28A     -0.665857    29A     -0.663429    30A     -0.657117

  @DF-RHF Final Energy:  -542.08630727394086

   => Energetics <=

    Nuclear Repulsion Energy =            297.3081730446069741
    One-Electron Energy =               -1337.1842156466780125
    Two-Electron Energy =                 497.7897353281301207
    Total Energy =                       -542.0863072739409745
 Dipole X            :         -3.9795139            4.6690257            0.6895118
 Dipole Y            :          3.9318973           -3.3953503            0.5365470
 Dipole Z            :         -6.1483903            5.0834956           -1.0648948
 Magnitude           :                                                    1.3774288
  Basis Set: (AUG-CC-PVTZ AUX)
    Blend: AUG-CC-PVTZ-RI + DEF2-QZVPP-RI
	 Reference Energy          =    -542.0863072739408608 [Eh]
	 Singles Energy            =      -0.0000000000000000 [Eh]
	 Same-Spin Energy          =      -0.3498964019153066 [Eh]
	 Opposite-Spin Energy      =      -1.0964695484827320 [Eh]
	 Correlation Energy        =      -1.4463659503980386 [Eh]
	 Total Energy              =    -543.5326732243388506 [Eh]

	 ================> DF-SCS-MP2 Energies <==================
	-----------------------------------------------------------
	 SCS Same-Spin Scale       =       0.3333333333333333 [-]
	 SCS Opposite-Spin Scale   =       1.2000000000000000 [-]
	 SCS Same-Spin Energy      =      -0.1166321339717689 [Eh]
	 SCS Opposite-Spin Energy  =      -1.3157634581792783 [Eh]
	 SCS Correlation Energy    =      -1.4323955921510472 [Eh]
	 SCS Total Energy          =    -543.5187028660918713 [Eh]
	-----------------------------------------------------------

*** Psi4 exiting successfully. Buy a developer a beer!
