                               Psi4 1.8.2 release

  ==> Input File <==

--------------------------------------------------------------------------
MEMORY 60 GB

molecule dimer {
0 1
Gh(Na)     0.000000     0.000000     0.000000
Gh(O)     -1.519224     0.743307    -1.517371
Gh(H)     -2.170232     1.445420    -1.313542
Gh(H)     -1.928734     0.240608    -2.180940
Gh(O)      0.880839    -0.923193    -1.792672
Gh(H)      0.384739    -1.662288    -2.202197
Gh(H)      0.908594    -0.270491    -2.520157
Gh(O)     -0.829751    -2.398045     0.046518
Gh(H)     -0.436846    -2.980410     0.712108
Gh(H)     -1.756796    -2.284077     0.333535
O          1.813124    -0.230890     1.363483
H          2.118748    -1.000546     0.923160
H          2.605605     0.291871     1.236262
Gh(O)      0.328695     2.432253     0.024011
Gh(H)      1.248695     2.702953    -0.044667
Gh(H)     -0.191218     2.949578    -0.590188

units ang
no_reorient
no_com
symmetry c1
}

set {
basis        aug-cc-pVTZ
scf_type     df
}

energy("mp2")
--------------------------------------------------------------------------

    Molecular point group: c1

    Geometry (in Angstrom), charge = 0, multiplicity = 1:

       Center              X                  Y                   Z               Mass
    ------------   -----------------  -----------------  -----------------  -----------------
      Gh(NA)          0.000000000000     0.000000000000     0.000000000000    22.989769282000
      Gh(O)          -1.519224000000     0.743307000000    -1.517371000000    15.994914619570
      Gh(H)          -2.170232000000     1.445420000000    -1.313542000000     1.007825032230
      Gh(H)          -1.928734000000     0.240608000000    -2.180940000000     1.007825032230
      Gh(O)           0.880839000000    -0.923193000000    -1.792672000000    15.994914619570
      Gh(H)           0.384739000000    -1.662288000000    -2.202197000000     1.007825032230
      Gh(H)           0.908594000000    -0.270491000000    -2.520157000000     1.007825032230
      Gh(O)          -0.829751000000    -2.398045000000     0.046518000000    15.994914619570
      Gh(H)          -0.436846000000    -2.980410000000     0.712108000000     1.007825032230
      Gh(H)          -1.756796000000    -2.284077000000     0.333535000000     1.007825032230
         O            1.813124000000    -0.230890000000     1.363483000000    15.994914619570
         H            2.118748000000    -1.000546000000     0.923160000000     1.007825032230
         H            2.605605000000     0.291871000000     1.236262000000     1.007825032230
      Gh(O)           0.328695000000     2.432253000000     0.024011000000    15.994914619570
      Gh(H)           1.248695000000     2.702953000000    -0.044667000000     1.007825032230
      Gh(H)          -0.191218000000     2.949578000000    -0.590188000000     1.007825032230

  Charge       = 0
  Multiplicity = 1
  Basis Set: AUG-CC-PVTZ
    Blend: AUG-CC-PVTZ
  Basis Set: (AUG-CC-PVTZ AUX)
    Blend: AUG-CC-PVTZ-JKFIT + DEF2-UNIVERSAL-JKFIT

    Orbital Energies [Eh]
    ---------------------

    Doubly Occupied:

       1A    -20.568452     2A     -1.364562     3A     -0.706539
       4A     -0.602247     5A     -0.513316

  @DF-RHF Final Energy:   -76.05857060908693

   => Energetics <=

    Nuclear Repulsion Energy =              9.3070641078084044
    One-Electron Energy =                -123.2210355454086397
    Two-Electron Energy =                  37.8554008285133179
    Total Energy =                        -76.0585706090869280
 Dipole X            :        -35.6207196           36.3381956            0.7174761
 Dipole Y            :          4.6642513           -4.8297526           -0.1655013
 Dipole Z            :        -25.0657242           24.6935917           -0.3721324
 Magnitude           :                                                    0.8250122
  Basis Set: (AUG-CC-PVTZ AUX)
    Blend: AUG-CC-PVTZ-RI + DEF2-QZVPP-RI
	 Reference Energy          =     -76.0585706090869280 [Eh]
	 Singles Energy            =      -0.0000000000000000 [Eh]
	 Same-Spin Energy          =      -0.0684768135776278 [Eh]
	 Opposite-Spin Energy      =      -0.2159586202762376 [Eh]
	 Correlation Energy        =      -0.2844354338538654 [Eh]
	 Total Energy              =     -76.3430060429408002 [Eh]

	 ================> DF-SCS-MP2 Energies <==================
	-----------------------------------------------------------
	 SCS Same-Spin Scale       =       0.3333333333333333 [-]
	 SCS Opposite-Spin Scale   =       1.2000000000000000 [-]
	 SCS Same-Spin Energy      =      -0.0228256045258759 [Eh]
	 SCS Opposite-Spin Energy  =      -0.2591503443314851 [Eh]
	 SCS Correlation Energy    =      -0.2819759488573611 [Eh]
	 SCS Total Energy          =     -76.3405465579442932 [Eh]
	-----------------------------------------------------------

*** Psi4 exiting successfully. Buy a developer a beer!
