                               Psi4 1.8.2 release

  ==> Input File <==

--------------------------------------------------------------------------
MEMORY 60 GB

molecule dimer {
0 1
Gh(Na)     0.000000     0.000000     0.000000
Gh(O)     -0.034535     1.231489    -2.218136
Gh(H)      0.606959     1.824112    -2.604967
Gh(H)     -0.908760     1.375753    -2.636306
Gh(O)      2.509633    -0.358357    -0.458430
Gh(H)      2.814224    -0.209112     0.444792
Gh(H)      2.813634     0.361272    -1.001100
Gh(O)     -2.323793     0.459139     0.520834
Gh(H)     -3.041218     0.076369     0.031045
Gh(H)     -2.786487     1.059008     1.202974
O         -0.225495    -2.522497     0.781078
H         -0.490119    -2.643515     1.700931
H          0.498305    -3.103075     0.692877
Gh(O)      0.964521     0.894478     1.841733
Gh(H)      1.926174     0.986879     2.103443
Gh(H)      0.445700     0.435486     2.501790

units ang
no_reorient
no_com
symmetry c1
}

set {
basis        aug-cc-pVTZ
scf_type     df
}

energy("mp2")
--------------------------------------------------------------------------

    Molecular point group: c1

    Geometry (in Angstrom), charge = 0, multiplicity = 1:

       Center              X                  Y                   Z               Mass
    ------------   -----------------  -----------------  -----------------  -----------------
      Gh(NA)          0.000000000000     0.000000000000     0.000000000000    22.989769282000
      Gh(O)          -0.034535000000     1.231489000000    -2.218136000000    15.994914619570
      Gh(H)           0.606959000000     1.824112000000    -2.604967000000     1.007825032230
      Gh(H)          -0.908760000000     1.375753000000    -2.636306000000     1.007825032230
      Gh(O)           2.509633000000    -0.358357000000    -0.458430000000    15.994914619570
      Gh(H)           2.814224000000    -0.209112000000     0.444792000000     1.007825032230
      Gh(H)           2.813634000000     0.361272000000    -1.001100000000     1.007825032230
      Gh(O)          -2.323793000000     0.459139000000     0.520834000000    15.994914619570
      Gh(H)          -3.041218000000     0.076369000000     0.031045000000     1.007825032230
      Gh(H)          -2.786487000000     1.059008000000     1.202974000000     1.007825032230
         O           -0.225495000000    -2.522497000000     0.781078000000    15.994914619570
         H           -0.490119000000    -2.643515000000     1.700931000000     1.007825032230
         H            0.498305000000    -3.103075000000     0.692877000000     1.007825032230
      Gh(O)           0.964521000000     0.894478000000     1.841733000000    15.994914619570
      Gh(H)           1.926174000000     0.986879000000     2.103443000000     1.007825032230
      Gh(H)           0.445700000000     0.435486000000     2.501790000000     1.007825032230

  Charge       = 0
  Multiplicity = 1
  Basis Set: AUG-CC-PVTZ
    Blend: AUG-CC-PVTZ
  Basis Set: (AUG-CC-PVTZ AUX)
    Blend: AUG-CC-PVTZ-JKFIT + DEF2-UNIVERSAL-JKFIT

    Orbital Energies [Eh]
    ---------------------

    Doubly Occupied:

       1A    -20.566011     2A     -1.359501     3A     -0.719691
       4A     -0.589422     5A     -0.511532

  @DF-RHF Final Energy:   -76.06036771194883

   => Energetics <=

    Nuclear Repulsion Energy =              9.2863790386784846
    One-Electron Energy =                -123.2011791093386535
    Two-Electron Energy =                  37.8544323587113425
    Total Energy =                        -76.0603677119488282
 Dipole X            :          3.7030302           -3.3935210            0.3095091
 Dipole Y            :         48.5247968          -48.9941091           -0.4693123
 Dipole Z            :        -15.7821927           16.3318295            0.5496368
 Magnitude           :                                                    0.7862255
  Basis Set: (AUG-CC-PVTZ AUX)
    Blend: AUG-CC-PVTZ-RI + DEF2-QZVPP-RI
	 Reference Energy          =     -76.0603677119488282 [Eh]
	 Singles Energy            =      -0.0000000000000000 [Eh]
	 Same-Spin Energy          =      -0.0682645249809779 [Eh]
	 Opposite-Spin Energy      =      -0.2152661670007752 [Eh]
	 Correlation Energy        =      -0.2835306919817531 [Eh]
	 Total Energy              =     -76.3438984039305808 [Eh]

	 ================> DF-SCS-MP2 Energies <==================
	-----------------------------------------------------------
	 SCS Same-Spin Scale       =       0.3333333333333333 [-]
	 SCS Opposite-Spin Scale   =       1.2000000000000000 [-]
	 SCS Same-Spin Energy      =      -0.0227548416603260 [Eh]
	 SCS Opposite-Spin Energy  =      -0.2583194004009302 [Eh]
	 SCS Correlation Energy    =      -0.2810742420612562 [Eh]
	 SCS Total Energy          =     -76.3414419540100795 [Eh]
	-----------------------------------------------------------

*** Psi4 exiting successfully. Buy a developer a beer!
