                               Psi4 1.8.2 release

  ==> Input File <==

--------------------------------------------------------------------------
MEMORY 60 GB

molecule dimer {
1 1
Na         0.000000     0.000000     0.000000
Gh(O)     -2.261961     1.217191     0.375676
Gh(H)     -2.319771     0.725206     1.230404
Gh(H)     -2.115469     2.079564     0.782307
Gh(O)      0.486184     1.167985    -1.873883
Gh(H)      1.475220     1.083745    -1.817610
Gh(H)      0.344352     2.132995    -1.761720
Gh(O)      0.722217     0.847010     2.215250
Gh(H)      1.295874     1.594855     2.044533
Gh(H)      1.115391     0.266313     2.859288
Gh(O)      2.364881    -0.815744    -0.208489
Gh(H)      2.395551    -1.654726     0.299478
Gh(H)      2.540953    -0.931226    -1.162329
Gh(O)     -1.292387    -1.428775     1.297161
Gh(H)     -1.008717    -1.931975     2.092847
Gh(H)     -1.907300    -1.938032     0.765697

units ang
no_reorient
no_com
symmetry c1
}

set {
basis        aug-cc-pVTZ
scf_type     df
}

energy("mp2")
--------------------------------------------------------------------------

    Molecular point group: c1

    Geometry (in Angstrom), charge = 1, multiplicity = 1:

       Center              X                  Y                   Z               Mass
    ------------   -----------------  -----------------  -----------------  -----------------
         NA           0.000000000000     0.000000000000     0.000000000000    22.989769282000
      Gh(O)          -2.261961000000     1.217191000000     0.375676000000    15.994914619570
      Gh(H)          -2.319771000000     0.725206000000     1.230404000000     1.007825032230
      Gh(H)          -2.115469000000     2.079564000000     0.782307000000     1.007825032230
      Gh(O)           0.486184000000     1.167985000000    -1.873883000000    15.994914619570
      Gh(H)           1.475220000000     1.083745000000    -1.817610000000     1.007825032230
      Gh(H)           0.344352000000     2.132995000000    -1.761720000000     1.007825032230
      Gh(O)           0.722217000000     0.847010000000     2.215250000000    15.994914619570
      Gh(H)           1.295874000000     1.594855000000     2.044533000000     1.007825032230
      Gh(H)           1.115391000000     0.266313000000     2.859288000000     1.007825032230
      Gh(O)           2.364881000000    -0.815744000000    -0.208489000000    15.994914619570
      Gh(H)           2.395551000000    -1.654726000000     0.299478000000     1.007825032230
      Gh(H)           2.540953000000    -0.931226000000    -1.162329000000     1.007825032230
      Gh(O)          -1.292387000000    -1.428775000000     1.297161000000    15.994914619570
      Gh(H)          -1.008717000000    -1.931975000000     2.092847000000     1.007825032230
      Gh(H)          -1.907300000000    -1.938032000000     0.765697000000     1.007825032230

  Charge       = 1
  Multiplicity = 1
  Basis Set: AUG-CC-PVTZ
    Blend: AUG-CC-PVTZ
  Basis Set: (AUG-CC-PVTZ AUX)
    Blend: AUG-CC-PVTZ-JKFIT + DEF2-UNIVERSAL-JKFIT

    Orbital Energies [Eh]
    ---------------------

    Doubly Occupied:

       1A    -40.760452     2A     -3.073802     3A     -1.797165
       4A     -1.797153     5A     -1.797106

  @DF-RHF Final Energy:  -161.67608997280161

   => Energetics <=

    Nuclear Repulsion Energy =              0.0000000000000000
    One-Electron Energy =                -224.9008230087846130
    Two-Electron Energy =                  63.2247330359830073
    Total Energy =                       -161.6760899728016057
 Dipole X            :         -0.0000267            0.0000000           -0.0000267
 Dipole Y            :          0.0000457            0.0000000            0.0000457
 Dipole Z            :          0.0000921            0.0000000            0.0000921
 Magnitude           :                                                    0.0001062
  Basis Set: (AUG-CC-PVTZ AUX)
    Blend: AUG-CC-PVTZ-RI + DEF2-QZVPP-RI
	 Reference Energy          =    -161.6760899728016057 [Eh]
	 Singles Energy            =      -0.0000000000000000 [Eh]
	 Same-Spin Energy          =      -0.0060992424342149 [Eh]
	 Opposite-Spin Energy      =      -0.0188745284026599 [Eh]
	 Correlation Energy        =      -0.0249737708368748 [Eh]
	 Total Energy              =    -161.7010637436384854 [Eh]

	 ================> DF-SCS-MP2 Energies <==================
	-----------------------------------------------------------
	 SCS Same-Spin Scale       =       0.3333333333333333 [-]
	 SCS Opposite-Spin Scale   =       1.2000000000000000 [-]
	 SCS Same-Spin Energy      =      -0.0020330808114050 [Eh]
	 SCS Opposite-Spin Energy  =      -0.0226494340831919 [Eh]
	 SCS Correlation Energy    =      -0.0246825148945968 [Eh]
	 SCS Total Energy          =    -161.7007724876962129 [Eh]
	-----------------------------------------------------------

*** Psi4 exiting successfully. Buy a developer a beer!
