                               Psi4 1.8.2 release

  ==> Input File <==

--------------------------------------------------------------------------
MEMORY 60 GB

molecule dimer {
0 1
Gh(Na)     0.000000     0.000000     0.000000
Gh(O)     -0.177744    -2.178850    -0.553539
Gh(H)     -0.869295    -2.621709    -0.135058
Gh(H)     -0.313895    -2.582009    -1.441257
O          2.093826     0.024601     0.755933
H          2.129969     0.591241     1.585698
H          3.029505     0.110000     0.406142
Gh(O)      0.203324     2.325177     0.292567
Gh(H)      0.391095     2.453879     1.209027
Gh(H)     -0.303688     3.155131     0.044815
Gh(O)      0.320390     0.773751    -2.164870
Gh(H)      0.455080     1.775417    -2.130367
Gh(H)      0.649183     0.464819    -3.037165
Gh(O)     -1.390357     0.611765     2.061121
Gh(H)     -1.634301     1.509377     2.361661
Gh(H)     -2.142878     0.044850     2.278362

units ang
no_reorient
no_com
symmetry c1
}

set {
basis        aug-cc-pVTZ
scf_type     df
}

energy("mp2")
--------------------------------------------------------------------------

    Molecular point group: c1

    Geometry (in Angstrom), charge = 0, multiplicity = 1:

       Center              X                  Y                   Z               Mass
    ------------   -----------------  -----------------  -----------------  -----------------
      Gh(NA)          0.000000000000     0.000000000000     0.000000000000    22.989769282000
      Gh(O)          -0.177744000000    -2.178850000000    -0.553539000000    15.994914619570
      Gh(H)          -0.869295000000    -2.621709000000    -0.135058000000     1.007825032230
      Gh(H)          -0.313895000000    -2.582009000000    -1.441257000000     1.007825032230
         O            2.093826000000     0.024601000000     0.755933000000    15.994914619570
         H            2.129969000000     0.591241000000     1.585698000000     1.007825032230
         H            3.029505000000     0.110000000000     0.406142000000     1.007825032230
      Gh(O)           0.203324000000     2.325177000000     0.292567000000    15.994914619570
      Gh(H)           0.391095000000     2.453879000000     1.209027000000     1.007825032230
      Gh(H)          -0.303688000000     3.155131000000     0.044815000000     1.007825032230
      Gh(O)           0.320390000000     0.773751000000    -2.164870000000    15.994914619570
      Gh(H)           0.455080000000     1.775417000000    -2.130367000000     1.007825032230
      Gh(H)           0.649183000000     0.464819000000    -3.037165000000     1.007825032230
      Gh(O)          -1.390357000000     0.611765000000     2.061121000000    15.994914619570
      Gh(H)          -1.634301000000     1.509377000000     2.361661000000     1.007825032230
      Gh(H)          -2.142878000000     0.044850000000     2.278362000000     1.007825032230

  Charge       = 0
  Multiplicity = 1
  Basis Set: AUG-CC-PVTZ
    Blend: AUG-CC-PVTZ
  Basis Set: (AUG-CC-PVTZ AUX)
    Blend: AUG-CC-PVTZ-JKFIT + DEF2-UNIVERSAL-JKFIT

    Orbital Energies [Eh]
    ---------------------

    Doubly Occupied:

       1A    -20.576169     2A     -1.332359     3A     -0.688173
       4A     -0.580820     5A     -0.507513

  @DF-RHF Final Energy:   -76.05366736755974

   => Energetics <=

    Nuclear Repulsion Energy =              8.7724339461297411
    One-Electron Energy =                -122.2821308133585205
    Two-Electron Energy =                  37.4560294996690359
    Total Energy =                        -76.0536673675597399
 Dipole X            :        -40.7804824           41.4040544            0.6235719
 Dipole Y            :         -1.2791346            1.6970667            0.4179321
 Dipole Z            :        -14.8847356           15.1920828            0.3073472
 Magnitude           :                                                    0.8111544
  Basis Set: (AUG-CC-PVTZ AUX)
    Blend: AUG-CC-PVTZ-RI + DEF2-QZVPP-RI
	 Reference Energy          =     -76.0536673675597399 [Eh]
	 Singles Energy            =      -0.0000000000000000 [Eh]
	 Same-Spin Energy          =      -0.0693043721152249 [Eh]
	 Opposite-Spin Energy      =      -0.2187164900428190 [Eh]
	 Correlation Energy        =      -0.2880208621580439 [Eh]
	 Total Energy              =     -76.3416882297177892 [Eh]

	 ================> DF-SCS-MP2 Energies <==================
	-----------------------------------------------------------
	 SCS Same-Spin Scale       =       0.3333333333333333 [-]
	 SCS Opposite-Spin Scale   =       1.2000000000000000 [-]
	 SCS Same-Spin Energy      =      -0.0231014573717416 [Eh]
	 SCS Opposite-Spin Energy  =      -0.2624597880513828 [Eh]
	 SCS Correlation Energy    =      -0.2855612454231244 [Eh]
	 SCS Total Energy          =     -76.3392286129828648 [Eh]
	-----------------------------------------------------------

*** Psi4 exiting successfully. Buy a developer a beer!
