                               Psi4 1.9 release

  ==> Input File <==

--------------------------------------------------------------------------
MEMORY 60 GB

molecule dimer {
1 1
Na     0.000000     0.000000     0.000000
--
0 1
O      1.404702    -0.485518    -1.896445
H      1.038745    -1.321937    -2.102680
H      1.307717     0.036148    -2.685769
O     -1.779006    -0.081116    -1.451137
H     -1.861816     0.166913    -2.371670
H     -2.628732     0.137084    -0.991427
O     -0.705629    -1.885287     0.969773
H     -1.640917    -1.977294     0.921356
H     -0.341296    -2.802783     1.169197
O     -0.020124     2.263140    -0.701517
H      0.750889     2.324265    -1.265418
H     -0.815691     2.319251    -1.249151

units ang
no_reorient
no_com
symmetry c1
}

set {
basis        aug-cc-pVTZ
scf_type     df
}

energy("mp2", bsse_type="cp")
--------------------------------------------------------------------------

                               Psi4 1.9 release
    Molecular point group: c1
  Charge       = 0
  Multiplicity = 1
  Basis Set: AUG-CC-PVTZ
    Blend: AUG-CC-PVTZ
  Basis Set: (AUG-CC-PVTZ AUX)
    Blend: AUG-CC-PVTZ-JKFIT + DEF2-UNIVERSAL-JKFIT
  @DF-RHF Final Energy:  -304.22121837377631
    Total Energy =                       -304.2212183737763098
 Dipole X            :         23.2514272          -24.5504847           -1.2990575
 Dipole Y            :          4.4085575           -4.9673360           -0.5587785
 Dipole Z            :         61.2535059          -62.7581259           -1.5046200
 Magnitude           :                                                    2.0648644
  Basis Set: (AUG-CC-PVTZ AUX)
    Blend: AUG-CC-PVTZ-RI + DEF2-QZVPP-RI
	 Reference Energy          =    -304.2212183737763098 [Eh]
	 Singles Energy            =      -0.0000000000000000 [Eh]
	 Same-Spin Energy          =      -0.2761953925034246 [Eh]
	 Opposite-Spin Energy      =      -0.8670425069078866 [Eh]
	 Correlation Energy        =      -1.1432378994113113 [Eh]
	 Total Energy              =    -305.3644562731876135 [Eh]
	 SCS Total Energy          =    -305.3537345129002460 [Eh]
                               Psi4 1.9 release
    Molecular point group: c1
  Multiplicity = 1
  Basis Set: AUG-CC-PVTZ
    Blend: AUG-CC-PVTZ
  Basis Set: (AUG-CC-PVTZ AUX)
    Blend: AUG-CC-PVTZ-JKFIT + DEF2-UNIVERSAL-JKFIT
  @DF-RHF Final Energy:  -161.67608560424512
    Total Energy =                       -161.6760856042451167
  Basis Set: (AUG-CC-PVTZ AUX)
	 Singles Energy            =      -0.0000000000000000 [Eh]
	 Same-Spin Energy          =      -0.0056746603806756 [Eh]
	 Opposite-Spin Energy      =      -0.0176910300327297 [Eh]
	 Correlation Energy        =      -0.0233656904134054 [Eh]
	 Total Energy              =    -161.6994512946585303 [Eh]
	 SCS Total Energy          =    -161.6992063937446176 [Eh]
                               Psi4 1.9 release
    Molecular point group: c1

    Geometry (in Bohr), charge = 1, multiplicity = 1:

       Center              X                  Y                   Z               Mass
    ------------   -----------------  -----------------  -----------------  -----------------
         NA           0.000000000000     0.000000000000     0.000000000000    22.989769282000
         O            2.654502067883    -0.917496048980    -3.583761661994    15.994914619570
         H            1.962943564189    -2.498098885109    -3.973489329478     1.007825032230
         H            2.471226979605     0.068309819983    -5.075367846245     1.007825032230
         O           -3.361834115546    -0.153287024393    -2.742251500518    15.994914619570
         H           -3.518322335995     0.315419856779    -4.481806759965     1.007825032230
         H           -4.967583537227     0.259051216182    -1.873525503384     1.007825032230
         O           -1.333445556181    -3.562676097886     1.832605373864    15.994914619570
         H           -3.100883724608    -3.736544129511     1.741110504047     1.007825032230
         H           -0.644955967714    -5.296492259089     2.209462116707     1.007825032230
         O           -0.038028848549     4.276714783569    -1.325675002353    15.994914619570
         H            1.418974560619     4.392224292987    -2.391293454225     1.007825032230
         H           -1.541432593001     4.382749206194    -2.360553279342     1.007825032230

  Charge       = 1
  Multiplicity = 1
  Basis Set: AUG-CC-PVTZ
    Blend: AUG-CC-PVTZ
  Basis Set: (AUG-CC-PVTZ AUX)
    Blend: AUG-CC-PVTZ-JKFIT + DEF2-UNIVERSAL-JKFIT

    Orbital Energies [Eh]
    ---------------------

    Doubly Occupied:

       1A    -40.580380     2A    -20.753611     3A    -20.742097
       4A    -20.732665     5A    -20.728637     6A     -2.903870
       7A     -1.629262     8A     -1.628837     9A     -1.628306
      10A     -1.534390    11A     -1.531063    12A     -1.522220
      13A     -1.514216    14A     -0.906814    15A     -0.898797
      16A     -0.888565    17A     -0.888390    18A     -0.781050
      19A     -0.769454    20A     -0.763062    21A     -0.746763
      22A     -0.708587    23A     -0.689698    24A     -0.685862
      25A     -0.672076

  @DF-RHF Final Energy:  -466.01018293271545

   => Energetics <=

    Nuclear Repulsion Energy =            222.4591955183507253
    One-Electron Energy =               -1083.2814028550924377
    Two-Electron Energy =                 394.8120244040262605
    Total Energy =                       -466.0101829327154519
 Dipole X            :         23.0528692          -24.5504847           -1.4976155
 Dipole Y            :          4.3333709           -4.9673360           -0.6339651
 Dipole Z            :         60.8501455          -62.7581259           -1.9079804
 Magnitude           :                                                    2.5070207
  Basis Set: (AUG-CC-PVTZ AUX)
    Blend: AUG-CC-PVTZ-RI + DEF2-QZVPP-RI
	 Reference Energy          =    -466.0101829327154519 [Eh]
	 Singles Energy            =      -0.0000000000000000 [Eh]
	 Same-Spin Energy          =      -0.2808435805856288 [Eh]
	 Opposite-Spin Energy      =      -0.8793785515183349 [Eh]
	 Correlation Energy        =      -1.1602221321039636 [Eh]
	 Total Energy              =    -467.1704050648194197 [Eh]

	 ================> DF-SCS-MP2 Energies <==================
	-----------------------------------------------------------
	 SCS Same-Spin Scale       =       0.3333333333333333 [-]
	 SCS Opposite-Spin Scale   =       1.2000000000000000 [-]
	 SCS Same-Spin Energy      =      -0.0936145268618763 [Eh]
	 SCS Opposite-Spin Energy  =      -1.0552542618220018 [Eh]
	 SCS Correlation Energy    =      -1.1488687886838780 [Eh]
	 SCS Total Energy          =    -467.1590517213993508 [Eh]
	-----------------------------------------------------------

*** Psi4 exiting successfully. Buy a developer a beer!
