                               Psi4 1.8.2 release

  ==> Input File <==

--------------------------------------------------------------------------
MEMORY 60 GB

molecule dimer {
0 1
Gh(Na)     0.000000     0.000000     0.000000
Gh(O)      2.442818    -0.818335    -0.280039
Gh(H)      2.662756    -1.105563    -1.187076
Gh(H)      3.208163    -0.351618     0.190231
O         -0.058577    -2.340401    -0.318056
H         -0.112691    -2.261522    -1.308213
H          0.766812    -2.877198    -0.136880
Gh(O)      0.863805     0.451918     1.955806
Gh(H)      0.128582     0.541557     2.595334
Gh(H)      1.459083    -0.217450     2.287615
Gh(O)     -0.118006     0.999042    -2.213928
Gh(H)     -0.295160     0.203419    -2.715433
Gh(H)     -0.977633     1.399250    -1.948543
Gh(O)     -2.250881    -0.512047    -0.293423
Gh(H)     -2.775036    -0.153755     0.439369
Gh(H)     -2.575489    -1.386135    -0.545203

units ang
no_reorient
no_com
symmetry c1
}

set {
basis        aug-cc-pVTZ
scf_type     df
}

energy("mp2")
--------------------------------------------------------------------------

    Molecular point group: c1

    Geometry (in Angstrom), charge = 0, multiplicity = 1:

       Center              X                  Y                   Z               Mass
    ------------   -----------------  -----------------  -----------------  -----------------
      Gh(NA)          0.000000000000     0.000000000000     0.000000000000    22.989769282000
      Gh(O)           2.442818000000    -0.818335000000    -0.280039000000    15.994914619570
      Gh(H)           2.662756000000    -1.105563000000    -1.187076000000     1.007825032230
      Gh(H)           3.208163000000    -0.351618000000     0.190231000000     1.007825032230
         O           -0.058577000000    -2.340401000000    -0.318056000000    15.994914619570
         H           -0.112691000000    -2.261522000000    -1.308213000000     1.007825032230
         H            0.766812000000    -2.877198000000    -0.136880000000     1.007825032230
      Gh(O)           0.863805000000     0.451918000000     1.955806000000    15.994914619570
      Gh(H)           0.128582000000     0.541557000000     2.595334000000     1.007825032230
      Gh(H)           1.459083000000    -0.217450000000     2.287615000000     1.007825032230
      Gh(O)          -0.118006000000     0.999042000000    -2.213928000000    15.994914619570
      Gh(H)          -0.295160000000     0.203419000000    -2.715433000000     1.007825032230
      Gh(H)          -0.977633000000     1.399250000000    -1.948543000000     1.007825032230
      Gh(O)          -2.250881000000    -0.512047000000    -0.293423000000    15.994914619570
      Gh(H)          -2.775036000000    -0.153755000000     0.439369000000     1.007825032230
      Gh(H)          -2.575489000000    -1.386135000000    -0.545203000000     1.007825032230

  Charge       = 0
  Multiplicity = 1
  Basis Set: AUG-CC-PVTZ
    Blend: AUG-CC-PVTZ
  Basis Set: (AUG-CC-PVTZ AUX)
    Blend: AUG-CC-PVTZ-JKFIT + DEF2-UNIVERSAL-JKFIT

    Orbital Energies [Eh]
    ---------------------

    Doubly Occupied:

       1A    -20.573444     2A     -1.332770     3A     -0.697741
       4A     -0.575074     5A     -0.506817

  @DF-RHF Final Energy:   -76.05507674999150

   => Energetics <=

    Nuclear Repulsion Energy =              8.8174129238470442
    One-Electron Energy =                -122.3732840188902884
    Two-Electron Energy =                  37.5007943450517445
    Total Energy =                        -76.0550767499914997
 Dipole X            :          0.1502694            0.3505536            0.5008231
 Dipole Y            :         44.7950189          -45.0925087           -0.2974898
 Dipole Z            :          7.0123837           -7.5391399           -0.5267562
 Magnitude           :                                                    0.7853636
  Basis Set: (AUG-CC-PVTZ AUX)
    Blend: AUG-CC-PVTZ-RI + DEF2-QZVPP-RI
	 Reference Energy          =     -76.0550767499914997 [Eh]
	 Singles Energy            =      -0.0000000000000000 [Eh]
	 Same-Spin Energy          =      -0.0691253821215168 [Eh]
	 Opposite-Spin Energy      =      -0.2181989440404324 [Eh]
	 Correlation Energy        =      -0.2873243261619492 [Eh]
	 Total Energy              =     -76.3424010761534504 [Eh]

	 ================> DF-SCS-MP2 Energies <==================
	-----------------------------------------------------------
	 SCS Same-Spin Scale       =       0.3333333333333333 [-]
	 SCS Opposite-Spin Scale   =       1.2000000000000000 [-]
	 SCS Same-Spin Energy      =      -0.0230417940405056 [Eh]
	 SCS Opposite-Spin Energy  =      -0.2618387328485188 [Eh]
	 SCS Correlation Energy    =      -0.2848805268890244 [Eh]
	 SCS Total Energy          =     -76.3399572768805257 [Eh]
	-----------------------------------------------------------

*** Psi4 exiting successfully. Buy a developer a beer!
