                               Psi4 1.8.2 release

  ==> Input File <==

--------------------------------------------------------------------------
MEMORY 60 GB

molecule dimer {
1 1
Na         0.000000     0.000000     0.000000
O          0.708023    -1.342751    -1.859325
H          0.651312    -1.530173    -2.824257
H          0.765287    -2.234127    -1.494177
O          1.966844     1.359311     0.168930
H          2.774677     1.014819     0.464956
H          2.154278     2.048941    -0.513915
O          1.251839    -1.361885     1.616700
H          1.002389    -2.318327     1.850238
H          2.110395    -1.505860     1.250054
O         -1.064373     1.917554    -1.138065
H         -1.512374     2.639764    -0.689674
H         -1.757728     1.278248    -1.399230
O         -2.229190    -0.753886     0.938174
H         -2.626923    -1.541755     0.554601
H         -2.610605     0.056120     0.627425

units ang
no_reorient
no_com
symmetry c1
}

set {
basis        aug-cc-pVTZ
scf_type     df
}

energy("mp2")
--------------------------------------------------------------------------

    Molecular point group: c1

    Geometry (in Angstrom), charge = 1, multiplicity = 1:

       Center              X                  Y                   Z               Mass
    ------------   -----------------  -----------------  -----------------  -----------------
         NA           0.000000000000     0.000000000000     0.000000000000    22.989769282000
         O            0.708023000000    -1.342751000000    -1.859325000000    15.994914619570
         H            0.651312000000    -1.530173000000    -2.824257000000     1.007825032230
         H            0.765287000000    -2.234127000000    -1.494177000000     1.007825032230
         O            1.966844000000     1.359311000000     0.168930000000    15.994914619570
         H            2.774677000000     1.014819000000     0.464956000000     1.007825032230
         H            2.154278000000     2.048941000000    -0.513915000000     1.007825032230
         O            1.251839000000    -1.361885000000     1.616700000000    15.994914619570
         H            1.002389000000    -2.318327000000     1.850238000000     1.007825032230
         H            2.110395000000    -1.505860000000     1.250054000000     1.007825032230
         O           -1.064373000000     1.917554000000    -1.138065000000    15.994914619570
         H           -1.512374000000     2.639764000000    -0.689674000000     1.007825032230
         H           -1.757728000000     1.278248000000    -1.399230000000     1.007825032230
         O           -2.229190000000    -0.753886000000     0.938174000000    15.994914619570
         H           -2.626923000000    -1.541755000000     0.554601000000     1.007825032230
         H           -2.610605000000     0.056120000000     0.627425000000     1.007825032230

  Charge       = 1
  Multiplicity = 1
  Basis Set: AUG-CC-PVTZ
    Blend: AUG-CC-PVTZ
  Basis Set: (AUG-CC-PVTZ AUX)
    Blend: AUG-CC-PVTZ-JKFIT + DEF2-UNIVERSAL-JKFIT

    Orbital Energies [Eh]
    ---------------------

    Doubly Occupied:

       1A    -40.569623     2A    -20.734883     3A    -20.732194
       4A    -20.726515     5A    -20.725722     6A    -20.708818
       7A     -2.890354     8A     -1.615424     9A     -1.614827
      10A     -1.613770    11A     -1.514029    12A     -1.513007
      13A     -1.511521    14A     -1.503039    15A     -1.497451
      16A     -0.900055    17A     -0.879996    18A     -0.871366
      19A     -0.868309    20A     -0.850687    21A     -0.765514
      22A     -0.754163    23A     -0.747769    24A     -0.734392
      25A     -0.731616    26A     -0.682871    27A     -0.678260
      28A     -0.672521    29A     -0.668978    30A     -0.657277

  @DF-RHF Final Energy:  -542.07988224758071

   => Energetics <=

    Nuclear Repulsion Energy =            296.5434023780847497
    One-Electron Energy =               -1335.3766672700544405
    Two-Electron Energy =                 496.7533826443890916
    Total Energy =                       -542.0798822475805991
 Dipole X            :        -11.5107822           11.3683127           -0.1424695
 Dipole Y            :          5.5846777           -6.7002243           -1.1155466
 Dipole Z            :          7.1046023           -8.2442458           -1.1396435
 Magnitude           :                                                    1.6011025
  Basis Set: (AUG-CC-PVTZ AUX)
    Blend: AUG-CC-PVTZ-RI + DEF2-QZVPP-RI
	 Reference Energy          =    -542.0798822475807128 [Eh]
	 Singles Energy            =      -0.0000000000000000 [Eh]
	 Same-Spin Energy          =      -0.3505819276707314 [Eh]
	 Opposite-Spin Energy      =      -1.0985406561729889 [Eh]
	 Correlation Energy        =      -1.4491225838437203 [Eh]
	 Total Energy              =    -543.5290048314244586 [Eh]

	 ================> DF-SCS-MP2 Energies <==================
	-----------------------------------------------------------
	 SCS Same-Spin Scale       =       0.3333333333333333 [-]
	 SCS Opposite-Spin Scale   =       1.2000000000000000 [-]
	 SCS Same-Spin Energy      =      -0.1168606425569104 [Eh]
	 SCS Opposite-Spin Energy  =      -1.3182487874075866 [Eh]
	 SCS Correlation Energy    =      -1.4351094299644971 [Eh]
	 SCS Total Energy          =    -543.5149916775452539 [Eh]
	-----------------------------------------------------------

*** Psi4 exiting successfully. Buy a developer a beer!
