                               Psi4 1.8.2 release

  ==> Input File <==

--------------------------------------------------------------------------
MEMORY 60 GB

molecule dimer {
0 1
Gh(Na)     0.000000     0.000000     0.000000
Gh(O)     -1.365784     1.888773     0.128336
Gh(H)     -1.127056     2.523638    -0.548341
Gh(H)     -2.084338     1.268663    -0.087383
O          1.933277     1.190155     1.145330
H          2.694356     1.300756     0.519806
H          1.814910     2.060976     1.520495
Gh(O)     -0.418772    -0.363065    -2.238699
Gh(H)     -1.093240     0.117831    -2.640346
Gh(H)      0.385868    -0.155367    -2.718085
Gh(O)     -1.360209    -0.721731     1.772667
Gh(H)     -0.830785    -1.124783     2.509665
Gh(H)     -1.649374     0.155797     2.059176
Gh(O)      1.649637    -1.718358    -0.019721
Gh(H)      1.060619    -2.517490    -0.072430
Gh(H)      2.004692    -1.689554    -0.966746

units ang
no_reorient
no_com
symmetry c1
}

set {
basis        aug-cc-pVTZ
scf_type     df
}

energy("mp2")
--------------------------------------------------------------------------

    Molecular point group: c1

    Geometry (in Angstrom), charge = 0, multiplicity = 1:

       Center              X                  Y                   Z               Mass
    ------------   -----------------  -----------------  -----------------  -----------------
      Gh(NA)          0.000000000000     0.000000000000     0.000000000000    22.989769282000
      Gh(O)          -1.365784000000     1.888773000000     0.128336000000    15.994914619570
      Gh(H)          -1.127056000000     2.523638000000    -0.548341000000     1.007825032230
      Gh(H)          -2.084338000000     1.268663000000    -0.087383000000     1.007825032230
         O            1.933277000000     1.190155000000     1.145330000000    15.994914619570
         H            2.694356000000     1.300756000000     0.519806000000     1.007825032230
         H            1.814910000000     2.060976000000     1.520495000000     1.007825032230
      Gh(O)          -0.418772000000    -0.363065000000    -2.238699000000    15.994914619570
      Gh(H)          -1.093240000000     0.117831000000    -2.640346000000     1.007825032230
      Gh(H)           0.385868000000    -0.155367000000    -2.718085000000     1.007825032230
      Gh(O)          -1.360209000000    -0.721731000000     1.772667000000    15.994914619570
      Gh(H)          -0.830785000000    -1.124783000000     2.509665000000     1.007825032230
      Gh(H)          -1.649374000000     0.155797000000     2.059176000000     1.007825032230
      Gh(O)           1.649637000000    -1.718358000000    -0.019721000000    15.994914619570
      Gh(H)           1.060619000000    -2.517490000000    -0.072430000000     1.007825032230
      Gh(H)           2.004692000000    -1.689554000000    -0.966746000000     1.007825032230

  Charge       = 0
  Multiplicity = 1
  Basis Set: AUG-CC-PVTZ
    Blend: AUG-CC-PVTZ
  Basis Set: (AUG-CC-PVTZ AUX)
    Blend: AUG-CC-PVTZ-JKFIT + DEF2-UNIVERSAL-JKFIT

    Orbital Energies [Eh]
    ---------------------

    Doubly Occupied:

       1A    -20.569993     2A     -1.345935     3A     -0.707979
       4A     -0.582694     5A     -0.509201

  @DF-RHF Final Energy:   -76.05857419058164

   => Energetics <=

    Nuclear Repulsion Energy =              9.0457127150745507
    One-Electron Energy =                -122.7769657850715532
    Two-Electron Energy =                  37.6726788794153649
    Total Energy =                        -76.0585741905816235
 Dipole X            :        -37.3292686           37.7481902            0.4189216
 Dipole Y            :        -23.6972157           24.3452888            0.6480731
 Dipole Z            :        -21.3307292           21.1704903           -0.1602390
 Magnitude           :                                                    0.7881438
  Basis Set: (AUG-CC-PVTZ AUX)
    Blend: AUG-CC-PVTZ-RI + DEF2-QZVPP-RI
	 Reference Energy          =     -76.0585741905816377 [Eh]
	 Singles Energy            =      -0.0000000000000000 [Eh]
	 Same-Spin Energy          =      -0.0686920266390008 [Eh]
	 Opposite-Spin Energy      =      -0.2166353716393678 [Eh]
	 Correlation Energy        =      -0.2853273982783686 [Eh]
	 Total Energy              =     -76.3439015888600068 [Eh]

	 ================> DF-SCS-MP2 Energies <==================
	-----------------------------------------------------------
	 SCS Same-Spin Scale       =       0.3333333333333333 [-]
	 SCS Opposite-Spin Scale   =       1.2000000000000000 [-]
	 SCS Same-Spin Energy      =      -0.0228973422130003 [Eh]
	 SCS Opposite-Spin Energy  =      -0.2599624459672413 [Eh]
	 SCS Correlation Energy    =      -0.2828597881802416 [Eh]
	 SCS Total Energy          =     -76.3414339787618843 [Eh]
	-----------------------------------------------------------

*** Psi4 exiting successfully. Buy a developer a beer!
