                               Psi4 1.8.2 release

  ==> Input File <==

--------------------------------------------------------------------------
MEMORY 60 GB

molecule dimer {
1 1
Na         0.000000     0.000000     0.000000
Gh(O)      0.573445     0.522482    -2.425718
Gh(H)      0.565546    -0.283950    -2.909351
Gh(H)     -0.117345     1.111605    -2.808292
Gh(O)     -1.679400    -0.610316     1.453133
Gh(H)     -1.385658    -0.169377     2.284592
Gh(H)     -1.324565    -1.507257     1.282268
Gh(O)      0.799290     2.100325     0.839463
Gh(H)      1.724281     2.237643     0.911781
Gh(H)      0.337870     2.956704     0.693773
Gh(O)      1.544445    -1.816388     0.444477
Gh(H)      2.490067    -1.614678     0.281276
Gh(H)      1.362461    -2.682268     0.137746

units ang
no_reorient
no_com
symmetry c1
}

set {
basis        aug-cc-pVTZ
scf_type     df
}

energy("mp2")
--------------------------------------------------------------------------

    Molecular point group: c1

    Geometry (in Angstrom), charge = 1, multiplicity = 1:

       Center              X                  Y                   Z               Mass
    ------------   -----------------  -----------------  -----------------  -----------------
         NA           0.000000000000     0.000000000000     0.000000000000    22.989769282000
      Gh(O)           0.573445000000     0.522482000000    -2.425718000000    15.994914619570
      Gh(H)           0.565546000000    -0.283950000000    -2.909351000000     1.007825032230
      Gh(H)          -0.117345000000     1.111605000000    -2.808292000000     1.007825032230
      Gh(O)          -1.679400000000    -0.610316000000     1.453133000000    15.994914619570
      Gh(H)          -1.385658000000    -0.169377000000     2.284592000000     1.007825032230
      Gh(H)          -1.324565000000    -1.507257000000     1.282268000000     1.007825032230
      Gh(O)           0.799290000000     2.100325000000     0.839463000000    15.994914619570
      Gh(H)           1.724281000000     2.237643000000     0.911781000000     1.007825032230
      Gh(H)           0.337870000000     2.956704000000     0.693773000000     1.007825032230
      Gh(O)           1.544445000000    -1.816388000000     0.444477000000    15.994914619570
      Gh(H)           2.490067000000    -1.614678000000     0.281276000000     1.007825032230
      Gh(H)           1.362461000000    -2.682268000000     0.137746000000     1.007825032230

  Charge       = 1
  Multiplicity = 1
  Basis Set: AUG-CC-PVTZ
    Blend: AUG-CC-PVTZ
  Basis Set: (AUG-CC-PVTZ AUX)
    Blend: AUG-CC-PVTZ-JKFIT + DEF2-UNIVERSAL-JKFIT

    Orbital Energies [Eh]
    ---------------------

    Doubly Occupied:

       1A    -40.760759     2A     -3.073946     3A     -1.797290
       4A     -1.797272     5A     -1.797240

  @DF-RHF Final Energy:  -161.67608455395251

   => Energetics <=

    Nuclear Repulsion Energy =              0.0000000000000000
    One-Electron Energy =                -224.8991572783632193
    Two-Electron Energy =                  63.2230727244107271
    Total Energy =                       -161.6760845539524780
 Dipole X            :          0.0000065            0.0000000            0.0000065
 Dipole Y            :         -0.0000187            0.0000000           -0.0000187
 Dipole Z            :          0.0000214            0.0000000            0.0000214
 Magnitude           :                                                    0.0000291
  Basis Set: (AUG-CC-PVTZ AUX)
    Blend: AUG-CC-PVTZ-RI + DEF2-QZVPP-RI
	 Reference Energy          =    -161.6760845539525064 [Eh]
	 Singles Energy            =      -0.0000000000000000 [Eh]
	 Same-Spin Energy          =      -0.0047394794320865 [Eh]
	 Opposite-Spin Energy      =      -0.0153000718235721 [Eh]
	 Correlation Energy        =      -0.0200395512556586 [Eh]
	 Total Energy              =    -161.6961241052081562 [Eh]

	 ================> DF-SCS-MP2 Energies <==================
	-----------------------------------------------------------
	 SCS Same-Spin Scale       =       0.3333333333333333 [-]
	 SCS Opposite-Spin Scale   =       1.2000000000000000 [-]
	 SCS Same-Spin Energy      =      -0.0015798264773622 [Eh]
	 SCS Opposite-Spin Energy  =      -0.0183600861882865 [Eh]
	 SCS Correlation Energy    =      -0.0199399126656487 [Eh]
	 SCS Total Energy          =    -161.6960244666181552 [Eh]
	-----------------------------------------------------------

*** Psi4 exiting successfully. Buy a developer a beer!
