                               Psi4 1.8.2 release

  ==> Input File <==

--------------------------------------------------------------------------
MEMORY 60 GB

molecule dimer {
0 1
Gh(Na)     0.000000     0.000000     0.000000
O          0.659986    -2.040507     0.606036
H          0.158925    -2.823573     0.524427
H          1.510866    -2.288362     0.337845
Gh(O)      2.115452     0.634802     0.818018
Gh(H)      2.351575     1.571131     0.886082
Gh(H)      2.064804     0.316408     1.680790
Gh(O)     -2.136022     0.705726    -0.204914
Gh(H)     -2.636726     0.821809    -1.022408
Gh(H)     -2.660104     0.011381     0.299743

units ang
no_reorient
no_com
symmetry c1
}

set {
basis        aug-cc-pVTZ
scf_type     df
}

energy("mp2")
--------------------------------------------------------------------------

    Molecular point group: c1

    Geometry (in Angstrom), charge = 0, multiplicity = 1:

       Center              X                  Y                   Z               Mass
    ------------   -----------------  -----------------  -----------------  -----------------
      Gh(NA)          0.000000000000     0.000000000000     0.000000000000    22.989769282000
         O            0.659986000000    -2.040507000000     0.606036000000    15.994914619570
         H            0.158925000000    -2.823573000000     0.524427000000     1.007825032230
         H            1.510866000000    -2.288362000000     0.337845000000     1.007825032230
      Gh(O)           2.115452000000     0.634802000000     0.818018000000    15.994914619570
      Gh(H)           2.351575000000     1.571131000000     0.886082000000     1.007825032230
      Gh(H)           2.064804000000     0.316408000000     1.680790000000     1.007825032230
      Gh(O)          -2.136022000000     0.705726000000    -0.204914000000    15.994914619570
      Gh(H)          -2.636726000000     0.821809000000    -1.022408000000     1.007825032230
      Gh(H)          -2.660104000000     0.011381000000     0.299743000000     1.007825032230

  Charge       = 0
  Multiplicity = 1
  Basis Set: AUG-CC-PVTZ
    Blend: AUG-CC-PVTZ
  Basis Set: (AUG-CC-PVTZ AUX)
    Blend: AUG-CC-PVTZ-JKFIT + DEF2-UNIVERSAL-JKFIT

    Orbital Energies [Eh]
    ---------------------

    Doubly Occupied:

       1A    -20.562162     2A     -1.368678     3A     -0.732379
       4A     -0.590998     5A     -0.512834

  @DF-RHF Final Energy:   -76.06078456775954

   => Energetics <=

    Nuclear Repulsion Energy =              9.4693429089422203
    One-Electron Energy =                -123.5261502487004890
    Two-Electron Energy =                  37.9960227719987245
    Total Energy =                        -76.0607845677595407
 Dipole X            :        -12.8952625           13.1329900            0.2377275
 Dipole Y            :         39.8117032          -40.5081522           -0.6964491
 Dipole Z            :        -11.0277557           10.7913944           -0.2363613
 Magnitude           :                                                    0.7729310
  Basis Set: (AUG-CC-PVTZ AUX)
    Blend: AUG-CC-PVTZ-RI + DEF2-QZVPP-RI
	 Reference Energy          =     -76.0607845677595407 [Eh]
	 Singles Energy            =      -0.0000000000000000 [Eh]
	 Same-Spin Energy          =      -0.0679217986415855 [Eh]
	 Opposite-Spin Energy      =      -0.2142703100967782 [Eh]
	 Correlation Energy        =      -0.2821921087383636 [Eh]
	 Total Energy              =     -76.3429766764978979 [Eh]

	 ================> DF-SCS-MP2 Energies <==================
	-----------------------------------------------------------
	 SCS Same-Spin Scale       =       0.3333333333333333 [-]
	 SCS Opposite-Spin Scale   =       1.2000000000000000 [-]
	 SCS Same-Spin Energy      =      -0.0226405995471952 [Eh]
	 SCS Opposite-Spin Energy  =      -0.2571243721161339 [Eh]
	 SCS Correlation Energy    =      -0.2797649716633290 [Eh]
	 SCS Total Energy          =     -76.3405495394228666 [Eh]
	-----------------------------------------------------------

*** Psi4 exiting successfully. Buy a developer a beer!
