                               Psi4 1.9 release

  ==> Input File <==

--------------------------------------------------------------------------
MEMORY 60 GB

molecule dimer {
1 1
Na     0.000000     0.000000     0.000000
--
0 1
O      0.327213    -1.859611     1.348713
H      0.542964    -2.554233     0.688897
H     -0.548316    -2.057300     1.663678
O      1.960777     1.106108    -0.764745
H      1.831324     2.060066    -0.784795
H      2.497879     1.060595    -1.621372
O     -0.358398    -1.218556    -1.863096
H      0.174529    -1.439270    -2.616413
H     -0.633326    -2.005493    -1.343861
O     -1.731597     1.753884    -0.356645
H     -1.112098     2.484718    -0.459952
H     -1.915209     1.784048     0.600745
O      0.225207     1.568908     1.853126
H      0.455797     0.843306     2.428642
H      0.938072     2.204615     1.866753

units ang
no_reorient
no_com
symmetry c1
}

set {
basis        aug-cc-pVTZ
scf_type     df
}

energy("mp2", bsse_type="cp")
--------------------------------------------------------------------------

                               Psi4 1.9 release
    Molecular point group: c1
  Charge       = 0
  Multiplicity = 1
  Basis Set: AUG-CC-PVTZ
    Blend: AUG-CC-PVTZ
  Basis Set: (AUG-CC-PVTZ AUX)
    Blend: AUG-CC-PVTZ-JKFIT + DEF2-UNIVERSAL-JKFIT
  @DF-RHF Final Energy:  -380.27652869372412
    Total Energy =                       -380.2765286937241171
 Dipole X            :         -9.6487539           10.6150301            0.9662761
 Dipole Y            :        -25.2477620           24.9196597           -0.3281024
 Dipole Z            :         -4.0315979            4.0839741            0.0523761
 Magnitude           :                                                    1.0218043
  Basis Set: (AUG-CC-PVTZ AUX)
    Blend: AUG-CC-PVTZ-RI + DEF2-QZVPP-RI
	 Reference Energy          =    -380.2765286937241171 [Eh]
	 Singles Energy            =      -0.0000000000000000 [Eh]
	 Same-Spin Energy          =      -0.3462190790650881 [Eh]
	 Opposite-Spin Energy      =      -1.0861756426489206 [Eh]
	 Correlation Energy        =      -1.4323947217140087 [Eh]
	 Total Energy              =    -381.7089234154381074 [Eh]
	 SCS Total Energy          =    -381.6953458245911861 [Eh]
                               Psi4 1.9 release
    Molecular point group: c1
  Multiplicity = 1
  Basis Set: AUG-CC-PVTZ
    Blend: AUG-CC-PVTZ
  Basis Set: (AUG-CC-PVTZ AUX)
    Blend: AUG-CC-PVTZ-JKFIT + DEF2-UNIVERSAL-JKFIT
  @DF-RHF Final Energy:  -161.67609310007222
    Total Energy =                       -161.6760931000721939
  Basis Set: (AUG-CC-PVTZ AUX)
	 Singles Energy            =      -0.0000000000000000 [Eh]
	 Same-Spin Energy          =      -0.0061459855382317 [Eh]
	 Opposite-Spin Energy      =      -0.0190096358419308 [Eh]
	 Correlation Energy        =      -0.0251556213801625 [Eh]
	 Total Energy              =    -161.7012487214523730 [Eh]
	 SCS Total Energy          =    -161.7009533249286051 [Eh]
                               Psi4 1.9 release
    Molecular point group: c1

    Geometry (in Bohr), charge = 1, multiplicity = 1:

       Center              X                  Y                   Z               Mass
    ------------   -----------------  -----------------  -----------------  -----------------
         NA           0.000000000000     0.000000000000     0.000000000000    22.989769282000
         O            0.618342954689    -3.514155489889     2.548698191845    15.994914619570
         H            1.026053255983    -4.826800830607     1.301826658650     1.007825032230
         H           -1.036167070207    -3.887733557904     3.143895780949     1.007825032230
         O            3.705331523097     2.090241185178    -1.445158605813    15.994914619570
         H            3.460700806978     3.892960540367    -1.483047614629     1.007825032230
         H            4.720307204532     2.004234080030    -3.063949027486     1.007825032230
         O           -0.677274063912    -2.302737108533    -3.520741185436    15.994914619570
         H            0.329812010950    -2.719826120588    -4.944304001087     1.007825032230
         H           -1.196812688132    -3.789832516523    -2.539529240684     1.007825032230
         O           -3.272244089664     3.314360415822    -0.673961374014    15.994914619570
         H           -2.101560644669     4.695436518995    -0.869183310857     1.007825032230
         H           -3.619220483012     3.371362114671     1.135243521238     1.007825032230
         O            0.425579551536     2.964806436040     3.501900615965    15.994914619570
         H            0.861331498805     1.593617379955     4.589468236784     1.007825032230
         H            1.772699165960     4.166118562076     3.527651913877     1.007825032230

  Charge       = 1
  Multiplicity = 1
  Basis Set: AUG-CC-PVTZ
    Blend: AUG-CC-PVTZ
  Basis Set: (AUG-CC-PVTZ AUX)
    Blend: AUG-CC-PVTZ-JKFIT + DEF2-UNIVERSAL-JKFIT

    Orbital Energies [Eh]
    ---------------------

    Doubly Occupied:

       1A    -40.567272     2A    -20.752849     3A    -20.739802
       4A    -20.734665     5A    -20.730650     6A    -20.708689
       7A     -2.891367     8A     -1.617689     9A     -1.616612
      10A     -1.615344    11A     -1.536407    12A     -1.522615
      13A     -1.517540    14A     -1.512641    15A     -1.490916
      16A     -0.906354    17A     -0.900394    18A     -0.896048
      19A     -0.852124    20A     -0.846368    21A     -0.776354
      22A     -0.771805    23A     -0.761896    24A     -0.749521
      25A     -0.724494    26A     -0.705928    27A     -0.685184
      28A     -0.683536    29A     -0.678512    30A     -0.653849

  @DF-RHF Final Energy:  -542.07056518670061

   => Energetics <=

    Nuclear Repulsion Energy =            306.8037336044786798
    One-Electron Energy =               -1355.4537432155489114
    Two-Electron Energy =                 506.5794444243696830
    Total Energy =                       -542.0705651867006054
 Dipole X            :         -9.5391656           10.6150301            1.0758645
 Dipole Y            :        -25.1487138           24.9196597           -0.2290542
 Dipole Z            :         -4.0730474            4.0839741            0.0109266
 Magnitude           :                                                    1.1000316
  Basis Set: (AUG-CC-PVTZ AUX)
    Blend: AUG-CC-PVTZ-RI + DEF2-QZVPP-RI
	 Reference Energy          =    -542.0705651867006054 [Eh]
	 Singles Energy            =      -0.0000000000000000 [Eh]
	 Same-Spin Energy          =      -0.3516891705733096 [Eh]
	 Opposite-Spin Energy      =      -1.1001619211039650 [Eh]
	 Correlation Energy        =      -1.4518510916772747 [Eh]
	 Total Energy              =    -543.5224162783779320 [Eh]

	 ================> DF-SCS-MP2 Energies <==================
	-----------------------------------------------------------
	 SCS Same-Spin Scale       =       0.3333333333333333 [-]
	 SCS Opposite-Spin Scale   =       1.2000000000000000 [-]
	 SCS Same-Spin Energy      =      -0.1172297235244365 [Eh]
	 SCS Opposite-Spin Energy  =      -1.3201943053247580 [Eh]
	 SCS Correlation Energy    =      -1.4374240288491946 [Eh]
	 SCS Total Energy          =    -543.5079892155498555 [Eh]
	-----------------------------------------------------------

*** Psi4 exiting successfully. Buy a developer a beer!
