                               Psi4 1.8.2 release

  ==> Input File <==

--------------------------------------------------------------------------
MEMORY 60 GB

molecule dimer {
0 1
Gh(Na)     0.000000     0.000000     0.000000
Gh(O)      1.840093    -0.013228     1.168474
Gh(H)      2.578854    -0.628590     1.402113
Gh(H)      1.971143     0.638358     1.806956
O         -0.529791    -1.975169    -1.169996
H         -0.194422    -2.273058    -1.972985
H         -1.435025    -2.192187    -1.229504
Gh(O)      0.234253     1.720156    -1.715639
Gh(H)      0.688439     2.544420    -1.572514
Gh(H)     -0.667981     1.888890    -2.029084
Gh(O)     -2.243886     0.693704     0.273219
Gh(H)     -3.037219     0.241933     0.599418
Gh(H)     -2.426716     1.627144     0.193199

units ang
no_reorient
no_com
symmetry c1
}

set {
basis        aug-cc-pVTZ
scf_type     df
}

energy("mp2")
--------------------------------------------------------------------------

    Molecular point group: c1

    Geometry (in Angstrom), charge = 0, multiplicity = 1:

       Center              X                  Y                   Z               Mass
    ------------   -----------------  -----------------  -----------------  -----------------
      Gh(NA)          0.000000000000     0.000000000000     0.000000000000    22.989769282000
      Gh(O)           1.840093000000    -0.013228000000     1.168474000000    15.994914619570
      Gh(H)           2.578854000000    -0.628590000000     1.402113000000     1.007825032230
      Gh(H)           1.971143000000     0.638358000000     1.806956000000     1.007825032230
         O           -0.529791000000    -1.975169000000    -1.169996000000    15.994914619570
         H           -0.194422000000    -2.273058000000    -1.972985000000     1.007825032230
         H           -1.435025000000    -2.192187000000    -1.229504000000     1.007825032230
      Gh(O)           0.234253000000     1.720156000000    -1.715639000000    15.994914619570
      Gh(H)           0.688439000000     2.544420000000    -1.572514000000     1.007825032230
      Gh(H)          -0.667981000000     1.888890000000    -2.029084000000     1.007825032230
      Gh(O)          -2.243886000000     0.693704000000     0.273219000000    15.994914619570
      Gh(H)          -3.037219000000     0.241933000000     0.599418000000     1.007825032230
      Gh(H)          -2.426716000000     1.627144000000     0.193199000000     1.007825032230

  Charge       = 0
  Multiplicity = 1
  Basis Set: AUG-CC-PVTZ
    Blend: AUG-CC-PVTZ
  Basis Set: (AUG-CC-PVTZ AUX)
    Blend: AUG-CC-PVTZ-JKFIT + DEF2-UNIVERSAL-JKFIT

    Orbital Energies [Eh]
    ---------------------

    Doubly Occupied:

       1A    -20.562001     2A     -1.371487     3A     -0.731689
       4A     -0.594033     5A     -0.513470

  @DF-RHF Final Energy:   -76.06028659207141

   => Energetics <=

    Nuclear Repulsion Energy =              9.5064048669256387
    One-Electron Energy =                -123.5880209587227228
    Two-Electron Energy =                  38.0213294997256810
    Total Energy =                        -76.0602865920714066
 Dipole X            :         10.7060165          -11.0884877           -0.3824713
 Dipole Y            :         37.9504894          -38.2983178           -0.3478284
 Dipole Z            :         23.1563838          -23.7396032           -0.5832194
 Magnitude           :                                                    0.7793675
  Basis Set: (AUG-CC-PVTZ AUX)
    Blend: AUG-CC-PVTZ-RI + DEF2-QZVPP-RI
	 Reference Energy          =     -76.0602865920714066 [Eh]
	 Singles Energy            =      -0.0000000000000000 [Eh]
	 Same-Spin Energy          =      -0.0678924418787082 [Eh]
	 Opposite-Spin Energy      =      -0.2141851395014260 [Eh]
	 Correlation Energy        =      -0.2820775813801342 [Eh]
	 Total Energy              =     -76.3423641734515428 [Eh]

	 ================> DF-SCS-MP2 Energies <==================
	-----------------------------------------------------------
	 SCS Same-Spin Scale       =       0.3333333333333333 [-]
	 SCS Opposite-Spin Scale   =       1.2000000000000000 [-]
	 SCS Same-Spin Energy      =      -0.0226308139595694 [Eh]
	 SCS Opposite-Spin Energy  =      -0.2570221674017112 [Eh]
	 SCS Correlation Energy    =      -0.2796529813612806 [Eh]
	 SCS Total Energy          =     -76.3399395734326873 [Eh]
	-----------------------------------------------------------

*** Psi4 exiting successfully. Buy a developer a beer!
