                               Psi4 1.8.2 release

  ==> Input File <==

--------------------------------------------------------------------------
MEMORY 60 GB

molecule dimer {
0 1
Gh(Na)     0.000000     0.000000     0.000000
Gh(O)      1.253379    -0.553947    -1.795986
Gh(H)      1.273490    -1.231624    -2.437543
Gh(H)      2.156284    -0.245421    -1.763626
Gh(O)      1.653641    -0.225820     1.459891
Gh(H)      2.288234     0.493100     1.361670
Gh(H)      1.659884    -0.507457     2.410014
O         -0.197384    -2.387924     0.118493
H          0.422453    -2.904071     0.645872
H         -0.888605    -3.002090    -0.148393
Gh(O)     -0.691979     1.747232     1.638579
Gh(H)     -0.060873     2.000291     2.305818
Gh(H)     -0.951374     2.650499     1.367873

units ang
no_reorient
no_com
symmetry c1
}

set {
basis        aug-cc-pVTZ
scf_type     df
}

energy("mp2")
--------------------------------------------------------------------------

    Molecular point group: c1

    Geometry (in Angstrom), charge = 0, multiplicity = 1:

       Center              X                  Y                   Z               Mass
    ------------   -----------------  -----------------  -----------------  -----------------
      Gh(NA)          0.000000000000     0.000000000000     0.000000000000    22.989769282000
      Gh(O)           1.253379000000    -0.553947000000    -1.795986000000    15.994914619570
      Gh(H)           1.273490000000    -1.231624000000    -2.437543000000     1.007825032230
      Gh(H)           2.156284000000    -0.245421000000    -1.763626000000     1.007825032230
      Gh(O)           1.653641000000    -0.225820000000     1.459891000000    15.994914619570
      Gh(H)           2.288234000000     0.493100000000     1.361670000000     1.007825032230
      Gh(H)           1.659884000000    -0.507457000000     2.410014000000     1.007825032230
         O           -0.197384000000    -2.387924000000     0.118493000000    15.994914619570
         H            0.422453000000    -2.904071000000     0.645872000000     1.007825032230
         H           -0.888605000000    -3.002090000000    -0.148393000000     1.007825032230
      Gh(O)          -0.691979000000     1.747232000000     1.638579000000    15.994914619570
      Gh(H)          -0.060873000000     2.000291000000     2.305818000000     1.007825032230
      Gh(H)          -0.951374000000     2.650499000000     1.367873000000     1.007825032230

  Charge       = 0
  Multiplicity = 1
  Basis Set: AUG-CC-PVTZ
    Blend: AUG-CC-PVTZ
  Basis Set: (AUG-CC-PVTZ AUX)
    Blend: AUG-CC-PVTZ-JKFIT + DEF2-UNIVERSAL-JKFIT

    Orbital Energies [Eh]
    ---------------------

    Doubly Occupied:

       1A    -20.567487     2A     -1.349609     3A     -0.716972
       4A     -0.581294     5A     -0.509444

  @DF-RHF Final Energy:   -76.06029422045665

   => Energetics <=

    Nuclear Repulsion Energy =              9.1361647629549800
    One-Electron Energy =                -122.9433032695201575
    Two-Electron Energy =                  37.7468442861085265
    Total Energy =                        -76.0602942204566546
 Dipole X            :          3.8171905           -3.8649132           -0.0477227
 Dipole Y            :         46.5094828          -47.2612057           -0.7517228
 Dipole Z            :         -2.5583341            2.7314536            0.1731195
 Magnitude           :                                                    0.7728745
  Basis Set: (AUG-CC-PVTZ AUX)
    Blend: AUG-CC-PVTZ-RI + DEF2-QZVPP-RI
	 Reference Energy          =     -76.0602942204566546 [Eh]
	 Singles Energy            =      -0.0000000000000000 [Eh]
	 Same-Spin Energy          =      -0.0684751587680207 [Eh]
	 Opposite-Spin Energy      =      -0.2159526760799101 [Eh]
	 Correlation Energy        =      -0.2844278348479308 [Eh]
	 Total Energy              =     -76.3447220553045867 [Eh]

	 ================> DF-SCS-MP2 Energies <==================
	-----------------------------------------------------------
	 SCS Same-Spin Scale       =       0.3333333333333333 [-]
	 SCS Opposite-Spin Scale   =       1.2000000000000000 [-]
	 SCS Same-Spin Energy      =      -0.0228250529226736 [Eh]
	 SCS Opposite-Spin Energy  =      -0.2591432112958921 [Eh]
	 SCS Correlation Energy    =      -0.2819682642185656 [Eh]
	 SCS Total Energy          =     -76.3422624846752171 [Eh]
	-----------------------------------------------------------

*** Psi4 exiting successfully. Buy a developer a beer!
