                               Psi4 1.8.2 release

  ==> Input File <==

--------------------------------------------------------------------------
MEMORY 60 GB

molecule dimer {
1 1
Na         0.000000     0.000000     0.000000
O          0.696918    -1.921312     0.995276
H          0.017441    -2.540067     1.231161
H          1.089320    -1.653426     1.863350
O         -0.113164     1.265055     1.982920
H         -0.330778     2.212308     2.012355
H          0.411205     1.113647     2.756034
O         -0.095172     2.270223    -1.051898
H          0.755125     2.726212    -0.865472
H         -0.442846     2.607254    -1.863955
O         -0.540610    -1.206576    -2.092771
H         -0.009866    -2.038275    -1.946300
H         -1.328298    -1.540327    -2.427343

units ang
no_reorient
no_com
symmetry c1
}

set {
basis        aug-cc-pVTZ
scf_type     df
}

energy("mp2")
--------------------------------------------------------------------------

    Molecular point group: c1

    Geometry (in Angstrom), charge = 1, multiplicity = 1:

       Center              X                  Y                   Z               Mass
    ------------   -----------------  -----------------  -----------------  -----------------
         NA           0.000000000000     0.000000000000     0.000000000000    22.989769282000
         O            0.696918000000    -1.921312000000     0.995276000000    15.994914619570
         H            0.017441000000    -2.540067000000     1.231161000000     1.007825032230
         H            1.089320000000    -1.653426000000     1.863350000000     1.007825032230
         O           -0.113164000000     1.265055000000     1.982920000000    15.994914619570
         H           -0.330778000000     2.212308000000     2.012355000000     1.007825032230
         H            0.411205000000     1.113647000000     2.756034000000     1.007825032230
         O           -0.095172000000     2.270223000000    -1.051898000000    15.994914619570
         H            0.755125000000     2.726212000000    -0.865472000000     1.007825032230
         H           -0.442846000000     2.607254000000    -1.863955000000     1.007825032230
         O           -0.540610000000    -1.206576000000    -2.092771000000    15.994914619570
         H           -0.009866000000    -2.038275000000    -1.946300000000     1.007825032230
         H           -1.328298000000    -1.540327000000    -2.427343000000     1.007825032230

  Charge       = 1
  Multiplicity = 1
  Basis Set: AUG-CC-PVTZ
    Blend: AUG-CC-PVTZ
  Basis Set: (AUG-CC-PVTZ AUX)
    Blend: AUG-CC-PVTZ-JKFIT + DEF2-UNIVERSAL-JKFIT

    Orbital Energies [Eh]
    ---------------------

    Doubly Occupied:

       1A    -40.584411     2A    -20.746465     3A    -20.736200
       4A    -20.722878     5A    -20.721207     6A     -2.905658
       7A     -1.630582     8A     -1.630206     9A     -1.629522
      10A     -1.529436    11A     -1.524021    12A     -1.513239
      13A     -1.504220    14A     -0.892186    15A     -0.887255
      16A     -0.876835    17A     -0.869576    18A     -0.774412
      19A     -0.770650    20A     -0.754229    21A     -0.741404
      22A     -0.696256    23A     -0.684593    24A     -0.671209
      25A     -0.667684

  @DF-RHF Final Energy:  -466.02013429002966

   => Energetics <=

    Nuclear Repulsion Energy =            211.1752684713829922
    One-Electron Energy =               -1061.0621291913466848
    Two-Electron Energy =                 383.8667264299340331
    Total Energy =                       -466.0201342900296595
 Dipole X            :          0.6314688           -0.4817309            0.1497380
 Dipole Y            :         -7.7415070            7.8356473            0.0941403
 Dipole Z            :          1.8193984           -1.0808364            0.7385620
 Magnitude           :                                                    0.7594456
  Basis Set: (AUG-CC-PVTZ AUX)
    Blend: AUG-CC-PVTZ-RI + DEF2-QZVPP-RI
	 Reference Energy          =    -466.0201342900296595 [Eh]
	 Singles Energy            =      -0.0000000000000000 [Eh]
	 Same-Spin Energy          =      -0.2797048951958293 [Eh]
	 Opposite-Spin Energy      =      -0.8778261827948253 [Eh]
	 Correlation Energy        =      -1.1575310779906545 [Eh]
	 Total Energy              =    -467.1776653680203140 [Eh]

	 ================> DF-SCS-MP2 Energies <==================
	-----------------------------------------------------------
	 SCS Same-Spin Scale       =       0.3333333333333333 [-]
	 SCS Opposite-Spin Scale   =       1.2000000000000000 [-]
	 SCS Same-Spin Energy      =      -0.0932349650652764 [Eh]
	 SCS Opposite-Spin Energy  =      -1.0533914193537903 [Eh]
	 SCS Correlation Energy    =      -1.1466263844190667 [Eh]
	 SCS Total Energy          =    -467.1667606744487102 [Eh]
	-----------------------------------------------------------

*** Psi4 exiting successfully. Buy a developer a beer!
