                               Psi4 1.8.2 release

  ==> Input File <==

--------------------------------------------------------------------------
MEMORY 60 GB

molecule dimer {
0 1
Gh(Na)     0.000000     0.000000     0.000000
O         -1.303188     1.664866     1.104595
H         -0.470288     2.199361     1.156535
H         -1.573108     1.918059     0.254875
Gh(O)      0.729354    -2.356522     0.687908
Gh(H)      1.312049    -1.877683     1.251734
Gh(H)      0.115995    -2.750276     1.273369
Gh(O)      0.100788    -0.239392    -2.295890
Gh(H)     -0.074582     0.302705    -3.084869
Gh(H)     -0.313292    -1.090884    -2.589965
Gh(O)      2.035040     1.209218     0.044939
Gh(H)      2.826981     0.709029     0.335038
Gh(H)      2.348264     1.657480    -0.765905

units ang
no_reorient
no_com
symmetry c1
}

set {
basis        aug-cc-pVTZ
scf_type     df
}

energy("mp2")
--------------------------------------------------------------------------

    Molecular point group: c1

    Geometry (in Angstrom), charge = 0, multiplicity = 1:

       Center              X                  Y                   Z               Mass
    ------------   -----------------  -----------------  -----------------  -----------------
      Gh(NA)          0.000000000000     0.000000000000     0.000000000000    22.989769282000
         O           -1.303188000000     1.664866000000     1.104595000000    15.994914619570
         H           -0.470288000000     2.199361000000     1.156535000000     1.007825032230
         H           -1.573108000000     1.918059000000     0.254875000000     1.007825032230
      Gh(O)           0.729354000000    -2.356522000000     0.687908000000    15.994914619570
      Gh(H)           1.312049000000    -1.877683000000     1.251734000000     1.007825032230
      Gh(H)           0.115995000000    -2.750276000000     1.273369000000     1.007825032230
      Gh(O)           0.100788000000    -0.239392000000    -2.295890000000    15.994914619570
      Gh(H)          -0.074582000000     0.302705000000    -3.084869000000     1.007825032230
      Gh(H)          -0.313292000000    -1.090884000000    -2.589965000000     1.007825032230
      Gh(O)           2.035040000000     1.209218000000     0.044939000000    15.994914619570
      Gh(H)           2.826981000000     0.709029000000     0.335038000000     1.007825032230
      Gh(H)           2.348264000000     1.657480000000    -0.765905000000     1.007825032230

  Charge       = 0
  Multiplicity = 1
  Basis Set: AUG-CC-PVTZ
    Blend: AUG-CC-PVTZ
  Basis Set: (AUG-CC-PVTZ AUX)
    Blend: AUG-CC-PVTZ-JKFIT + DEF2-UNIVERSAL-JKFIT

    Orbital Energies [Eh]
    ---------------------

    Doubly Occupied:

       1A    -20.569629     2A     -1.358188     3A     -0.704856
       4A     -0.596196     5A     -0.512048

  @DF-RHF Final Energy:   -76.05714674234082

   => Energetics <=

    Nuclear Repulsion Energy =              9.2039577671469495
    One-Electron Energy =                -123.0403712038101247
    Two-Electron Energy =                  37.7792666943223594
    Total Energy =                        -76.0571467423408194
 Dipole X            :         23.9205894          -23.5628061            0.3577833
 Dipole Y            :        -32.4376508           32.9499223            0.5122715
 Dipole Z            :        -19.8954579           19.3662346           -0.5292233
 Magnitude           :                                                    0.8188457
  Basis Set: (AUG-CC-PVTZ AUX)
    Blend: AUG-CC-PVTZ-RI + DEF2-QZVPP-RI
	 Reference Energy          =     -76.0571467423408194 [Eh]
	 Singles Energy            =      -0.0000000000000000 [Eh]
	 Same-Spin Energy          =      -0.0685869031005699 [Eh]
	 Opposite-Spin Energy      =      -0.2162830627527200 [Eh]
	 Correlation Energy        =      -0.2848699658532899 [Eh]
	 Total Energy              =     -76.3420167081941088 [Eh]

	 ================> DF-SCS-MP2 Energies <==================
	-----------------------------------------------------------
	 SCS Same-Spin Scale       =       0.3333333333333333 [-]
	 SCS Opposite-Spin Scale   =       1.2000000000000000 [-]
	 SCS Same-Spin Energy      =      -0.0228623010335233 [Eh]
	 SCS Opposite-Spin Energy  =      -0.2595396753032640 [Eh]
	 SCS Correlation Energy    =      -0.2824019763367873 [Eh]
	 SCS Total Energy          =     -76.3395487186776052 [Eh]
	-----------------------------------------------------------

*** Psi4 exiting successfully. Buy a developer a beer!
