                               Psi4 1.8.2 release

  ==> Input File <==

--------------------------------------------------------------------------
MEMORY 60 GB

molecule dimer {
1 1
Na         0.000000     0.000000     0.000000
O          0.974400    -1.500805    -1.578092
H          0.289260    -1.851647    -2.169700
H          1.709261    -1.238602    -2.153686
O         -1.797096     0.831159    -1.319080
H         -1.656469     1.372669    -2.125826
H         -2.720728     0.976342    -1.054127
O          2.455762     0.636301     0.302092
H          2.886737     1.301869     0.827337
H          3.173762     0.185035    -0.192646
O          0.452548     1.189970     2.197550
H          1.237469     0.673737     2.428768
H         -0.021114     1.508820     3.014876

units ang
no_reorient
no_com
symmetry c1
}

set {
basis        aug-cc-pVTZ
scf_type     df
}

energy("mp2")
--------------------------------------------------------------------------

    Molecular point group: c1

    Geometry (in Angstrom), charge = 1, multiplicity = 1:

       Center              X                  Y                   Z               Mass
    ------------   -----------------  -----------------  -----------------  -----------------
         NA           0.000000000000     0.000000000000     0.000000000000    22.989769282000
         O            0.974400000000    -1.500805000000    -1.578092000000    15.994914619570
         H            0.289260000000    -1.851647000000    -2.169700000000     1.007825032230
         H            1.709261000000    -1.238602000000    -2.153686000000     1.007825032230
         O           -1.797096000000     0.831159000000    -1.319080000000    15.994914619570
         H           -1.656469000000     1.372669000000    -2.125826000000     1.007825032230
         H           -2.720728000000     0.976342000000    -1.054127000000     1.007825032230
         O            2.455762000000     0.636301000000     0.302092000000    15.994914619570
         H            2.886737000000     1.301869000000     0.827337000000     1.007825032230
         H            3.173762000000     0.185035000000    -0.192646000000     1.007825032230
         O            0.452548000000     1.189970000000     2.197550000000    15.994914619570
         H            1.237469000000     0.673737000000     2.428768000000     1.007825032230
         H           -0.021114000000     1.508820000000     3.014876000000     1.007825032230

  Charge       = 1
  Multiplicity = 1
  Basis Set: AUG-CC-PVTZ
    Blend: AUG-CC-PVTZ
  Basis Set: (AUG-CC-PVTZ AUX)
    Blend: AUG-CC-PVTZ-JKFIT + DEF2-UNIVERSAL-JKFIT

    Orbital Energies [Eh]
    ---------------------

    Doubly Occupied:

       1A    -40.591508     2A    -20.735204     3A    -20.733182
       4A    -20.725805     5A    -20.718889     6A     -2.910643
       7A     -1.635299     8A     -1.634383     9A     -1.634203
      10A     -1.513782    11A     -1.510775    12A     -1.508924
      13A     -1.489455    14A     -0.883988    15A     -0.877460
      16A     -0.876913    17A     -0.861742    18A     -0.763324
      19A     -0.758832    20A     -0.750135    21A     -0.725957
      22A     -0.681431    23A     -0.677868    24A     -0.670763
      25A     -0.661634

  @DF-RHF Final Energy:  -466.01969322001338

   => Energetics <=

    Nuclear Repulsion Energy =            209.1800805601843081
    One-Electron Energy =               -1057.3353378430902012
    Two-Electron Energy =                 382.1355640628925698
    Total Energy =                       -466.0196932200133801
 Dipole X            :        -40.1753216           40.7861290            0.6108074
 Dipole Y            :        -22.4816165           23.0191753            0.5375588
 Dipole Z            :          8.1779963           -8.7026499           -0.5246536
 Magnitude           :                                                    0.9681511
  Basis Set: (AUG-CC-PVTZ AUX)
    Blend: AUG-CC-PVTZ-RI + DEF2-QZVPP-RI
	 Reference Energy          =    -466.0196932200133801 [Eh]
	 Singles Energy            =      -0.0000000000000000 [Eh]
	 Same-Spin Energy          =      -0.2801320320699655 [Eh]
	 Opposite-Spin Energy      =      -0.8784155882390414 [Eh]
	 Correlation Energy        =      -1.1585476203090068 [Eh]
	 Total Energy              =    -467.1782408403223599 [Eh]

	 ================> DF-SCS-MP2 Energies <==================
	-----------------------------------------------------------
	 SCS Same-Spin Scale       =       0.3333333333333333 [-]
	 SCS Opposite-Spin Scale   =       1.2000000000000000 [-]
	 SCS Same-Spin Energy      =      -0.0933773440233218 [Eh]
	 SCS Opposite-Spin Energy  =      -1.0540987058868496 [Eh]
	 SCS Correlation Energy    =      -1.1474760499101715 [Eh]
	 SCS Total Energy          =    -467.1671692699235336 [Eh]
	-----------------------------------------------------------

*** Psi4 exiting successfully. Buy a developer a beer!
