                               Psi4 1.9 release

  ==> Input File <==

--------------------------------------------------------------------------
MEMORY 60 GB

molecule dimer {
1 1
Na     0.000000     0.000000     0.000000
--
0 1
O      0.974400    -1.500805    -1.578092
H      0.289260    -1.851647    -2.169700
H      1.709261    -1.238602    -2.153686
O     -1.797096     0.831159    -1.319080
H     -1.656469     1.372669    -2.125826
H     -2.720728     0.976342    -1.054127
O      2.455762     0.636301     0.302092
H      2.886737     1.301869     0.827337
H      3.173762     0.185035    -0.192646
O      0.452548     1.189970     2.197550
H      1.237469     0.673737     2.428768
H     -0.021114     1.508820     3.014876

units ang
no_reorient
no_com
symmetry c1
}

set {
basis        aug-cc-pVTZ
scf_type     df
}

energy("mp2", bsse_type="cp")
--------------------------------------------------------------------------

                               Psi4 1.9 release
    Molecular point group: c1
  Charge       = 0
  Multiplicity = 1
  Basis Set: AUG-CC-PVTZ
    Blend: AUG-CC-PVTZ
  Basis Set: (AUG-CC-PVTZ AUX)
    Blend: AUG-CC-PVTZ-JKFIT + DEF2-UNIVERSAL-JKFIT
  @DF-RHF Final Energy:  -304.22291092435955
    Total Energy =                       -304.2229109243595531
 Dipole X            :        -40.3653770           40.7861290            0.4207520
 Dipole Y            :        -22.6219506           23.0191753            0.3972247
 Dipole Z            :          8.2793284           -8.7026499           -0.4233215
 Magnitude           :                                                    0.7169525
  Basis Set: (AUG-CC-PVTZ AUX)
    Blend: AUG-CC-PVTZ-RI + DEF2-QZVPP-RI
	 Reference Energy          =    -304.2229109243595531 [Eh]
	 Singles Energy            =      -0.0000000000000000 [Eh]
	 Same-Spin Energy          =      -0.2766694832682112 [Eh]
	 Opposite-Spin Energy      =      -0.8686457693680918 [Eh]
	 Correlation Energy        =      -1.1453152526363031 [Eh]
	 Total Energy              =    -305.3682261769958473 [Eh]
	 SCS Total Energy          =    -305.3575090086906698 [Eh]
                               Psi4 1.9 release
    Molecular point group: c1
  Multiplicity = 1
  Basis Set: AUG-CC-PVTZ
    Blend: AUG-CC-PVTZ
  Basis Set: (AUG-CC-PVTZ AUX)
    Blend: AUG-CC-PVTZ-JKFIT + DEF2-UNIVERSAL-JKFIT
  @DF-RHF Final Energy:  -161.67607922402135
    Total Energy =                       -161.6760792240213505
  Basis Set: (AUG-CC-PVTZ AUX)
	 Singles Energy            =      -0.0000000000000000 [Eh]
	 Same-Spin Energy          =      -0.0045682075577998 [Eh]
	 Opposite-Spin Energy      =      -0.0149336260638122 [Eh]
	 Correlation Energy        =      -0.0195018336216121 [Eh]
	 Total Energy              =    -161.6955810576429542 [Eh]
	 SCS Total Energy          =    -161.6955223111505120 [Eh]
                               Psi4 1.9 release
    Molecular point group: c1

    Geometry (in Bohr), charge = 1, multiplicity = 1:

       Center              X                  Y                   Z               Mass
    ------------   -----------------  -----------------  -----------------  -----------------
         NA           0.000000000000     0.000000000000     0.000000000000    22.989769282000
         O            1.841349136646    -2.836110417718    -2.982161680776    15.994914619570
         H            0.546622179050    -3.499105711026    -4.100138774406     1.007825032230
         H            3.230035166926    -2.340618558444    -4.069876700233     1.007825032230
         O           -3.396019261156     1.570662876709    -2.492699937569    15.994914619570
         H           -3.130272745311     2.593968470906    -4.017228930378     1.007825032230
         H           -5.141430781865     1.845018984782    -1.992011331450     1.007825032230
         O            4.640717609307     1.202434623355     0.570871144692    15.994914619570
         H            5.455142326226     2.460175861224     1.563440343458     1.007825032230
         H            5.997540967385     0.349665473624    -0.364048179165     1.007825032230
         O            0.855191778624     2.248717397511     4.152767647000    15.994914619570
         H            2.338477498744     1.273178410588     4.589706342276     1.007825032230
         H           -0.039899677413     2.851256572613     5.697289942216     1.007825032230

  Charge       = 1
  Multiplicity = 1
  Basis Set: AUG-CC-PVTZ
    Blend: AUG-CC-PVTZ
  Basis Set: (AUG-CC-PVTZ AUX)
    Blend: AUG-CC-PVTZ-JKFIT + DEF2-UNIVERSAL-JKFIT

    Orbital Energies [Eh]
    ---------------------

    Doubly Occupied:

       1A    -40.591508     2A    -20.735204     3A    -20.733182
       4A    -20.725805     5A    -20.718889     6A     -2.910643
       7A     -1.635299     8A     -1.634383     9A     -1.634203
      10A     -1.513782    11A     -1.510775    12A     -1.508924
      13A     -1.489455    14A     -0.883988    15A     -0.877460
      16A     -0.876913    17A     -0.861742    18A     -0.763324
      19A     -0.758832    20A     -0.750135    21A     -0.725957
      22A     -0.681431    23A     -0.677868    24A     -0.670763
      25A     -0.661634

  @DF-RHF Final Energy:  -466.01969321988008

   => Energetics <=

    Nuclear Repulsion Energy =            209.1800805601843081
    One-Electron Energy =               -1057.3353378430604153
    Two-Electron Energy =                 382.1355640629960817
    Total Energy =                       -466.0196932198800823
 Dipole X            :        -40.1753216           40.7861290            0.6108074
 Dipole Y            :        -22.4816165           23.0191753            0.5375588
 Dipole Z            :          8.1779963           -8.7026499           -0.5246536
 Magnitude           :                                                    0.9681511
  Basis Set: (AUG-CC-PVTZ AUX)
    Blend: AUG-CC-PVTZ-RI + DEF2-QZVPP-RI
	 Reference Energy          =    -466.0196932198800823 [Eh]
	 Singles Energy            =      -0.0000000000000000 [Eh]
	 Same-Spin Energy          =      -0.2801320320697163 [Eh]
	 Opposite-Spin Energy      =      -0.8784155882379050 [Eh]
	 Correlation Energy        =      -1.1585476203076213 [Eh]
	 Total Energy              =    -467.1782408401876978 [Eh]

	 ================> DF-SCS-MP2 Energies <==================
	-----------------------------------------------------------
	 SCS Same-Spin Scale       =       0.3333333333333333 [-]
	 SCS Opposite-Spin Scale   =       1.2000000000000000 [-]
	 SCS Same-Spin Energy      =      -0.0933773440232388 [Eh]
	 SCS Opposite-Spin Energy  =      -1.0540987058854860 [Eh]
	 SCS Correlation Energy    =      -1.1474760499087249 [Eh]
	 SCS Total Energy          =    -467.1671692697888147 [Eh]
	-----------------------------------------------------------

*** Psi4 exiting successfully. Buy a developer a beer!
