                               Psi4 1.9 release

  ==> Input File <==

--------------------------------------------------------------------------
MEMORY 60 GB

molecule dimer {
1 1
Na     0.000000     0.000000     0.000000
--
0 1
O      1.592894    -1.543639    -0.308375
H      1.423686    -2.341419    -0.830979
H      2.403710    -1.151684    -0.598431
O      1.988946     0.824225     1.115878
H      2.779875     0.295505     1.252466
H      2.237778     1.548762     0.503946
O     -0.323220     1.312717     2.049838
H      0.524459     0.926454     2.265662
H     -1.000485     1.060576     2.756433
O     -1.798560    -1.449805     0.232533
H     -2.520777    -1.195942    -0.335276
H     -2.004259    -2.272448     0.655052
O      1.457351     0.926491    -1.892607
H      2.288674     0.755986    -1.447960
H      1.638498     1.608992    -2.536718
O     -1.853918     1.628861    -0.694243
H     -2.596561     1.796080    -1.223462
H     -1.590046     2.537809    -0.490567

units ang
no_reorient
no_com
symmetry c1
}

set {
basis        aug-cc-pVTZ
scf_type     df
}

energy("mp2", bsse_type="cp")
--------------------------------------------------------------------------

                               Psi4 1.9 release
    Molecular point group: c1
  Charge       = 0
  Multiplicity = 1
  Basis Set: AUG-CC-PVTZ
    Blend: AUG-CC-PVTZ
  Basis Set: (AUG-CC-PVTZ AUX)
    Blend: AUG-CC-PVTZ-JKFIT + DEF2-UNIVERSAL-JKFIT
  @DF-RHF Final Energy:  -456.32083890342074
    Total Energy =                       -456.3208389034207357
 Dipole X            :        -21.9328610           22.8515056            0.9186446
 Dipole Y            :        -32.3810950           32.4267006            0.0456057
 Dipole Z            :         -8.3365761            7.5482427           -0.7883334
 Magnitude           :                                                    1.2113866
  Basis Set: (AUG-CC-PVTZ AUX)
    Blend: AUG-CC-PVTZ-RI + DEF2-QZVPP-RI
	 Reference Energy          =    -456.3208389034207357 [Eh]
	 Singles Energy            =      -0.0000000000000000 [Eh]
	 Same-Spin Energy          =      -0.4179599358883010 [Eh]
	 Opposite-Spin Energy      =      -1.3055063052677638 [Eh]
	 Correlation Energy        =      -1.7234662411560648 [Eh]
	 Total Energy              =    -458.0443051445768106 [Eh]
	 SCS Total Energy          =    -458.0267664483714611 [Eh]
                               Psi4 1.9 release
    Molecular point group: c1
  Multiplicity = 1
  Basis Set: AUG-CC-PVTZ
    Blend: AUG-CC-PVTZ
  Basis Set: (AUG-CC-PVTZ AUX)
    Blend: AUG-CC-PVTZ-JKFIT + DEF2-UNIVERSAL-JKFIT
  @DF-RHF Final Energy:  -161.67609706169279
    Total Energy =                       -161.6760970616927580
  Basis Set: (AUG-CC-PVTZ AUX)
	 Singles Energy            =      -0.0000000000000000 [Eh]
	 Same-Spin Energy          =      -0.0070441068253191 [Eh]
	 Opposite-Spin Energy      =      -0.0213044324009874 [Eh]
	 Correlation Energy        =      -0.0283485392263065 [Eh]
	 Total Energy              =    -161.7044456009190867 [Eh]
	 SCS Total Energy          =    -161.7040104161823990 [Eh]
                               Psi4 1.9 release
    Molecular point group: c1

    Geometry (in Bohr), charge = 1, multiplicity = 1:

       Center              X                  Y                   Z               Mass
    ------------   -----------------  -----------------  -----------------  -----------------
         NA           0.000000000000     0.000000000000     0.000000000000    22.989769282000
         O            3.010133406885    -2.917054946576    -0.582744293938    15.994914619570
         H            2.690376628649    -4.424640654943    -1.570322726007     1.007825032230
         H            4.542353585024    -2.176367343072    -1.130870694984     1.007825032230
         O            3.758563218325     1.557559515755     2.108703809424    15.994914619570
         H            5.253202413007     0.558423518703     2.366817721448     1.007825032230
         H            4.228787549575     2.926736013516     0.952319922020     1.007825032230
         O           -0.610797278270     2.480675610233     3.873632421556    15.994914619570
         H            0.991083874031     1.750744327835     4.281480672857     1.007825032230
         H           -1.890642642629     2.004198175234     5.208903453174     1.007825032230
         O           -3.398785820203    -2.739734385319     0.439423685131    15.994914619570
         H           -4.763578153353    -2.260002841932    -0.633579816439     1.007825032230
         H           -3.787500594484    -4.294304354344     1.237868877933     1.007825032230
         O            2.753994258662     1.750814247702    -3.576508893124    15.994914619570
         H            4.324967050456     1.428606494680    -2.736247840618     1.007825032230
         H            3.096312477110     3.040554218053    -4.793702277519     1.007825032230
         O           -3.503397279057     3.078101186439    -1.311929134516    15.994914619570
         H           -4.906789158045     3.394099299412    -2.312008104905     1.007825032230
         H           -3.004751466880     4.795763968722    -0.927037276187     1.007825032230

  Charge       = 1
  Multiplicity = 1
  Basis Set: AUG-CC-PVTZ
    Blend: AUG-CC-PVTZ
  Basis Set: (AUG-CC-PVTZ AUX)
    Blend: AUG-CC-PVTZ-JKFIT + DEF2-UNIVERSAL-JKFIT

    Orbital Energies [Eh]
    ---------------------

    Doubly Occupied:

       1A    -40.535667     2A    -20.736258     3A    -20.725540
       4A    -20.723368     5A    -20.705449     6A    -20.696850
       7A    -20.679952     8A     -2.858569     9A     -1.584901
      10A     -1.584094    11A     -1.582936    12A     -1.525604
      13A     -1.514796    14A     -1.511191    15A     -1.498206
      16A     -1.494051    17A     -1.454675    18A     -0.899487
      19A     -0.893724    20A     -0.875130    21A     -0.871276
      22A     -0.848637    23A     -0.844977    24A     -0.759807
      25A     -0.748506    26A     -0.742282    27A     -0.739821
      28A     -0.731029    29A     -0.694081    30A     -0.686334
      31A     -0.678020    32A     -0.666190    33A     -0.656924
      34A     -0.644641    35A     -0.626052

  @DF-RHF Final Energy:  -618.14810998914368

   => Energetics <=

    Nuclear Repulsion Energy =            411.6597904123424314
    One-Electron Energy =               -1669.5777379606663544
    Two-Electron Energy =                 639.7698375591801323
    Total Energy =                       -618.1481099891436770
 Dipole X            :        -21.8267770           22.8515056            1.0247286
 Dipole Y            :        -32.2837497           32.4267006            0.1429510
 Dipole Z            :         -8.2911571            7.5482427           -0.7429144
 Magnitude           :                                                    1.2737447
  Basis Set: (AUG-CC-PVTZ AUX)
    Blend: AUG-CC-PVTZ-RI + DEF2-QZVPP-RI
	 Reference Energy          =    -618.1481099891436770 [Eh]
	 Singles Energy            =      -0.0000000000000000 [Eh]
	 Same-Spin Energy          =      -0.4236312564980740 [Eh]
	 Opposite-Spin Energy      =      -1.3197823740202530 [Eh]
	 Correlation Energy        =      -1.7434136305183270 [Eh]
	 Total Energy              =    -619.8915236196620526 [Eh]

	 ================> DF-SCS-MP2 Energies <==================
	-----------------------------------------------------------
	 SCS Same-Spin Scale       =       0.3333333333333333 [-]
	 SCS Opposite-Spin Scale   =       1.2000000000000000 [-]
	 SCS Same-Spin Energy      =      -0.1412104188326913 [Eh]
	 SCS Opposite-Spin Energy  =      -1.5837388488243036 [Eh]
	 SCS Correlation Energy    =      -1.7249492676569949 [Eh]
	 SCS Total Energy          =    -619.8730592568006159 [Eh]
	-----------------------------------------------------------

*** Psi4 exiting successfully. Buy a developer a beer!
