                               Psi4 1.8.2 release

  ==> Input File <==

--------------------------------------------------------------------------
MEMORY 60 GB

molecule dimer {
0 1
Gh(Na)     0.000000     0.000000     0.000000
Gh(O)      2.205971     0.635159     0.728373
Gh(H)      3.053339     0.255335     0.378257
Gh(H)      2.077247     0.411983     1.671787
Gh(O)     -2.285012    -0.545726    -1.025332
Gh(H)     -1.993376    -0.558243    -1.924281
Gh(H)     -2.614469    -1.469788    -0.906414
Gh(O)      0.374764     0.481414    -2.151325
Gh(H)     -0.097932    -0.007771    -2.837168
Gh(H)      0.086886     1.404508    -2.205016
O         -1.072663     0.652617     2.238731
H         -0.201901     0.519877     2.729850
H         -1.247442     1.590189     2.428781

units ang
no_reorient
no_com
symmetry c1
}

set {
basis        aug-cc-pVTZ
scf_type     df
}

energy("mp2")
--------------------------------------------------------------------------

    Molecular point group: c1

    Geometry (in Angstrom), charge = 0, multiplicity = 1:

       Center              X                  Y                   Z               Mass
    ------------   -----------------  -----------------  -----------------  -----------------
      Gh(NA)          0.000000000000     0.000000000000     0.000000000000    22.989769282000
      Gh(O)           2.205971000000     0.635159000000     0.728373000000    15.994914619570
      Gh(H)           3.053339000000     0.255335000000     0.378257000000     1.007825032230
      Gh(H)           2.077247000000     0.411983000000     1.671787000000     1.007825032230
      Gh(O)          -2.285012000000    -0.545726000000    -1.025332000000    15.994914619570
      Gh(H)          -1.993376000000    -0.558243000000    -1.924281000000     1.007825032230
      Gh(H)          -2.614469000000    -1.469788000000    -0.906414000000     1.007825032230
      Gh(O)           0.374764000000     0.481414000000    -2.151325000000    15.994914619570
      Gh(H)          -0.097932000000    -0.007771000000    -2.837168000000     1.007825032230
      Gh(H)           0.086886000000     1.404508000000    -2.205016000000     1.007825032230
         O           -1.072663000000     0.652617000000     2.238731000000    15.994914619570
         H           -0.201901000000     0.519877000000     2.729850000000     1.007825032230
         H           -1.247442000000     1.590189000000     2.428781000000     1.007825032230

  Charge       = 0
  Multiplicity = 1
  Basis Set: AUG-CC-PVTZ
    Blend: AUG-CC-PVTZ
  Basis Set: (AUG-CC-PVTZ AUX)
    Blend: AUG-CC-PVTZ-JKFIT + DEF2-UNIVERSAL-JKFIT

    Orbital Energies [Eh]
    ---------------------

    Doubly Occupied:

       1A    -20.574344     2A     -1.339813     3A     -0.693068
       4A     -0.585523     5A     -0.508887

  @DF-RHF Final Energy:   -76.05562440821487

   => Energetics <=

    Nuclear Repulsion Energy =              8.8977572666939704
    One-Electron Energy =                -122.5034903196257829
    Two-Electron Energy =                  37.5501086447169357
    Total Energy =                        -76.0556244082148680
 Dipole X            :         19.3990306          -18.9551757            0.4438550
 Dipole Y            :        -13.3300307           13.8535860            0.5235553
 Dipole Z            :        -43.1550782           43.5931074            0.4380293
 Magnitude           :                                                    0.8142402
  Basis Set: (AUG-CC-PVTZ AUX)
    Blend: AUG-CC-PVTZ-RI + DEF2-QZVPP-RI
	 Reference Energy          =     -76.0556244082148680 [Eh]
	 Singles Energy            =      -0.0000000000000000 [Eh]
	 Same-Spin Energy          =      -0.0690682262690901 [Eh]
	 Opposite-Spin Energy      =      -0.2177302820994320 [Eh]
	 Correlation Energy        =      -0.2867985083685221 [Eh]
	 Total Energy              =     -76.3424229165833879 [Eh]

	 ================> DF-SCS-MP2 Energies <==================
	-----------------------------------------------------------
	 SCS Same-Spin Scale       =       0.3333333333333333 [-]
	 SCS Opposite-Spin Scale   =       1.2000000000000000 [-]
	 SCS Same-Spin Energy      =      -0.0230227420896967 [Eh]
	 SCS Opposite-Spin Energy  =      -0.2612763385193184 [Eh]
	 SCS Correlation Energy    =      -0.2842990806090151 [Eh]
	 SCS Total Energy          =     -76.3399234888238851 [Eh]
	-----------------------------------------------------------

*** Psi4 exiting successfully. Buy a developer a beer!
