                               Psi4 1.8.2 release

  ==> Input File <==

--------------------------------------------------------------------------
MEMORY 60 GB

molecule dimer {
0 1
Gh(Na)     0.000000     0.000000     0.000000
O          1.295992    -1.038055    -1.666929
H          1.199472    -0.914486    -2.588127
H          2.215709    -0.827473    -1.487559
Gh(O)      0.945093    -1.880558     0.968601
Gh(H)      1.449261    -2.195584     0.246835
Gh(H)      0.398653    -2.523314     1.421842
Gh(O)     -1.899954     0.291284     1.327143
Gh(H)     -1.989905     1.254936     1.673416
Gh(H)     -1.881234    -0.239655     2.109490
Gh(O)      2.210054     0.959882     0.855124
Gh(H)      2.866527     0.324916     0.526095
Gh(H)      2.208158     0.741535     1.764241
Gh(O)     -1.049559     1.773634    -1.401658
Gh(H)     -0.352216     2.144695    -1.977073
Gh(H)     -1.638655     1.166318    -1.764810

units ang
no_reorient
no_com
symmetry c1
}

set {
basis        aug-cc-pVTZ
scf_type     df
}

energy("mp2")
--------------------------------------------------------------------------

    Molecular point group: c1

    Geometry (in Angstrom), charge = 0, multiplicity = 1:

       Center              X                  Y                   Z               Mass
    ------------   -----------------  -----------------  -----------------  -----------------
      Gh(NA)          0.000000000000     0.000000000000     0.000000000000    22.989769282000
         O            1.295992000000    -1.038055000000    -1.666929000000    15.994914619570
         H            1.199472000000    -0.914486000000    -2.588127000000     1.007825032230
         H            2.215709000000    -0.827473000000    -1.487559000000     1.007825032230
      Gh(O)           0.945093000000    -1.880558000000     0.968601000000    15.994914619570
      Gh(H)           1.449261000000    -2.195584000000     0.246835000000     1.007825032230
      Gh(H)           0.398653000000    -2.523314000000     1.421842000000     1.007825032230
      Gh(O)          -1.899954000000     0.291284000000     1.327143000000    15.994914619570
      Gh(H)          -1.989905000000     1.254936000000     1.673416000000     1.007825032230
      Gh(H)          -1.881234000000    -0.239655000000     2.109490000000     1.007825032230
      Gh(O)           2.210054000000     0.959882000000     0.855124000000    15.994914619570
      Gh(H)           2.866527000000     0.324916000000     0.526095000000     1.007825032230
      Gh(H)           2.208158000000     0.741535000000     1.764241000000     1.007825032230
      Gh(O)          -1.049559000000     1.773634000000    -1.401658000000    15.994914619570
      Gh(H)          -0.352216000000     2.144695000000    -1.977073000000     1.007825032230
      Gh(H)          -1.638655000000     1.166318000000    -1.764810000000     1.007825032230

  Charge       = 0
  Multiplicity = 1
  Basis Set: AUG-CC-PVTZ
    Blend: AUG-CC-PVTZ
  Basis Set: (AUG-CC-PVTZ AUX)
    Blend: AUG-CC-PVTZ-JKFIT + DEF2-UNIVERSAL-JKFIT

    Orbital Energies [Eh]
    ---------------------

    Doubly Occupied:

       1A    -20.565050     2A     -1.358613     3A     -0.723582
       4A     -0.586249     5A     -0.511090

  @DF-RHF Final Energy:   -76.06086423186441

   => Energetics <=

    Nuclear Repulsion Energy =              9.2909644385317396
    One-Electron Energy =                -123.2144869633658288
    Two-Electron Energy =                  37.8626582929696625
    Total Energy =                        -76.0608642318644286
 Dipole X            :        -25.4981943           26.0463163            0.5481220
 Dipole Y            :         19.2082289          -18.9849427            0.2232863
 Dipole Z            :         32.4021821          -32.9022446           -0.5000625
 Magnitude           :                                                    0.7748271
  Basis Set: (AUG-CC-PVTZ AUX)
    Blend: AUG-CC-PVTZ-RI + DEF2-QZVPP-RI
	 Reference Energy          =     -76.0608642318644144 [Eh]
	 Singles Energy            =      -0.0000000000000000 [Eh]
	 Same-Spin Energy          =      -0.0682580181903564 [Eh]
	 Opposite-Spin Energy      =      -0.2155041182144216 [Eh]
	 Correlation Energy        =      -0.2837621364047780 [Eh]
	 Total Energy              =     -76.3446263682691892 [Eh]

	 ================> DF-SCS-MP2 Energies <==================
	-----------------------------------------------------------
	 SCS Same-Spin Scale       =       0.3333333333333333 [-]
	 SCS Opposite-Spin Scale   =       1.2000000000000000 [-]
	 SCS Same-Spin Energy      =      -0.0227526727301188 [Eh]
	 SCS Opposite-Spin Energy  =      -0.2586049418573059 [Eh]
	 SCS Correlation Energy    =      -0.2813576145874248 [Eh]
	 SCS Total Energy          =     -76.3422218464518352 [Eh]
	-----------------------------------------------------------

*** Psi4 exiting successfully. Buy a developer a beer!
