                               Psi4 1.8.2 release

  ==> Input File <==

--------------------------------------------------------------------------
MEMORY 60 GB

molecule dimer {
0 1
Gh(Na)     0.000000     0.000000     0.000000
Gh(O)      1.442910    -1.615519    -0.724539
Gh(H)      2.256766    -1.142850    -0.890378
Gh(H)      1.587192    -2.224263     0.048492
Gh(O)     -0.953321     0.932193    -1.763865
Gh(H)     -1.633057     1.511012    -1.396330
Gh(H)     -0.910682     1.229146    -2.659653
Gh(O)     -0.002406     0.246926     2.384799
Gh(H)      0.732056    -0.107898     2.849308
Gh(H)      0.173253     1.192445     2.308746
Gh(O)      2.128873     1.405530     0.211056
Gh(H)      2.986769     1.017955     0.261027
Gh(H)      2.073410     1.856766    -0.680462
O         -2.115569    -0.327278     0.500773
H         -2.586886    -0.082643    -0.302497
H         -2.583910     0.063951     1.259491

units ang
no_reorient
no_com
symmetry c1
}

set {
basis        aug-cc-pVTZ
scf_type     df
}

energy("mp2")
--------------------------------------------------------------------------

    Molecular point group: c1

    Geometry (in Angstrom), charge = 0, multiplicity = 1:

       Center              X                  Y                   Z               Mass
    ------------   -----------------  -----------------  -----------------  -----------------
      Gh(NA)          0.000000000000     0.000000000000     0.000000000000    22.989769282000
      Gh(O)           1.442910000000    -1.615519000000    -0.724539000000    15.994914619570
      Gh(H)           2.256766000000    -1.142850000000    -0.890378000000     1.007825032230
      Gh(H)           1.587192000000    -2.224263000000     0.048492000000     1.007825032230
      Gh(O)          -0.953321000000     0.932193000000    -1.763865000000    15.994914619570
      Gh(H)          -1.633057000000     1.511012000000    -1.396330000000     1.007825032230
      Gh(H)          -0.910682000000     1.229146000000    -2.659653000000     1.007825032230
      Gh(O)          -0.002406000000     0.246926000000     2.384799000000    15.994914619570
      Gh(H)           0.732056000000    -0.107898000000     2.849308000000     1.007825032230
      Gh(H)           0.173253000000     1.192445000000     2.308746000000     1.007825032230
      Gh(O)           2.128873000000     1.405530000000     0.211056000000    15.994914619570
      Gh(H)           2.986769000000     1.017955000000     0.261027000000     1.007825032230
      Gh(H)           2.073410000000     1.856766000000    -0.680462000000     1.007825032230
         O           -2.115569000000    -0.327278000000     0.500773000000    15.994914619570
         H           -2.586886000000    -0.082643000000    -0.302497000000     1.007825032230
         H           -2.583910000000     0.063951000000     1.259491000000     1.007825032230

  Charge       = 0
  Multiplicity = 1
  Basis Set: AUG-CC-PVTZ
    Blend: AUG-CC-PVTZ
  Basis Set: (AUG-CC-PVTZ AUX)
    Blend: AUG-CC-PVTZ-JKFIT + DEF2-UNIVERSAL-JKFIT

    Orbital Energies [Eh]
    ---------------------

    Doubly Occupied:

       1A    -20.567204     2A     -1.345275     3A     -0.718537
       4A     -0.575540     5A     -0.508276

  @DF-RHF Final Energy:   -76.05954902389034

   => Energetics <=

    Nuclear Repulsion Energy =              9.0815512932853117
    One-Electron Energy =                -122.8525327215075578
    Two-Electron Energy =                  37.7114324043318945
    Total Energy =                        -76.0595490238903551
 Dipole X            :         41.1264745          -41.7541564           -0.6276819
 Dipole Y            :          5.4074446           -4.9830491            0.4243956
 Dipole Z            :         -9.4104081            9.3790471           -0.0313610
 Magnitude           :                                                    0.7583401
  Basis Set: (AUG-CC-PVTZ AUX)
    Blend: AUG-CC-PVTZ-RI + DEF2-QZVPP-RI
	 Reference Energy          =     -76.0595490238903409 [Eh]
	 Singles Energy            =      -0.0000000000000000 [Eh]
	 Same-Spin Energy          =      -0.0685704659672353 [Eh]
	 Opposite-Spin Energy      =      -0.2164571972657439 [Eh]
	 Correlation Energy        =      -0.2850276632329792 [Eh]
	 Total Energy              =     -76.3445766871233218 [Eh]

	 ================> DF-SCS-MP2 Energies <==================
	-----------------------------------------------------------
	 SCS Same-Spin Scale       =       0.3333333333333333 [-]
	 SCS Opposite-Spin Scale   =       1.2000000000000000 [-]
	 SCS Same-Spin Energy      =      -0.0228568219890784 [Eh]
	 SCS Opposite-Spin Energy  =      -0.2597486367188926 [Eh]
	 SCS Correlation Energy    =      -0.2826054587079711 [Eh]
	 SCS Total Energy          =     -76.3421544825983176 [Eh]
	-----------------------------------------------------------

*** Psi4 exiting successfully. Buy a developer a beer!
