                               Psi4 1.8.2 release

  ==> Input File <==

--------------------------------------------------------------------------
MEMORY 60 GB

molecule dimer {
1 1
Na         0.000000     0.000000     0.000000
Gh(O)     -0.326768     2.408225     0.061285
Gh(H)      0.544784     2.772753    -0.175390
Gh(H)     -0.732186     2.969370     0.737395
Gh(O)      0.756241     0.217993     2.191234
Gh(H)      0.298885    -0.587551     2.571149
Gh(H)      1.393189     0.622836     2.815605
Gh(O)      1.186850    -2.317272     0.164521
Gh(H)      1.872732    -2.329814     0.850027
Gh(H)      0.683306    -3.146135     0.325061
Gh(O)      1.885007     0.747789    -1.167856
Gh(H)      2.689228     0.780065    -0.668381
Gh(H)      2.068393     0.776155    -2.104132
Gh(O)     -1.476463     0.638790    -1.711258
Gh(H)     -0.833314     1.324452    -1.599428
Gh(H)     -2.279710     1.059435    -1.296832

units ang
no_reorient
no_com
symmetry c1
}

set {
basis        aug-cc-pVTZ
scf_type     df
}

energy("mp2")
--------------------------------------------------------------------------

    Molecular point group: c1

    Geometry (in Angstrom), charge = 1, multiplicity = 1:

       Center              X                  Y                   Z               Mass
    ------------   -----------------  -----------------  -----------------  -----------------
         NA           0.000000000000     0.000000000000     0.000000000000    22.989769282000
      Gh(O)          -0.326768000000     2.408225000000     0.061285000000    15.994914619570
      Gh(H)           0.544784000000     2.772753000000    -0.175390000000     1.007825032230
      Gh(H)          -0.732186000000     2.969370000000     0.737395000000     1.007825032230
      Gh(O)           0.756241000000     0.217993000000     2.191234000000    15.994914619570
      Gh(H)           0.298885000000    -0.587551000000     2.571149000000     1.007825032230
      Gh(H)           1.393189000000     0.622836000000     2.815605000000     1.007825032230
      Gh(O)           1.186850000000    -2.317272000000     0.164521000000    15.994914619570
      Gh(H)           1.872732000000    -2.329814000000     0.850027000000     1.007825032230
      Gh(H)           0.683306000000    -3.146135000000     0.325061000000     1.007825032230
      Gh(O)           1.885007000000     0.747789000000    -1.167856000000    15.994914619570
      Gh(H)           2.689228000000     0.780065000000    -0.668381000000     1.007825032230
      Gh(H)           2.068393000000     0.776155000000    -2.104132000000     1.007825032230
      Gh(O)          -1.476463000000     0.638790000000    -1.711258000000    15.994914619570
      Gh(H)          -0.833314000000     1.324452000000    -1.599428000000     1.007825032230
      Gh(H)          -2.279710000000     1.059435000000    -1.296832000000     1.007825032230

  Charge       = 1
  Multiplicity = 1
  Basis Set: AUG-CC-PVTZ
    Blend: AUG-CC-PVTZ
  Basis Set: (AUG-CC-PVTZ AUX)
    Blend: AUG-CC-PVTZ-JKFIT + DEF2-UNIVERSAL-JKFIT

    Orbital Energies [Eh]
    ---------------------

    Doubly Occupied:

       1A    -40.760405     2A     -3.073791     3A     -1.797154
       4A     -1.797126     5A     -1.797123

  @DF-RHF Final Energy:  -161.67609176088160

   => Energetics <=

    Nuclear Repulsion Energy =              0.0000000000000000
    One-Electron Energy =                -224.9009869456726562
    Two-Electron Energy =                  63.2248951847910661
    Total Energy =                       -161.6760917608816044
 Dipole X            :          0.0000669            0.0000000            0.0000669
 Dipole Y            :          0.0000261            0.0000000            0.0000261
 Dipole Z            :          0.0000889            0.0000000            0.0000889
 Magnitude           :                                                    0.0001143
  Basis Set: (AUG-CC-PVTZ AUX)
    Blend: AUG-CC-PVTZ-RI + DEF2-QZVPP-RI
	 Reference Energy          =    -161.6760917608816044 [Eh]
	 Singles Energy            =      -0.0000000000000000 [Eh]
	 Same-Spin Energy          =      -0.0065665277196990 [Eh]
	 Opposite-Spin Energy      =      -0.0199159165286076 [Eh]
	 Correlation Energy        =      -0.0264824442483066 [Eh]
	 Total Energy              =    -161.7025742051299062 [Eh]

	 ================> DF-SCS-MP2 Energies <==================
	-----------------------------------------------------------
	 SCS Same-Spin Scale       =       0.3333333333333333 [-]
	 SCS Opposite-Spin Scale   =       1.2000000000000000 [-]
	 SCS Same-Spin Energy      =      -0.0021888425732330 [Eh]
	 SCS Opposite-Spin Energy  =      -0.0238990998343291 [Eh]
	 SCS Correlation Energy    =      -0.0260879424075621 [Eh]
	 SCS Total Energy          =    -161.7021797032891754 [Eh]
	-----------------------------------------------------------

*** Psi4 exiting successfully. Buy a developer a beer!
