                               Psi4 1.8.2 release

  ==> Input File <==

--------------------------------------------------------------------------
MEMORY 60 GB

molecule dimer {
0 1
Gh(Na)     0.000000     0.000000     0.000000
O          1.840093    -0.013228     1.168474
H          2.578854    -0.628590     1.402113
H          1.971143     0.638358     1.806956
Gh(O)     -0.529791    -1.975169    -1.169996
Gh(H)     -0.194422    -2.273058    -1.972985
Gh(H)     -1.435025    -2.192187    -1.229504
Gh(O)      0.234253     1.720156    -1.715639
Gh(H)      0.688439     2.544420    -1.572514
Gh(H)     -0.667981     1.888890    -2.029084
Gh(O)     -2.243886     0.693704     0.273219
Gh(H)     -3.037219     0.241933     0.599418
Gh(H)     -2.426716     1.627144     0.193199

units ang
no_reorient
no_com
symmetry c1
}

set {
basis        aug-cc-pVTZ
scf_type     df
}

energy("mp2")
--------------------------------------------------------------------------

    Molecular point group: c1

    Geometry (in Angstrom), charge = 0, multiplicity = 1:

       Center              X                  Y                   Z               Mass
    ------------   -----------------  -----------------  -----------------  -----------------
      Gh(NA)          0.000000000000     0.000000000000     0.000000000000    22.989769282000
         O            1.840093000000    -0.013228000000     1.168474000000    15.994914619570
         H            2.578854000000    -0.628590000000     1.402113000000     1.007825032230
         H            1.971143000000     0.638358000000     1.806956000000     1.007825032230
      Gh(O)          -0.529791000000    -1.975169000000    -1.169996000000    15.994914619570
      Gh(H)          -0.194422000000    -2.273058000000    -1.972985000000     1.007825032230
      Gh(H)          -1.435025000000    -2.192187000000    -1.229504000000     1.007825032230
      Gh(O)           0.234253000000     1.720156000000    -1.715639000000    15.994914619570
      Gh(H)           0.688439000000     2.544420000000    -1.572514000000     1.007825032230
      Gh(H)          -0.667981000000     1.888890000000    -2.029084000000     1.007825032230
      Gh(O)          -2.243886000000     0.693704000000     0.273219000000    15.994914619570
      Gh(H)          -3.037219000000     0.241933000000     0.599418000000     1.007825032230
      Gh(H)          -2.426716000000     1.627144000000     0.193199000000     1.007825032230

  Charge       = 0
  Multiplicity = 1
  Basis Set: AUG-CC-PVTZ
    Blend: AUG-CC-PVTZ
  Basis Set: (AUG-CC-PVTZ AUX)
    Blend: AUG-CC-PVTZ-JKFIT + DEF2-UNIVERSAL-JKFIT

    Orbital Energies [Eh]
    ---------------------

    Doubly Occupied:

       1A    -20.568466     2A     -1.359024     3A     -0.709627
       4A     -0.594063     5A     -0.511898

  @DF-RHF Final Energy:   -76.05753952196108

   => Energetics <=

    Nuclear Repulsion Energy =              9.2338157436220669
    One-Electron Energy =                -123.0965489635131576
    Two-Electron Energy =                  37.8051936979300081
    Total Energy =                        -76.0575395219610755
 Dipole X            :        -35.8501882           36.4164227            0.5662345
 Dipole Y            :          0.2168866           -0.1815195            0.0353670
 Dipole Z            :        -23.1521180           23.7290283            0.5769103
 Magnitude           :                                                    0.8091340
  Basis Set: (AUG-CC-PVTZ AUX)
    Blend: AUG-CC-PVTZ-RI + DEF2-QZVPP-RI
	 Reference Energy          =     -76.0575395219610755 [Eh]
	 Singles Energy            =      -0.0000000000000000 [Eh]
	 Same-Spin Energy          =      -0.0684651919697729 [Eh]
	 Opposite-Spin Energy      =      -0.2159600646388901 [Eh]
	 Correlation Energy        =      -0.2844252566086630 [Eh]
	 Total Energy              =     -76.3419647785697322 [Eh]

	 ================> DF-SCS-MP2 Energies <==================
	-----------------------------------------------------------
	 SCS Same-Spin Scale       =       0.3333333333333333 [-]
	 SCS Opposite-Spin Scale   =       1.2000000000000000 [-]
	 SCS Same-Spin Energy      =      -0.0228217306565910 [Eh]
	 SCS Opposite-Spin Energy  =      -0.2591520775666681 [Eh]
	 SCS Correlation Energy    =      -0.2819738082232591 [Eh]
	 SCS Total Energy          =     -76.3395133301843316 [Eh]
	-----------------------------------------------------------

*** Psi4 exiting successfully. Buy a developer a beer!
