                               Psi4 1.9 release

  ==> Input File <==

--------------------------------------------------------------------------
MEMORY 60 GB

molecule dimer {
1 1
Na     0.000000     0.000000     0.000000
--
0 1
O      1.253379    -0.553947    -1.795986
H      1.273490    -1.231624    -2.437543
H      2.156284    -0.245421    -1.763626
O      1.653641    -0.225820     1.459891
H      2.288234     0.493100     1.361670
H      1.659884    -0.507457     2.410014
O     -0.197384    -2.387924     0.118493
H      0.422453    -2.904071     0.645872
H     -0.888605    -3.002090    -0.148393
O     -0.691979     1.747232     1.638579
H     -0.060873     2.000291     2.305818
H     -0.951374     2.650499     1.367873

units ang
no_reorient
no_com
symmetry c1
}

set {
basis        aug-cc-pVTZ
scf_type     df
}

energy("mp2", bsse_type="cp")
--------------------------------------------------------------------------

                               Psi4 1.9 release
    Molecular point group: c1
  Charge       = 0
  Multiplicity = 1
  Basis Set: AUG-CC-PVTZ
    Blend: AUG-CC-PVTZ
  Basis Set: (AUG-CC-PVTZ AUX)
    Blend: AUG-CC-PVTZ-JKFIT + DEF2-UNIVERSAL-JKFIT
  @DF-RHF Final Energy:  -304.21859786488005
    Total Energy =                       -304.2185978648800528
 Dipole X            :        -40.5015522           41.6509792            1.1494271
 Dipole Y            :         26.7040162          -26.6648766            0.0391396
 Dipole Z            :        -27.9977439           28.5528188            0.5550749
 Magnitude           :                                                    1.2770367
  Basis Set: (AUG-CC-PVTZ AUX)
    Blend: AUG-CC-PVTZ-RI + DEF2-QZVPP-RI
	 Reference Energy          =    -304.2185978648800528 [Eh]
	 Singles Energy            =      -0.0000000000000000 [Eh]
	 Same-Spin Energy          =      -0.2765265458461927 [Eh]
	 Opposite-Spin Energy      =      -0.8679101277816677 [Eh]
	 Correlation Energy        =      -1.1444366736278604 [Eh]
	 Total Energy              =    -305.3630345385079181 [Eh]
	 SCS Total Energy          =    -305.3522655335001446 [Eh]
                               Psi4 1.9 release
    Molecular point group: c1
  Multiplicity = 1
  Basis Set: AUG-CC-PVTZ
    Blend: AUG-CC-PVTZ
  Basis Set: (AUG-CC-PVTZ AUX)
    Blend: AUG-CC-PVTZ-JKFIT + DEF2-UNIVERSAL-JKFIT
  @DF-RHF Final Energy:  -161.67608527921789
    Total Energy =                       -161.6760852792178866
  Basis Set: (AUG-CC-PVTZ AUX)
	 Singles Energy            =      -0.0000000000000000 [Eh]
	 Same-Spin Energy          =      -0.0055159470436313 [Eh]
	 Opposite-Spin Energy      =      -0.0172102272427386 [Eh]
	 Correlation Energy        =      -0.0227261742863698 [Eh]
	 Total Energy              =    -161.6988114535042484 [Eh]
	 SCS Total Energy          =    -161.6985762009237249 [Eh]
                               Psi4 1.9 release
    Molecular point group: c1

    Geometry (in Bohr), charge = 1, multiplicity = 1:

       Center              X                  Y                   Z               Mass
    ------------   -----------------  -----------------  -----------------  -----------------
         NA           0.000000000000     0.000000000000     0.000000000000    22.989769282000
         O            2.368543041400    -1.046808118019    -3.393921665157    15.994914619570
         H            2.406547323509    -2.327432049541    -4.606288689027     1.007825032230
         H            4.074786208707    -0.463778475436    -3.332770127737     1.007825032230
         O            3.124928599828    -0.426737953651     2.758794163021    15.994914619570
         H            4.324135570961     0.931823952463     2.573183373252     1.007825032230
         H            3.136726160029    -0.958954750446     4.554266418519     1.007825032230
         O           -0.373001701547    -4.512522368408     0.223919317784    15.994914619570
         H            0.798320470878    -5.487898838884     1.220521192102     1.007825032230
         H           -1.679220083712    -5.673127903976    -0.280422128935     1.007825032230
         O           -1.307650794568     3.301789957636     3.096465544927    15.994914619570
         H           -0.115033298435     3.780002161218     4.357364515151     1.007825032230
         H           -1.797836302881     5.008717205800     2.584905344408     1.007825032230

  Charge       = 1
  Multiplicity = 1
  Basis Set: AUG-CC-PVTZ
    Blend: AUG-CC-PVTZ
  Basis Set: (AUG-CC-PVTZ AUX)
    Blend: AUG-CC-PVTZ-JKFIT + DEF2-UNIVERSAL-JKFIT

    Orbital Energies [Eh]
    ---------------------

    Doubly Occupied:

       1A    -40.571696     2A    -20.740133     3A    -20.729561
       4A    -20.721935     5A    -20.716530     6A     -2.894549
       7A     -1.620627     8A     -1.619355     9A     -1.618126
      10A     -1.522095    11A     -1.518448    12A     -1.514446
      13A     -1.501561    14A     -0.889995    15A     -0.883728
      16A     -0.867930    17A     -0.858253    18A     -0.775039
      19A     -0.766572    20A     -0.760270    21A     -0.742753
      22A     -0.692093    23A     -0.678217    24A     -0.670723
      25A     -0.659231

  @DF-RHF Final Energy:  -466.01917940742635

   => Energetics <=

    Nuclear Repulsion Energy =            219.1954310364801017
    One-Electron Energy =               -1077.3614879741510322
    Two-Electron Energy =                 392.1468775302445238
    Total Energy =                       -466.0191794074263498
 Dipole X            :        -40.1857805           41.6509792            1.4651987
 Dipole Y            :         26.5280943          -26.6648766           -0.1367823
 Dipole Z            :        -27.8143503           28.5528188            0.7384685
 Magnitude           :                                                    1.6464666
  Basis Set: (AUG-CC-PVTZ AUX)
    Blend: AUG-CC-PVTZ-RI + DEF2-QZVPP-RI
	 Reference Energy          =    -466.0191794074263498 [Eh]
	 Singles Energy            =      -0.0000000000000000 [Eh]
	 Same-Spin Energy          =      -0.2806424447418378 [Eh]
	 Opposite-Spin Energy      =      -0.8788748991705151 [Eh]
	 Correlation Energy        =      -1.1595173439123529 [Eh]
	 Total Energy              =    -467.1786967513386912 [Eh]

	 ================> DF-SCS-MP2 Energies <==================
	-----------------------------------------------------------
	 SCS Same-Spin Scale       =       0.3333333333333333 [-]
	 SCS Opposite-Spin Scale   =       1.2000000000000000 [-]
	 SCS Same-Spin Energy      =      -0.0935474815806126 [Eh]
	 SCS Opposite-Spin Energy  =      -1.0546498790046182 [Eh]
	 SCS Correlation Energy    =      -1.1481973605852307 [Eh]
	 SCS Total Energy          =    -467.1673767680115930 [Eh]
	-----------------------------------------------------------

*** Psi4 exiting successfully. Buy a developer a beer!
