                               Psi4 1.8.2 release

  ==> Input File <==

--------------------------------------------------------------------------
MEMORY 60 GB

molecule dimer {
0 1
Gh(Na)     0.000000     0.000000     0.000000
Gh(O)     -0.782764     1.574336     1.489851
Gh(H)     -0.365882     2.444567     1.403941
Gh(H)     -1.011175     1.409415     2.372406
Gh(O)     -0.098756     1.868143    -1.484671
Gh(H)      0.699059     2.415994    -1.669660
Gh(H)     -0.606397     1.831447    -2.328393
O          1.230954    -0.321593     2.079717
H          1.596389    -1.191434     1.961752
H          2.015878     0.284373     2.134339
Gh(O)     -1.145709    -1.300220    -1.924777
Gh(H)     -1.877147    -0.797909    -2.151236
Gh(H)     -1.485771    -2.184237    -1.927249
Gh(O)      1.838755    -0.607862    -1.272790
Gh(H)      1.384497    -0.352534    -2.065372
Gh(H)      2.683776    -0.133099    -1.228283

units ang
no_reorient
no_com
symmetry c1
}

set {
basis        aug-cc-pVTZ
scf_type     df
}

energy("mp2")
--------------------------------------------------------------------------

    Molecular point group: c1

    Geometry (in Angstrom), charge = 0, multiplicity = 1:

       Center              X                  Y                   Z               Mass
    ------------   -----------------  -----------------  -----------------  -----------------
      Gh(NA)          0.000000000000     0.000000000000     0.000000000000    22.989769282000
      Gh(O)          -0.782764000000     1.574336000000     1.489851000000    15.994914619570
      Gh(H)          -0.365882000000     2.444567000000     1.403941000000     1.007825032230
      Gh(H)          -1.011175000000     1.409415000000     2.372406000000     1.007825032230
      Gh(O)          -0.098756000000     1.868143000000    -1.484671000000    15.994914619570
      Gh(H)           0.699059000000     2.415994000000    -1.669660000000     1.007825032230
      Gh(H)          -0.606397000000     1.831447000000    -2.328393000000     1.007825032230
         O            1.230954000000    -0.321593000000     2.079717000000    15.994914619570
         H            1.596389000000    -1.191434000000     1.961752000000     1.007825032230
         H            2.015878000000     0.284373000000     2.134339000000     1.007825032230
      Gh(O)          -1.145709000000    -1.300220000000    -1.924777000000    15.994914619570
      Gh(H)          -1.877147000000    -0.797909000000    -2.151236000000     1.007825032230
      Gh(H)          -1.485771000000    -2.184237000000    -1.927249000000     1.007825032230
      Gh(O)           1.838755000000    -0.607862000000    -1.272790000000    15.994914619570
      Gh(H)           1.384497000000    -0.352534000000    -2.065372000000     1.007825032230
      Gh(H)           2.683776000000    -0.133099000000    -1.228283000000     1.007825032230

  Charge       = 0
  Multiplicity = 1
  Basis Set: AUG-CC-PVTZ
    Blend: AUG-CC-PVTZ
  Basis Set: (AUG-CC-PVTZ AUX)
    Blend: AUG-CC-PVTZ-JKFIT + DEF2-UNIVERSAL-JKFIT

    Orbital Energies [Eh]
    ---------------------

    Doubly Occupied:

       1A    -20.569158     2A     -1.345951     3A     -0.711039
       4A     -0.580620     5A     -0.508974

  @DF-RHF Final Energy:   -76.05857506702428

   => Energetics <=

    Nuclear Repulsion Energy =              9.0578252050745469
    One-Electron Energy =                -122.8013130738263925
    Two-Electron Energy =                  37.6849128017275490
    Total Energy =                        -76.0585750670242930
 Dipole X            :        -24.6780625           25.4355228            0.7574603
 Dipole Y            :          6.3947820           -6.5758784           -0.1810964
 Dipole Z            :        -39.2236364           39.1812546           -0.0423819
 Magnitude           :                                                    0.7799604
  Basis Set: (AUG-CC-PVTZ AUX)
    Blend: AUG-CC-PVTZ-RI + DEF2-QZVPP-RI
	 Reference Energy          =     -76.0585750670242788 [Eh]
	 Singles Energy            =      -0.0000000000000000 [Eh]
	 Same-Spin Energy          =      -0.0686538616784477 [Eh]
	 Opposite-Spin Energy      =      -0.2166013615938630 [Eh]
	 Correlation Energy        =      -0.2852552232723107 [Eh]
	 Total Energy              =     -76.3438302902965944 [Eh]

	 ================> DF-SCS-MP2 Energies <==================
	-----------------------------------------------------------
	 SCS Same-Spin Scale       =       0.3333333333333333 [-]
	 SCS Opposite-Spin Scale   =       1.2000000000000000 [-]
	 SCS Same-Spin Energy      =      -0.0228846205594826 [Eh]
	 SCS Opposite-Spin Energy  =      -0.2599216339126356 [Eh]
	 SCS Correlation Energy    =      -0.2828062544721182 [Eh]
	 SCS Total Energy          =     -76.3413813214963994 [Eh]
	-----------------------------------------------------------

*** Psi4 exiting successfully. Buy a developer a beer!
