                               Psi4 1.8.2 release

  ==> Input File <==

--------------------------------------------------------------------------
MEMORY 60 GB

molecule dimer {
1 1
Na         0.000000     0.000000     0.000000
O          2.278346     0.669364     0.093229
H          2.155569     1.631124     0.248455
H          2.996795     0.615513    -0.539242
O         -0.417855     2.173232    -1.030201
H         -1.263162     1.963044    -0.589085
H         -0.580901     2.219109    -2.006056
O          0.265411     0.942068     2.195530
H          0.357741     1.810493     2.531820
H         -0.347040     0.368824     2.685547
O         -2.262886     0.226621     0.167464
H         -2.857538    -0.347387     0.685673
H         -2.901645     0.732549    -0.387800
O          0.439362    -2.429410     0.826166
H          0.485462    -2.565000     1.758293
H         -0.253748    -2.976041     0.529420
O         -0.408571    -1.310127    -2.006589
H         -1.342634    -1.270196    -2.124955
H         -0.009102    -1.170847    -2.843478

units ang
no_reorient
no_com
symmetry c1
}

set {
basis        aug-cc-pVTZ
scf_type     df
}

energy("mp2")
--------------------------------------------------------------------------

    Molecular point group: c1

    Geometry (in Angstrom), charge = 1, multiplicity = 1:

       Center              X                  Y                   Z               Mass
    ------------   -----------------  -----------------  -----------------  -----------------
         NA           0.000000000000     0.000000000000     0.000000000000    22.989769282000
         O            2.278346000000     0.669364000000     0.093229000000    15.994914619570
         H            2.155569000000     1.631124000000     0.248455000000     1.007825032230
         H            2.996795000000     0.615513000000    -0.539242000000     1.007825032230
         O           -0.417855000000     2.173232000000    -1.030201000000    15.994914619570
         H           -1.263162000000     1.963044000000    -0.589085000000     1.007825032230
         H           -0.580901000000     2.219109000000    -2.006056000000     1.007825032230
         O            0.265411000000     0.942068000000     2.195530000000    15.994914619570
         H            0.357741000000     1.810493000000     2.531820000000     1.007825032230
         H           -0.347040000000     0.368824000000     2.685547000000     1.007825032230
         O           -2.262886000000     0.226621000000     0.167464000000    15.994914619570
         H           -2.857538000000    -0.347387000000     0.685673000000     1.007825032230
         H           -2.901645000000     0.732549000000    -0.387800000000     1.007825032230
         O            0.439362000000    -2.429410000000     0.826166000000    15.994914619570
         H            0.485462000000    -2.565000000000     1.758293000000     1.007825032230
         H           -0.253748000000    -2.976041000000     0.529420000000     1.007825032230
         O           -0.408571000000    -1.310127000000    -2.006589000000    15.994914619570
         H           -1.342634000000    -1.270196000000    -2.124955000000     1.007825032230
         H           -0.009102000000    -1.170847000000    -2.843478000000     1.007825032230

  Charge       = 1
  Multiplicity = 1
  Basis Set: AUG-CC-PVTZ
    Blend: AUG-CC-PVTZ
  Basis Set: (AUG-CC-PVTZ AUX)
    Blend: AUG-CC-PVTZ-JKFIT + DEF2-UNIVERSAL-JKFIT

    Orbital Energies [Eh]
    ---------------------

    Doubly Occupied:

       1A    -40.535336     2A    -20.757906     3A    -20.717322
       4A    -20.711047     5A    -20.704189     6A    -20.694982
       7A    -20.689592     8A     -2.858285     9A     -1.585025
      10A     -1.583183    11A     -1.582841    12A     -1.534749
      13A     -1.511113    14A     -1.496248    15A     -1.494391
      16A     -1.489699    17A     -1.470437    18A     -0.898740
      19A     -0.885987    20A     -0.883990    21A     -0.862151
      22A     -0.858707    23A     -0.834996    24A     -0.790040
      25A     -0.742852    26A     -0.727318    27A     -0.725884
      28A     -0.719570    29A     -0.705413    30A     -0.703310
      31A     -0.669695    32A     -0.657727    33A     -0.654848
      34A     -0.647327    35A     -0.634371

  @DF-RHF Final Energy:  -618.15221862575640

   => Energetics <=

    Nuclear Repulsion Energy =            407.4110845413730999
    One-Electron Energy =               -1661.0880569751363964
    Two-Electron Energy =                 635.5247538080068352
    Total Energy =                       -618.1522186257564044
 Dipole X            :          6.0597253           -8.3332141           -2.2734888
 Dipole Y            :         -5.7326292            6.0190971            0.2864679
 Dipole Z            :         -3.9198164            3.6157717           -0.3040446
 Magnitude           :                                                    2.3115489
  Basis Set: (AUG-CC-PVTZ AUX)
    Blend: AUG-CC-PVTZ-RI + DEF2-QZVPP-RI
	 Reference Energy          =    -618.1522186257564044 [Eh]
	 Singles Energy            =      -0.0000000000000000 [Eh]
	 Same-Spin Energy          =      -0.4222003620085995 [Eh]
	 Opposite-Spin Energy      =      -1.3185791844366210 [Eh]
	 Correlation Energy        =      -1.7407795464452205 [Eh]
	 Total Energy              =    -619.8929981722016009 [Eh]

	 ================> DF-SCS-MP2 Energies <==================
	-----------------------------------------------------------
	 SCS Same-Spin Scale       =       0.3333333333333333 [-]
	 SCS Opposite-Spin Scale   =       1.2000000000000000 [-]
	 SCS Same-Spin Energy      =      -0.1407334540028665 [Eh]
	 SCS Opposite-Spin Energy  =      -1.5822950213239453 [Eh]
	 SCS Correlation Energy    =      -1.7230284753268117 [Eh]
	 SCS Total Energy          =    -619.8752471010832323 [Eh]
	-----------------------------------------------------------

*** Psi4 exiting successfully. Buy a developer a beer!
