                               Psi4 1.9 release

  ==> Input File <==

--------------------------------------------------------------------------
MEMORY 60 GB

molecule dimer {
1 1
Na     0.000000     0.000000     0.000000
--
0 1
O      0.766127     0.515039     1.981709
H      1.319922    -0.208424     2.371871
H      0.227460     0.853158     2.684082
O      1.024406     2.176228    -1.057194
H      1.536833     2.576739    -0.331655
H      0.165288     2.624778    -1.158303
O     -0.492044    -0.696903    -2.430464
H      0.340264    -0.313786    -2.821962
H     -0.852891    -1.398862    -2.972918
O     -2.210786     0.705829     0.674056
H     -2.694782     0.461413     1.505258
H     -2.606634     1.473977     0.320053

units ang
no_reorient
no_com
symmetry c1
}

set {
basis        aug-cc-pVTZ
scf_type     df
}

energy("mp2", bsse_type="cp")
--------------------------------------------------------------------------

                               Psi4 1.9 release
    Molecular point group: c1
  Charge       = 0
  Multiplicity = 1
  Basis Set: AUG-CC-PVTZ
    Blend: AUG-CC-PVTZ
  Basis Set: (AUG-CC-PVTZ AUX)
    Blend: AUG-CC-PVTZ-JKFIT + DEF2-UNIVERSAL-JKFIT
  @DF-RHF Final Energy:  -304.22443991077790
    Total Energy =                       -304.2244399107779032
 Dipole X            :         18.1490063          -18.6382100           -0.4892037
 Dipole Y            :        -51.8918471           52.2897367            0.3978896
 Dipole Z            :         14.1766319          -13.3390438            0.8375881
 Magnitude           :                                                    1.0484227
  Basis Set: (AUG-CC-PVTZ AUX)
    Blend: AUG-CC-PVTZ-RI + DEF2-QZVPP-RI
	 Reference Energy          =    -304.2244399107779032 [Eh]
	 Singles Energy            =      -0.0000000000000000 [Eh]
	 Same-Spin Energy          =      -0.2757140364488818 [Eh]
	 Opposite-Spin Energy      =      -0.8667501957424184 [Eh]
	 Correlation Energy        =      -1.1424642321913001 [Eh]
	 Total Energy              =    -305.3669041429691902 [Eh]
	 SCS Total Energy          =    -305.3564448244850951 [Eh]
                               Psi4 1.9 release
    Molecular point group: c1
  Multiplicity = 1
  Basis Set: AUG-CC-PVTZ
    Blend: AUG-CC-PVTZ
  Basis Set: (AUG-CC-PVTZ AUX)
    Blend: AUG-CC-PVTZ-JKFIT + DEF2-UNIVERSAL-JKFIT
  @DF-RHF Final Energy:  -161.67608126160718
    Total Energy =                       -161.6760812616071803
  Basis Set: (AUG-CC-PVTZ AUX)
	 Singles Energy            =      -0.0000000000000000 [Eh]
	 Same-Spin Energy          =      -0.0051329146851731 [Eh]
	 Opposite-Spin Energy      =      -0.0163883283138762 [Eh]
	 Correlation Energy        =      -0.0215212429990493 [Eh]
	 Total Energy              =    -161.6976025046062375 [Eh]
	 SCS Total Energy          =    -161.6974582271455461 [Eh]
                               Psi4 1.9 release
    Molecular point group: c1

    Geometry (in Bohr), charge = 1, multiplicity = 1:

       Center              X                  Y                   Z               Mass
    ------------   -----------------  -----------------  -----------------  -----------------
         NA           0.000000000000     0.000000000000     0.000000000000    22.989769282000
         O            1.447770207319     0.973282653930     3.744887270355    15.994914619570
         H            2.494291086967    -0.393864277972     4.482186594916     1.007825032230
         H            0.429837104497     1.612234961743     5.072179878271     1.007825032230
         O            1.935846781276     4.112474906553    -1.997807121477    15.994914619570
         H            2.904193470566     4.869331006786    -0.626737118139     1.007825032230
         H            0.312349051825     4.960111560127    -2.188875440296     1.007825032230
         O           -0.929828401675    -1.316955806010    -4.592911317785    15.994914619570
         H            0.643005770353    -0.592969602003    -5.332735316449     1.007825032230
         H           -1.611730404868    -2.643466067310    -5.618000813444     1.007825032230
         O           -4.177780061996     1.333823501406     1.273781233222    15.994914619570
         H           -5.092399947813     0.871944200726     2.844525368154     1.007825032230
         H           -4.925824369307     2.785412845224     0.604812515631     1.007825032230

  Charge       = 1
  Multiplicity = 1
  Basis Set: AUG-CC-PVTZ
    Blend: AUG-CC-PVTZ
  Basis Set: (AUG-CC-PVTZ AUX)
    Blend: AUG-CC-PVTZ-JKFIT + DEF2-UNIVERSAL-JKFIT

    Orbital Energies [Eh]
    ---------------------

    Doubly Occupied:

       1A    -40.592973     2A    -20.748010     3A    -20.733627
       4A    -20.721649     5A    -20.716801     6A     -2.914171
       7A     -1.639392     8A     -1.638489     9A     -1.637794
      10A     -1.531021    11A     -1.518588    12A     -1.496670
      13A     -1.490219    14A     -0.899506    15A     -0.890686
      16A     -0.874354    17A     -0.870406    18A     -0.778409
      19A     -0.758954    20A     -0.729490    21A     -0.726219
      22A     -0.699567    23A     -0.679860    24A     -0.666133
      25A     -0.659963

  @DF-RHF Final Energy:  -466.01163143765564

   => Energetics <=

    Nuclear Repulsion Energy =            210.3309965799161319
    One-Electron Energy =               -1059.4593487205318070
    Two-Electron Energy =                 383.1167207029600377
    Total Energy =                       -466.0116314376556375
 Dipole X            :         18.0286340          -18.6382100           -0.6095761
 Dipole Y            :        -51.6048547           52.2897367            0.6848820
 Dipole Z            :         14.2148838          -13.3390438            0.8758400
 Magnitude           :                                                    1.2679677
  Basis Set: (AUG-CC-PVTZ AUX)
    Blend: AUG-CC-PVTZ-RI + DEF2-QZVPP-RI
	 Reference Energy          =    -466.0116314376556375 [Eh]
	 Singles Energy            =      -0.0000000000000000 [Eh]
	 Same-Spin Energy          =      -0.2800166301099608 [Eh]
	 Opposite-Spin Energy      =      -0.8785816595857572 [Eh]
	 Correlation Energy        =      -1.1585982896957181 [Eh]
	 Total Energy              =    -467.1702297273513409 [Eh]

	 ================> DF-SCS-MP2 Energies <==================
	-----------------------------------------------------------
	 SCS Same-Spin Scale       =       0.3333333333333333 [-]
	 SCS Opposite-Spin Scale   =       1.2000000000000000 [-]
	 SCS Same-Spin Energy      =      -0.0933388767033203 [Eh]
	 SCS Opposite-Spin Energy  =      -1.0542979915029085 [Eh]
	 SCS Correlation Energy    =      -1.1476368682062288 [Eh]
	 SCS Total Energy          =    -467.1592683058618718 [Eh]
	-----------------------------------------------------------

*** Psi4 exiting successfully. Buy a developer a beer!
