                               Psi4 1.9 release

  ==> Input File <==

--------------------------------------------------------------------------
MEMORY 60 GB

molecule dimer {
1 1
Na     0.000000     0.000000     0.000000
--
0 1
O     -1.395183     1.416531     1.115880
H     -1.935421     2.181378     0.930318
H     -0.776281     1.627815     1.829800
O     -1.644028    -1.867254    -0.467300
H     -1.184540    -2.597510    -0.013234
H     -1.955768    -2.260579    -1.228122
O      1.995929     1.382494     0.461430
H      2.261805     2.279725     0.187226
H      2.772848     0.877410     0.253783
O      0.711563    -1.241514     1.652283
H      0.535075    -1.057522     2.588328
H      1.001081    -2.145098     1.605558

units ang
no_reorient
no_com
symmetry c1
}

set {
basis        aug-cc-pVTZ
scf_type     df
}

energy("mp2", bsse_type="cp")
--------------------------------------------------------------------------

                               Psi4 1.9 release
    Molecular point group: c1
  Charge       = 0
  Multiplicity = 1
  Basis Set: AUG-CC-PVTZ
    Blend: AUG-CC-PVTZ
  Basis Set: (AUG-CC-PVTZ AUX)
    Blend: AUG-CC-PVTZ-JKFIT + DEF2-UNIVERSAL-JKFIT
  @DF-RHF Final Energy:  -304.22586017749461
    Total Energy =                       -304.2258601774946101
 Dipole X            :          4.5634831           -3.6565312            0.9069519
 Dipole Y            :          6.4559972           -6.7507159           -0.2947187
 Dipole Z            :        -53.0203521           53.3885444            0.3681923
 Magnitude           :                                                    1.0222457
  Basis Set: (AUG-CC-PVTZ AUX)
    Blend: AUG-CC-PVTZ-RI + DEF2-QZVPP-RI
	 Reference Energy          =    -304.2258601774946101 [Eh]
	 Singles Energy            =      -0.0000000000000000 [Eh]
	 Same-Spin Energy          =      -0.2755172182817219 [Eh]
	 Opposite-Spin Energy      =      -0.8655653549382857 [Eh]
	 Correlation Energy        =      -1.1410825732200076 [Eh]
	 Total Energy              =    -305.3669427507145997 [Eh]
	 SCS Total Energy          =    -305.3563776761811255 [Eh]
                               Psi4 1.9 release
    Molecular point group: c1
  Multiplicity = 1
  Basis Set: AUG-CC-PVTZ
    Blend: AUG-CC-PVTZ
  Basis Set: (AUG-CC-PVTZ AUX)
    Blend: AUG-CC-PVTZ-JKFIT + DEF2-UNIVERSAL-JKFIT
  @DF-RHF Final Energy:  -161.67608467666179
    Total Energy =                       -161.6760846766617874
  Basis Set: (AUG-CC-PVTZ AUX)
	 Singles Energy            =      -0.0000000000000000 [Eh]
	 Same-Spin Energy          =      -0.0056366034114513 [Eh]
	 Opposite-Spin Energy      =      -0.0175232114289355 [Eh]
	 Correlation Energy        =      -0.0231598148403868 [Eh]
	 Total Energy              =    -161.6992444915021849 [Eh]
	 SCS Total Energy          =    -161.6989913981803397 [Eh]
                               Psi4 1.9 release
    Molecular point group: c1

    Geometry (in Bohr), charge = 1, multiplicity = 1:

       Center              X                  Y                   Z               Mass
    ------------   -----------------  -----------------  -----------------  -----------------
         NA           0.000000000000     0.000000000000     0.000000000000    22.989769282000
         O           -2.636513764895     2.676855638221     2.108707588876    15.994914619570
         H           -3.657415627460     4.122206996099     1.758046229584     1.007825032230
         H           -1.466958486397     3.076124532912     3.457820864363     1.007825032230
         O           -3.106762662584    -3.528598666666    -0.883069018426    15.994914619570
         H           -2.238456184650    -4.908582508138    -0.025008635544     1.007825032230
         H           -3.695865884934    -4.271875194961    -2.320814228650     1.007825032230
         O            3.771759175859     2.612535030089     0.871976326070    15.994914619570
         H            4.274191999191     4.308055891359     0.353805863565     1.007825032230
         H            5.239923307523     1.658064599738     0.479580365297     1.007825032230
         O            1.344659191009    -2.346121440922     3.122362351750    15.994914619570
         H            1.011145206579    -1.998426951646     4.891231042854     1.007825032230
         H            1.891768919399    -4.053647732267     3.034064898538     1.007825032230

  Charge       = 1
  Multiplicity = 1
  Basis Set: AUG-CC-PVTZ
    Blend: AUG-CC-PVTZ
  Basis Set: (AUG-CC-PVTZ AUX)
    Blend: AUG-CC-PVTZ-JKFIT + DEF2-UNIVERSAL-JKFIT

    Orbital Energies [Eh]
    ---------------------

    Doubly Occupied:

       1A    -40.580037     2A    -20.743201     3A    -20.731091
       4A    -20.724248     5A    -20.717593     6A     -2.902693
       7A     -1.628860     8A     -1.627945     9A     -1.625576
      10A     -1.532241    11A     -1.517200    12A     -1.516452
      13A     -1.510210    14A     -0.901894    15A     -0.886226
      16A     -0.876493    17A     -0.872886    18A     -0.782627
      19A     -0.761173    20A     -0.752949    21A     -0.744365
      22A     -0.693982    23A     -0.678346    24A     -0.673660
      25A     -0.668415

  @DF-RHF Final Energy:  -466.01891632687307

   => Energetics <=

    Nuclear Repulsion Energy =            217.1088382680443942
    One-Electron Energy =               -1072.9547742324884894
    Two-Electron Energy =                 389.8270196375710839
    Total Energy =                       -466.0189163268730681
 Dipole X            :          4.5583874           -3.6565312            0.9018562
 Dipole Y            :          6.4330674           -6.7507159           -0.3176485
 Dipole Z            :        -52.6544417           53.3885444            0.7341027
 Magnitude           :                                                    1.2054675
  Basis Set: (AUG-CC-PVTZ AUX)
    Blend: AUG-CC-PVTZ-RI + DEF2-QZVPP-RI
	 Reference Energy          =    -466.0189163268730681 [Eh]
	 Singles Energy            =      -0.0000000000000000 [Eh]
	 Same-Spin Energy          =      -0.2800106318845162 [Eh]
	 Opposite-Spin Energy      =      -0.8776808792444771 [Eh]
	 Correlation Energy        =      -1.1576915111289934 [Eh]
	 Total Energy              =    -467.1766078380020417 [Eh]

	 ================> DF-SCS-MP2 Energies <==================
	-----------------------------------------------------------
	 SCS Same-Spin Scale       =       0.3333333333333333 [-]
	 SCS Opposite-Spin Scale   =       1.2000000000000000 [-]
	 SCS Same-Spin Energy      =      -0.0933368772948387 [Eh]
	 SCS Opposite-Spin Energy  =      -1.0532170550933726 [Eh]
	 SCS Correlation Energy    =      -1.1465539323882112 [Eh]
	 SCS Total Energy          =    -467.1654702592612693 [Eh]
	-----------------------------------------------------------

*** Psi4 exiting successfully. Buy a developer a beer!
