                               Psi4 1.8.2 release

  ==> Input File <==

--------------------------------------------------------------------------
MEMORY 60 GB

molecule dimer {
0 1
Gh(Na)     0.000000     0.000000     0.000000
Gh(O)     -2.267046    -0.058444    -0.576173
Gh(H)     -2.957507     0.583536    -0.703646
Gh(H)     -2.245748    -0.641405    -1.346391
Gh(O)      2.020528    -0.856869     0.738830
Gh(H)      2.866660    -0.369129     0.689068
Gh(H)      2.097887    -1.320091     1.596498
Gh(O)      0.786320    -0.955734    -2.146642
Gh(H)      0.999726    -1.902132    -2.090619
Gh(H)      0.456867    -0.843797    -3.039678
O         -0.382137    -2.373173     0.216705
H          0.026752    -3.262338     0.298848
H         -1.300501    -2.497887     0.385697
Gh(O)     -0.519840     0.317423     2.277683
Gh(H)      0.259638     0.493602     2.844944
Gh(H)     -0.969288    -0.486423     2.544550

units ang
no_reorient
no_com
symmetry c1
}

set {
basis        aug-cc-pVTZ
scf_type     df
}

energy("mp2")
--------------------------------------------------------------------------

    Molecular point group: c1

    Geometry (in Angstrom), charge = 0, multiplicity = 1:

       Center              X                  Y                   Z               Mass
    ------------   -----------------  -----------------  -----------------  -----------------
      Gh(NA)          0.000000000000     0.000000000000     0.000000000000    22.989769282000
      Gh(O)          -2.267046000000    -0.058444000000    -0.576173000000    15.994914619570
      Gh(H)          -2.957507000000     0.583536000000    -0.703646000000     1.007825032230
      Gh(H)          -2.245748000000    -0.641405000000    -1.346391000000     1.007825032230
      Gh(O)           2.020528000000    -0.856869000000     0.738830000000    15.994914619570
      Gh(H)           2.866660000000    -0.369129000000     0.689068000000     1.007825032230
      Gh(H)           2.097887000000    -1.320091000000     1.596498000000     1.007825032230
      Gh(O)           0.786320000000    -0.955734000000    -2.146642000000    15.994914619570
      Gh(H)           0.999726000000    -1.902132000000    -2.090619000000     1.007825032230
      Gh(H)           0.456867000000    -0.843797000000    -3.039678000000     1.007825032230
         O           -0.382137000000    -2.373173000000     0.216705000000    15.994914619570
         H            0.026752000000    -3.262338000000     0.298848000000     1.007825032230
         H           -1.300501000000    -2.497887000000     0.385697000000     1.007825032230
      Gh(O)          -0.519840000000     0.317423000000     2.277683000000    15.994914619570
      Gh(H)           0.259638000000     0.493602000000     2.844944000000     1.007825032230
      Gh(H)          -0.969288000000    -0.486423000000     2.544550000000     1.007825032230

  Charge       = 0
  Multiplicity = 1
  Basis Set: AUG-CC-PVTZ
    Blend: AUG-CC-PVTZ
  Basis Set: (AUG-CC-PVTZ AUX)
    Blend: AUG-CC-PVTZ-JKFIT + DEF2-UNIVERSAL-JKFIT

    Orbital Energies [Eh]
    ---------------------

    Doubly Occupied:

       1A    -20.567218     2A     -1.350495     3A     -0.717498
       4A     -0.581424     5A     -0.509571

  @DF-RHF Final Energy:   -76.05963243633573

   => Energetics <=

    Nuclear Repulsion Energy =              9.1491632223636810
    One-Electron Energy =                -122.9651756914770004
    Two-Electron Energy =                  37.7563800327775851
    Total Energy =                        -76.0596324363357326
 Dipole X            :          7.8393029           -8.1841109           -0.3448081
 Dipole Y            :         46.0910812          -46.7624238           -0.6713426
 Dipole Z            :         -4.4022331            4.5697074            0.1674743
 Magnitude           :                                                    0.7730725
  Basis Set: (AUG-CC-PVTZ AUX)
    Blend: AUG-CC-PVTZ-RI + DEF2-QZVPP-RI
	 Reference Energy          =     -76.0596324363357326 [Eh]
	 Singles Energy            =      -0.0000000000000000 [Eh]
	 Same-Spin Energy          =      -0.0684783680771761 [Eh]
	 Opposite-Spin Energy      =      -0.2161164921747029 [Eh]
	 Correlation Energy        =      -0.2845948602518791 [Eh]
	 Total Energy              =     -76.3442272965876185 [Eh]

	 ================> DF-SCS-MP2 Energies <==================
	-----------------------------------------------------------
	 SCS Same-Spin Scale       =       0.3333333333333333 [-]
	 SCS Opposite-Spin Scale   =       1.2000000000000000 [-]
	 SCS Same-Spin Energy      =      -0.0228261226923920 [Eh]
	 SCS Opposite-Spin Energy  =      -0.2593397906096435 [Eh]
	 SCS Correlation Energy    =      -0.2821659133020356 [Eh]
	 SCS Total Energy          =     -76.3417983496377701 [Eh]
	-----------------------------------------------------------

*** Psi4 exiting successfully. Buy a developer a beer!
