                               Psi4 1.8.2 release

  ==> Input File <==

--------------------------------------------------------------------------
MEMORY 60 GB

molecule dimer {
0 1
Gh(Na)     0.000000     0.000000     0.000000
Gh(O)     -0.763534     0.932846     2.231461
Gh(H)     -0.733128     1.900005     2.285331
Gh(H)     -0.178159     0.502091     2.866138
Gh(O)      0.452399     2.241951    -0.962680
Gh(H)      1.205593     2.615208    -0.515886
Gh(H)      0.800151     2.215705    -1.892096
O          0.346113    -2.463872     0.347284
H          0.268206    -3.107115    -0.361290
H         -0.089641    -3.005871     1.016265
Gh(O)      2.050775    -0.213605    -1.193701
Gh(H)      2.004919    -1.173998    -1.292082
Gh(H)      2.563798    -0.024846    -0.341802
Gh(O)     -1.677611    -0.559730    -1.506099
Gh(H)     -2.457862    -0.155870    -2.009591
Gh(H)     -1.026711    -0.660387    -2.183118

units ang
no_reorient
no_com
symmetry c1
}

set {
basis        aug-cc-pVTZ
scf_type     df
}

energy("mp2")
--------------------------------------------------------------------------

    Molecular point group: c1

    Geometry (in Angstrom), charge = 0, multiplicity = 1:

       Center              X                  Y                   Z               Mass
    ------------   -----------------  -----------------  -----------------  -----------------
      Gh(NA)          0.000000000000     0.000000000000     0.000000000000    22.989769282000
      Gh(O)          -0.763534000000     0.932846000000     2.231461000000    15.994914619570
      Gh(H)          -0.733128000000     1.900005000000     2.285331000000     1.007825032230
      Gh(H)          -0.178159000000     0.502091000000     2.866138000000     1.007825032230
      Gh(O)           0.452399000000     2.241951000000    -0.962680000000    15.994914619570
      Gh(H)           1.205593000000     2.615208000000    -0.515886000000     1.007825032230
      Gh(H)           0.800151000000     2.215705000000    -1.892096000000     1.007825032230
         O            0.346113000000    -2.463872000000     0.347284000000    15.994914619570
         H            0.268206000000    -3.107115000000    -0.361290000000     1.007825032230
         H           -0.089641000000    -3.005871000000     1.016265000000     1.007825032230
      Gh(O)           2.050775000000    -0.213605000000    -1.193701000000    15.994914619570
      Gh(H)           2.004919000000    -1.173998000000    -1.292082000000     1.007825032230
      Gh(H)           2.563798000000    -0.024846000000    -0.341802000000     1.007825032230
      Gh(O)          -1.677611000000    -0.559730000000    -1.506099000000    15.994914619570
      Gh(H)          -2.457862000000    -0.155870000000    -2.009591000000     1.007825032230
      Gh(H)          -1.026711000000    -0.660387000000    -2.183118000000     1.007825032230

  Charge       = 0
  Multiplicity = 1
  Basis Set: AUG-CC-PVTZ
    Blend: AUG-CC-PVTZ
  Basis Set: (AUG-CC-PVTZ AUX)
    Blend: AUG-CC-PVTZ-JKFIT + DEF2-UNIVERSAL-JKFIT

    Orbital Energies [Eh]
    ---------------------

    Doubly Occupied:

       1A    -20.571568     2A     -1.357378     3A     -0.696767
       4A     -0.601345     5A     -0.512393

  @DF-RHF Final Energy:   -76.05766637159485

   => Energetics <=

    Nuclear Repulsion Energy =              9.1670055425132162
    One-Electron Energy =                -122.9704412403618363
    Two-Electron Energy =                  37.7457693262537575
    Total Energy =                        -76.0576663715948484
 Dipole X            :         -5.9017518            5.5699092           -0.3318427
 Dipole Y            :         48.0332991          -48.8002157           -0.7669166
 Dipole Z            :         -6.5144418            6.4878966           -0.0265452
 Magnitude           :                                                    0.8360534
  Basis Set: (AUG-CC-PVTZ AUX)
    Blend: AUG-CC-PVTZ-RI + DEF2-QZVPP-RI
	 Reference Energy          =     -76.0576663715948484 [Eh]
	 Singles Energy            =      -0.0000000000000000 [Eh]
	 Same-Spin Energy          =      -0.0687627414674961 [Eh]
	 Opposite-Spin Energy      =      -0.2166666410748729 [Eh]
	 Correlation Energy        =      -0.2854293825423690 [Eh]
	 Total Energy              =     -76.3430957541372237 [Eh]

	 ================> DF-SCS-MP2 Energies <==================
	-----------------------------------------------------------
	 SCS Same-Spin Scale       =       0.3333333333333333 [-]
	 SCS Opposite-Spin Scale   =       1.2000000000000000 [-]
	 SCS Same-Spin Energy      =      -0.0229209138224987 [Eh]
	 SCS Opposite-Spin Energy  =      -0.2599999692898474 [Eh]
	 SCS Correlation Energy    =      -0.2829208831123461 [Eh]
	 SCS Total Energy          =     -76.3405872547071880 [Eh]
	-----------------------------------------------------------

*** Psi4 exiting successfully. Buy a developer a beer!
