                               Psi4 1.8.2 release

  ==> Input File <==

--------------------------------------------------------------------------
MEMORY 60 GB

molecule dimer {
1 1
Na         0.000000     0.000000     0.000000
O         -1.748724     1.414062     0.874886
H         -1.689945     2.308594     0.549541
H         -2.361366     1.350837     1.632814
O          0.302414     0.965556    -2.034213
H         -0.601270     1.062348    -2.426937
H          0.779372     0.758555    -2.825749
O          1.437561    -1.515632     0.722924
H          2.205461    -0.891894     0.700578
H          1.302992    -1.600284     1.634306
O          1.297210     1.818155     1.214323
H          1.433743     2.095204     2.181625
H          2.169762     1.506935     0.937370
O         -1.726322    -1.655173    -0.241891
H         -2.216976    -1.775963     0.645435
H         -1.679070    -2.537642    -0.673875

units ang
no_reorient
no_com
symmetry c1
}

set {
basis        aug-cc-pVTZ
scf_type     df
}

energy("mp2")
--------------------------------------------------------------------------

    Molecular point group: c1

    Geometry (in Angstrom), charge = 1, multiplicity = 1:

       Center              X                  Y                   Z               Mass
    ------------   -----------------  -----------------  -----------------  -----------------
         NA           0.000000000000     0.000000000000     0.000000000000    22.989769282000
         O           -1.748724000000     1.414062000000     0.874886000000    15.994914619570
         H           -1.689945000000     2.308594000000     0.549541000000     1.007825032230
         H           -2.361366000000     1.350837000000     1.632814000000     1.007825032230
         O            0.302414000000     0.965556000000    -2.034213000000    15.994914619570
         H           -0.601270000000     1.062348000000    -2.426937000000     1.007825032230
         H            0.779372000000     0.758555000000    -2.825749000000     1.007825032230
         O            1.437561000000    -1.515632000000     0.722924000000    15.994914619570
         H            2.205461000000    -0.891894000000     0.700578000000     1.007825032230
         H            1.302992000000    -1.600284000000     1.634306000000     1.007825032230
         O            1.297210000000     1.818155000000     1.214323000000    15.994914619570
         H            1.433743000000     2.095204000000     2.181625000000     1.007825032230
         H            2.169762000000     1.506935000000     0.937370000000     1.007825032230
         O           -1.726322000000    -1.655173000000    -0.241891000000    15.994914619570
         H           -2.216976000000    -1.775963000000     0.645435000000     1.007825032230
         H           -1.679070000000    -2.537642000000    -0.673875000000     1.007825032230

  Charge       = 1
  Multiplicity = 1
  Basis Set: AUG-CC-PVTZ
    Blend: AUG-CC-PVTZ
  Basis Set: (AUG-CC-PVTZ AUX)
    Blend: AUG-CC-PVTZ-JKFIT + DEF2-UNIVERSAL-JKFIT

    Orbital Energies [Eh]
    ---------------------

    Doubly Occupied:

       1A    -40.548241     2A    -20.734751     3A    -20.727349
       4A    -20.726806     5A    -20.718133     6A    -20.711384
       7A     -2.872714     8A     -1.600666     9A     -1.597903
      10A     -1.596232    11A     -1.527369    12A     -1.511324
      13A     -1.495695    14A     -1.493316    15A     -1.478041
      16A     -0.882716    17A     -0.874955    18A     -0.859266
      19A     -0.854659    20A     -0.846107    21A     -0.767988
      22A     -0.764711    23A     -0.743961    24A     -0.734023
      25A     -0.723393    26A     -0.692658    27A     -0.674190
      28A     -0.665485    29A     -0.657808    30A     -0.654379

  @DF-RHF Final Energy:  -542.07402448654159

   => Energetics <=

    Nuclear Repulsion Energy =            304.1730150534723407
    One-Electron Energy =               -1351.0216215651114453
    Two-Electron Energy =                 504.7745820250974589
    Total Energy =                       -542.0740244865414752
 Dipole X            :          7.9173917           -7.8616103            0.0557814
 Dipole Y            :        -19.5734963           19.8278266            0.2543304
 Dipole Z            :        -11.6914084           12.5540932            0.8626848
 Magnitude           :                                                    0.9011218
  Basis Set: (AUG-CC-PVTZ AUX)
    Blend: AUG-CC-PVTZ-RI + DEF2-QZVPP-RI
	 Reference Energy          =    -542.0740244865415889 [Eh]
	 Singles Energy            =      -0.0000000000000000 [Eh]
	 Same-Spin Energy          =      -0.3516710446196897 [Eh]
	 Opposite-Spin Energy      =      -1.1011365802981625 [Eh]
	 Correlation Energy        =      -1.4528076249178523 [Eh]
	 Total Energy              =    -543.5268321114593846 [Eh]

	 ================> DF-SCS-MP2 Energies <==================
	-----------------------------------------------------------
	 SCS Same-Spin Scale       =       0.3333333333333333 [-]
	 SCS Opposite-Spin Scale   =       1.2000000000000000 [-]
	 SCS Same-Spin Energy      =      -0.1172236815398966 [Eh]
	 SCS Opposite-Spin Energy  =      -1.3213638963577949 [Eh]
	 SCS Correlation Energy    =      -1.4385875778976915 [Eh]
	 SCS Total Energy          =    -543.5126120644392813 [Eh]
	-----------------------------------------------------------

*** Psi4 exiting successfully. Buy a developer a beer!
