                               Psi4 1.8.2 release

  ==> Input File <==

--------------------------------------------------------------------------
MEMORY 60 GB

molecule dimer {
0 1
Gh(Na)     0.000000     0.000000     0.000000
Gh(O)      2.200023    -0.188222    -0.286542
Gh(H)      2.895583     0.458553    -0.239530
Gh(H)      2.596252    -0.970724    -0.637590
Gh(O)     -2.027672     0.184032     1.494454
Gh(H)     -2.514049    -0.102364     0.712930
Gh(H)     -2.397718     1.017536     1.839885
Gh(O)     -0.365594    -2.633320     0.181044
Gh(H)     -1.247852    -2.871394     0.397864
Gh(H)     -0.040790    -3.230710    -0.525988
O         -0.373167     2.099173    -1.094592
H         -0.625127     2.930081    -0.644687
H         -0.748604     2.251364    -1.958488
Gh(O)      0.543302     1.414289     1.993847
Gh(H)      1.399965     1.002046     2.227791
Gh(H)     -0.019699     1.251749     2.818915

units ang
no_reorient
no_com
symmetry c1
}

set {
basis        aug-cc-pVTZ
scf_type     df
}

energy("mp2")
--------------------------------------------------------------------------

    Molecular point group: c1

    Geometry (in Angstrom), charge = 0, multiplicity = 1:

       Center              X                  Y                   Z               Mass
    ------------   -----------------  -----------------  -----------------  -----------------
      Gh(NA)          0.000000000000     0.000000000000     0.000000000000    22.989769282000
      Gh(O)           2.200023000000    -0.188222000000    -0.286542000000    15.994914619570
      Gh(H)           2.895583000000     0.458553000000    -0.239530000000     1.007825032230
      Gh(H)           2.596252000000    -0.970724000000    -0.637590000000     1.007825032230
      Gh(O)          -2.027672000000     0.184032000000     1.494454000000    15.994914619570
      Gh(H)          -2.514049000000    -0.102364000000     0.712930000000     1.007825032230
      Gh(H)          -2.397718000000     1.017536000000     1.839885000000     1.007825032230
      Gh(O)          -0.365594000000    -2.633320000000     0.181044000000    15.994914619570
      Gh(H)          -1.247852000000    -2.871394000000     0.397864000000     1.007825032230
      Gh(H)          -0.040790000000    -3.230710000000    -0.525988000000     1.007825032230
         O           -0.373167000000     2.099173000000    -1.094592000000    15.994914619570
         H           -0.625127000000     2.930081000000    -0.644687000000     1.007825032230
         H           -0.748604000000     2.251364000000    -1.958488000000     1.007825032230
      Gh(O)           0.543302000000     1.414289000000     1.993847000000    15.994914619570
      Gh(H)           1.399965000000     1.002046000000     2.227791000000     1.007825032230
      Gh(H)          -0.019699000000     1.251749000000     2.818915000000     1.007825032230

  Charge       = 0
  Multiplicity = 1
  Basis Set: AUG-CC-PVTZ
    Blend: AUG-CC-PVTZ
  Basis Set: (AUG-CC-PVTZ AUX)
    Blend: AUG-CC-PVTZ-JKFIT + DEF2-UNIVERSAL-JKFIT

    Orbital Energies [Eh]
    ---------------------

    Doubly Occupied:

       1A    -20.570300     2A     -1.352115     3A     -0.704794
       4A     -0.591281     5A     -0.510810

  @DF-RHF Final Energy:   -76.05907221906588

   => Energetics <=

    Nuclear Repulsion Energy =              9.1224369733101227
    One-Electron Energy =                -122.9044140950219344
    Two-Electron Energy =                  37.7229049026459293
    Total Energy =                        -76.0590722190658823
 Dipole X            :          7.8271600           -8.2374428           -0.4102828
 Dipole Y            :        -40.8860098           41.5264085            0.6403987
 Dipole Z            :         21.1924313          -21.4671206           -0.2746893
 Magnitude           :                                                    0.8086388
  Basis Set: (AUG-CC-PVTZ AUX)
    Blend: AUG-CC-PVTZ-RI + DEF2-QZVPP-RI
	 Reference Energy          =     -76.0590722190658823 [Eh]
	 Singles Energy            =      -0.0000000000000000 [Eh]
	 Same-Spin Energy          =      -0.0686536367333150 [Eh]
	 Opposite-Spin Energy      =      -0.2164931794510080 [Eh]
	 Correlation Energy        =      -0.2851468161843229 [Eh]
	 Total Energy              =     -76.3442190352502053 [Eh]

	 ================> DF-SCS-MP2 Energies <==================
	-----------------------------------------------------------
	 SCS Same-Spin Scale       =       0.3333333333333333 [-]
	 SCS Opposite-Spin Scale   =       1.2000000000000000 [-]
	 SCS Same-Spin Energy      =      -0.0228845455777717 [Eh]
	 SCS Opposite-Spin Energy  =      -0.2597918153412095 [Eh]
	 SCS Correlation Energy    =      -0.2826763609189812 [Eh]
	 SCS Total Energy          =     -76.3417485799848663 [Eh]
	-----------------------------------------------------------

*** Psi4 exiting successfully. Buy a developer a beer!
