                               Psi4 1.8.2 release

  ==> Input File <==

--------------------------------------------------------------------------
MEMORY 60 GB

molecule dimer {
1 1
Na         0.000000     0.000000     0.000000
Gh(O)     -1.748724     1.414062     0.874886
Gh(H)     -1.689945     2.308594     0.549541
Gh(H)     -2.361366     1.350837     1.632814
Gh(O)      0.302414     0.965556    -2.034213
Gh(H)     -0.601270     1.062348    -2.426937
Gh(H)      0.779372     0.758555    -2.825749
Gh(O)      1.437561    -1.515632     0.722924
Gh(H)      2.205461    -0.891894     0.700578
Gh(H)      1.302992    -1.600284     1.634306
Gh(O)      1.297210     1.818155     1.214323
Gh(H)      1.433743     2.095204     2.181625
Gh(H)      2.169762     1.506935     0.937370
Gh(O)     -1.726322    -1.655173    -0.241891
Gh(H)     -2.216976    -1.775963     0.645435
Gh(H)     -1.679070    -2.537642    -0.673875

units ang
no_reorient
no_com
symmetry c1
}

set {
basis        aug-cc-pVTZ
scf_type     df
}

energy("mp2")
--------------------------------------------------------------------------

    Molecular point group: c1

    Geometry (in Angstrom), charge = 1, multiplicity = 1:

       Center              X                  Y                   Z               Mass
    ------------   -----------------  -----------------  -----------------  -----------------
         NA           0.000000000000     0.000000000000     0.000000000000    22.989769282000
      Gh(O)          -1.748724000000     1.414062000000     0.874886000000    15.994914619570
      Gh(H)          -1.689945000000     2.308594000000     0.549541000000     1.007825032230
      Gh(H)          -2.361366000000     1.350837000000     1.632814000000     1.007825032230
      Gh(O)           0.302414000000     0.965556000000    -2.034213000000    15.994914619570
      Gh(H)          -0.601270000000     1.062348000000    -2.426937000000     1.007825032230
      Gh(H)           0.779372000000     0.758555000000    -2.825749000000     1.007825032230
      Gh(O)           1.437561000000    -1.515632000000     0.722924000000    15.994914619570
      Gh(H)           2.205461000000    -0.891894000000     0.700578000000     1.007825032230
      Gh(H)           1.302992000000    -1.600284000000     1.634306000000     1.007825032230
      Gh(O)           1.297210000000     1.818155000000     1.214323000000    15.994914619570
      Gh(H)           1.433743000000     2.095204000000     2.181625000000     1.007825032230
      Gh(H)           2.169762000000     1.506935000000     0.937370000000     1.007825032230
      Gh(O)          -1.726322000000    -1.655173000000    -0.241891000000    15.994914619570
      Gh(H)          -2.216976000000    -1.775963000000     0.645435000000     1.007825032230
      Gh(H)          -1.679070000000    -2.537642000000    -0.673875000000     1.007825032230

  Charge       = 1
  Multiplicity = 1
  Basis Set: AUG-CC-PVTZ
    Blend: AUG-CC-PVTZ
  Basis Set: (AUG-CC-PVTZ AUX)
    Blend: AUG-CC-PVTZ-JKFIT + DEF2-UNIVERSAL-JKFIT

    Orbital Energies [Eh]
    ---------------------

    Doubly Occupied:

       1A    -40.760438     2A     -3.073800     3A     -1.797169
       4A     -1.797142     5A     -1.797112

  @DF-RHF Final Energy:  -161.67609248711796

   => Energetics <=

    Nuclear Repulsion Energy =              0.0000000000000000
    One-Electron Energy =                -224.9008648595180659
    Two-Electron Energy =                  63.2247723724001247
    Total Energy =                       -161.6760924871179554
 Dipole X            :         -0.0000384            0.0000000           -0.0000384
 Dipole Y            :          0.0000348            0.0000000            0.0000348
 Dipole Z            :          0.0001561            0.0000000            0.0001561
 Magnitude           :                                                    0.0001644
  Basis Set: (AUG-CC-PVTZ AUX)
    Blend: AUG-CC-PVTZ-RI + DEF2-QZVPP-RI
	 Reference Energy          =    -161.6760924871179554 [Eh]
	 Singles Energy            =      -0.0000000000000000 [Eh]
	 Same-Spin Energy          =      -0.0061111734059630 [Eh]
	 Opposite-Spin Energy      =      -0.0188202615221766 [Eh]
	 Correlation Energy        =      -0.0249314349281396 [Eh]
	 Total Energy              =    -161.7010239220460903 [Eh]

	 ================> DF-SCS-MP2 Energies <==================
	-----------------------------------------------------------
	 SCS Same-Spin Scale       =       0.3333333333333333 [-]
	 SCS Opposite-Spin Scale   =       1.2000000000000000 [-]
	 SCS Same-Spin Energy      =      -0.0020370578019877 [Eh]
	 SCS Opposite-Spin Energy  =      -0.0225843138266119 [Eh]
	 SCS Correlation Energy    =      -0.0246213716285996 [Eh]
	 SCS Total Energy          =    -161.7007138587465533 [Eh]
	-----------------------------------------------------------

*** Psi4 exiting successfully. Buy a developer a beer!
