                               Psi4 1.9 release

  ==> Input File <==

--------------------------------------------------------------------------
MEMORY 60 GB

molecule dimer {
1 1
Na     0.000000     0.000000     0.000000
--
0 1
O     -1.276190    -1.895462    -0.040608
H     -2.127558    -2.381803    -0.032716
H     -0.649478    -2.617925    -0.097285
O      1.279520    -0.856733     1.908127
H      1.429020    -1.725810     1.617383
H      2.152061    -0.516055     2.066464
O      1.299180    -0.930748    -1.795194
H      1.895986    -0.426229    -2.417540
H      1.773401    -1.700742    -1.666497
O     -1.150366     1.204114    -1.632613
H     -0.622560     1.212033    -2.467742
H     -1.635570     2.032036    -1.478611
O      1.957058     1.448042    -0.052295
H      2.006511     1.818263     0.762342
H      2.834060     1.269535    -0.454297

units ang
no_reorient
no_com
symmetry c1
}

set {
basis        aug-cc-pVTZ
scf_type     df
}

energy("mp2", bsse_type="cp")
--------------------------------------------------------------------------

                               Psi4 1.9 release
    Molecular point group: c1
  Charge       = 0
  Multiplicity = 1
  Basis Set: AUG-CC-PVTZ
    Blend: AUG-CC-PVTZ
  Basis Set: (AUG-CC-PVTZ AUX)
    Blend: AUG-CC-PVTZ-JKFIT + DEF2-UNIVERSAL-JKFIT
  @DF-RHF Final Energy:  -380.26104668700611
    Total Energy =                       -380.2610466870061146
 Dipole X            :        -43.4711856           45.2201805            1.7489949
 Dipole Y            :         20.7469897          -21.3217666           -0.5747770
 Dipole Z            :         31.6962609          -32.2560433           -0.5597823
 Magnitude           :                                                    1.9242422
  Basis Set: (AUG-CC-PVTZ AUX)
    Blend: AUG-CC-PVTZ-RI + DEF2-QZVPP-RI
	 Reference Energy          =    -380.2610466870061146 [Eh]
	 Singles Energy            =      -0.0000000000000000 [Eh]
	 Same-Spin Energy          =      -0.3453841412833240 [Eh]
	 Opposite-Spin Energy      =      -1.0837079286358995 [Eh]
	 Correlation Energy        =      -1.4290920699192236 [Eh]
	 Total Energy              =    -381.6901387569253643 [Eh]
	 SCS Total Energy          =    -381.6766242484636109 [Eh]
                               Psi4 1.9 release
    Molecular point group: c1
  Multiplicity = 1
  Basis Set: AUG-CC-PVTZ
    Blend: AUG-CC-PVTZ
  Basis Set: (AUG-CC-PVTZ AUX)
    Blend: AUG-CC-PVTZ-JKFIT + DEF2-UNIVERSAL-JKFIT
  @DF-RHF Final Energy:  -161.67609100386926
    Total Energy =                       -161.6760910038692600
  Basis Set: (AUG-CC-PVTZ AUX)
	 Singles Energy            =      -0.0000000000000000 [Eh]
	 Same-Spin Energy          =      -0.0065364427664864 [Eh]
	 Opposite-Spin Energy      =      -0.0199201609017993 [Eh]
	 Correlation Energy        =      -0.0264566036682857 [Eh]
	 Total Energy              =    -161.7025476075375536 [Eh]
	 SCS Total Energy          =    -161.7021740112069210 [Eh]
                               Psi4 1.9 release
    Molecular point group: c1

    Geometry (in Bohr), charge = 1, multiplicity = 1:

       Center              X                  Y                   Z               Mass
    ------------   -----------------  -----------------  -----------------  -----------------
         NA           0.000000000000     0.000000000000     0.000000000000    22.989769282000
         O           -2.411649584048    -3.581904061213    -0.076737998503    15.994914619570
         H           -4.020501936027    -4.500955354794    -0.061824279920     1.007825032230
         H           -1.227335544510    -4.947161266989    -0.183842006115     1.007825032230
         O            2.417942372046    -1.618990732642     3.605837442591    15.994914619570
         H            2.700456427802    -3.261308244576     3.056410909971     1.007825032230
         H            4.066805895279    -0.975202615673     3.905051008118     1.007825032230
         O            2.455094387672    -1.758858811818    -3.392425002065    15.994914619570
         H            3.582894277702    -0.805456076728    -4.568488497339     1.007825032230
         H            3.351242200613    -3.213936590063    -3.149222918897     1.007825032230
         O           -2.173876684038     2.275445683830    -3.085191438862    15.994914619570
         H           -1.176467896665     2.290410425017    -4.663356528290     1.007825032230
         H           -3.090779359015     3.839991517071    -2.794169836089     1.007825032230
         O            3.698303631636     2.736402798160    -0.098823227731    15.994914619570
         H            3.791756257719     3.436019094053     1.440617593934     1.007825032230
         H            5.355597223115     2.399073456683    -0.858496909617     1.007825032230

  Charge       = 1
  Multiplicity = 1
  Basis Set: AUG-CC-PVTZ
    Blend: AUG-CC-PVTZ
  Basis Set: (AUG-CC-PVTZ AUX)
    Blend: AUG-CC-PVTZ-JKFIT + DEF2-UNIVERSAL-JKFIT

    Orbital Energies [Eh]
    ---------------------

    Doubly Occupied:

       1A    -40.550199     2A    -20.730010     3A    -20.721630
       4A    -20.721014     5A    -20.715866     6A    -20.708796
       7A     -2.872828     8A     -1.598774     9A     -1.597417
      10A     -1.597153    11A     -1.524878    12A     -1.523026
      13A     -1.517900    14A     -1.504592    15A     -1.481757
      16A     -0.905779    17A     -0.886250    18A     -0.879708
      19A     -0.864312    20A     -0.859606    21A     -0.769058
      22A     -0.757616    23A     -0.752724    24A     -0.739379
      25A     -0.719154    26A     -0.690582    27A     -0.674835
      28A     -0.666433    29A     -0.660775    30A     -0.653094

  @DF-RHF Final Energy:  -542.07878805941664

   => Energetics <=

    Nuclear Repulsion Energy =            308.3103064648577742
    One-Electron Energy =               -1359.0878937595755360
    Two-Electron Energy =                 508.6987992353010668
    Total Energy =                       -542.0787880594166381
 Dipole X            :        -43.2138076           45.2201805            2.0063730
 Dipole Y            :         20.6105428          -21.3217666           -0.7112238
 Dipole Z            :         31.4603722          -32.2560433           -0.7956711
 Magnitude           :                                                    2.2725458
  Basis Set: (AUG-CC-PVTZ AUX)
    Blend: AUG-CC-PVTZ-RI + DEF2-QZVPP-RI
	 Reference Energy          =    -542.0787880594166381 [Eh]
	 Singles Energy            =      -0.0000000000000000 [Eh]
	 Same-Spin Energy          =      -0.3505855423477673 [Eh]
	 Opposite-Spin Energy      =      -1.0970470726042132 [Eh]
	 Correlation Energy        =      -1.4476326149519805 [Eh]
	 Total Energy              =    -543.5264206743686373 [Eh]

	 ================> DF-SCS-MP2 Energies <==================
	-----------------------------------------------------------
	 SCS Same-Spin Scale       =       0.3333333333333333 [-]
	 SCS Opposite-Spin Scale   =       1.2000000000000000 [-]
	 SCS Same-Spin Energy      =      -0.1168618474492558 [Eh]
	 SCS Opposite-Spin Energy  =      -1.3164564871250557 [Eh]
	 SCS Correlation Energy    =      -1.4333183345743115 [Eh]
	 SCS Total Energy          =    -543.5121063939909618 [Eh]
	-----------------------------------------------------------

*** Psi4 exiting successfully. Buy a developer a beer!
