                               Psi4 1.8.2 release

  ==> Input File <==

--------------------------------------------------------------------------
MEMORY 60 GB

molecule dimer {
1 1
Na         0.000000     0.000000     0.000000
Gh(O)     -1.550334     1.816641    -0.647719
Gh(H)     -1.763595     2.148064    -1.549173
Gh(H)     -2.345886     1.993166    -0.095342
Gh(O)      1.776229    -0.620344    -1.543284
Gh(H)      1.957125    -1.432281    -2.104550
Gh(H)      2.456253     0.027568    -1.657251
Gh(O)     -0.110460    -0.599504     2.332443
Gh(H)     -0.274930    -0.167045     3.165026
Gh(H)     -0.837619    -1.226720     2.297426
Gh(O)     -1.487710    -1.471897    -1.190235
Gh(H)     -2.323235    -1.734375    -0.749536
Gh(H)     -1.811237    -1.091178    -2.013706

units ang
no_reorient
no_com
symmetry c1
}

set {
basis        aug-cc-pVTZ
scf_type     df
}

energy("mp2")
--------------------------------------------------------------------------

    Molecular point group: c1

    Geometry (in Angstrom), charge = 1, multiplicity = 1:

       Center              X                  Y                   Z               Mass
    ------------   -----------------  -----------------  -----------------  -----------------
         NA           0.000000000000     0.000000000000     0.000000000000    22.989769282000
      Gh(O)          -1.550334000000     1.816641000000    -0.647719000000    15.994914619570
      Gh(H)          -1.763595000000     2.148064000000    -1.549173000000     1.007825032230
      Gh(H)          -2.345886000000     1.993166000000    -0.095342000000     1.007825032230
      Gh(O)           1.776229000000    -0.620344000000    -1.543284000000    15.994914619570
      Gh(H)           1.957125000000    -1.432281000000    -2.104550000000     1.007825032230
      Gh(H)           2.456253000000     0.027568000000    -1.657251000000     1.007825032230
      Gh(O)          -0.110460000000    -0.599504000000     2.332443000000    15.994914619570
      Gh(H)          -0.274930000000    -0.167045000000     3.165026000000     1.007825032230
      Gh(H)          -0.837619000000    -1.226720000000     2.297426000000     1.007825032230
      Gh(O)          -1.487710000000    -1.471897000000    -1.190235000000    15.994914619570
      Gh(H)          -2.323235000000    -1.734375000000    -0.749536000000     1.007825032230
      Gh(H)          -1.811237000000    -1.091178000000    -2.013706000000     1.007825032230

  Charge       = 1
  Multiplicity = 1
  Basis Set: AUG-CC-PVTZ
    Blend: AUG-CC-PVTZ
  Basis Set: (AUG-CC-PVTZ AUX)
    Blend: AUG-CC-PVTZ-JKFIT + DEF2-UNIVERSAL-JKFIT

    Orbital Energies [Eh]
    ---------------------

    Doubly Occupied:

       1A    -40.760991     2A     -3.074038     3A     -1.797358
       4A     -1.797356     5A     -1.797330

  @DF-RHF Final Energy:  -161.67608334917762

   => Energetics <=

    Nuclear Repulsion Energy =              0.0000000000000000
    One-Electron Energy =                -224.8980210113441558
    Two-Electron Energy =                  63.2219376621665390
    Total Energy =                       -161.6760833491776168
 Dipole X            :         -0.0001223            0.0000000           -0.0001223
 Dipole Y            :         -0.0001079            0.0000000           -0.0001079
 Dipole Z            :         -0.0000482            0.0000000           -0.0000482
 Magnitude           :                                                    0.0001701
  Basis Set: (AUG-CC-PVTZ AUX)
    Blend: AUG-CC-PVTZ-RI + DEF2-QZVPP-RI
	 Reference Energy          =    -161.6760833491776168 [Eh]
	 Singles Energy            =      -0.0000000000000000 [Eh]
	 Same-Spin Energy          =      -0.0044162071049541 [Eh]
	 Opposite-Spin Energy      =      -0.0144522585957914 [Eh]
	 Correlation Energy        =      -0.0188684657007455 [Eh]
	 Total Energy              =    -161.6949518148783511 [Eh]

	 ================> DF-SCS-MP2 Energies <==================
	-----------------------------------------------------------
	 SCS Same-Spin Scale       =       0.3333333333333333 [-]
	 SCS Opposite-Spin Scale   =       1.2000000000000000 [-]
	 SCS Same-Spin Energy      =      -0.0014720690349847 [Eh]
	 SCS Opposite-Spin Energy  =      -0.0173427103149497 [Eh]
	 SCS Correlation Energy    =      -0.0188147793499344 [Eh]
	 SCS Total Energy          =    -161.6948981285275408 [Eh]
	-----------------------------------------------------------

*** Psi4 exiting successfully. Buy a developer a beer!
