                               Psi4 1.8.2 release

  ==> Input File <==

--------------------------------------------------------------------------
MEMORY 60 GB

molecule dimer {
0 1
Gh(Na)     0.000000     0.000000     0.000000
Gh(O)      2.200023    -0.188222    -0.286542
Gh(H)      2.895583     0.458553    -0.239530
Gh(H)      2.596252    -0.970724    -0.637590
Gh(O)     -2.027672     0.184032     1.494454
Gh(H)     -2.514049    -0.102364     0.712930
Gh(H)     -2.397718     1.017536     1.839885
O         -0.365594    -2.633320     0.181044
H         -1.247852    -2.871394     0.397864
H         -0.040790    -3.230710    -0.525988
Gh(O)     -0.373167     2.099173    -1.094592
Gh(H)     -0.625127     2.930081    -0.644687
Gh(H)     -0.748604     2.251364    -1.958488
Gh(O)      0.543302     1.414289     1.993847
Gh(H)      1.399965     1.002046     2.227791
Gh(H)     -0.019699     1.251749     2.818915

units ang
no_reorient
no_com
symmetry c1
}

set {
basis        aug-cc-pVTZ
scf_type     df
}

energy("mp2")
--------------------------------------------------------------------------

    Molecular point group: c1

    Geometry (in Angstrom), charge = 0, multiplicity = 1:

       Center              X                  Y                   Z               Mass
    ------------   -----------------  -----------------  -----------------  -----------------
      Gh(NA)          0.000000000000     0.000000000000     0.000000000000    22.989769282000
      Gh(O)           2.200023000000    -0.188222000000    -0.286542000000    15.994914619570
      Gh(H)           2.895583000000     0.458553000000    -0.239530000000     1.007825032230
      Gh(H)           2.596252000000    -0.970724000000    -0.637590000000     1.007825032230
      Gh(O)          -2.027672000000     0.184032000000     1.494454000000    15.994914619570
      Gh(H)          -2.514049000000    -0.102364000000     0.712930000000     1.007825032230
      Gh(H)          -2.397718000000     1.017536000000     1.839885000000     1.007825032230
         O           -0.365594000000    -2.633320000000     0.181044000000    15.994914619570
         H           -1.247852000000    -2.871394000000     0.397864000000     1.007825032230
         H           -0.040790000000    -3.230710000000    -0.525988000000     1.007825032230
      Gh(O)          -0.373167000000     2.099173000000    -1.094592000000    15.994914619570
      Gh(H)          -0.625127000000     2.930081000000    -0.644687000000     1.007825032230
      Gh(H)          -0.748604000000     2.251364000000    -1.958488000000     1.007825032230
      Gh(O)           0.543302000000     1.414289000000     1.993847000000    15.994914619570
      Gh(H)           1.399965000000     1.002046000000     2.227791000000     1.007825032230
      Gh(H)          -0.019699000000     1.251749000000     2.818915000000     1.007825032230

  Charge       = 0
  Multiplicity = 1
  Basis Set: AUG-CC-PVTZ
    Blend: AUG-CC-PVTZ
  Basis Set: (AUG-CC-PVTZ AUX)
    Blend: AUG-CC-PVTZ-JKFIT + DEF2-UNIVERSAL-JKFIT

    Orbital Energies [Eh]
    ---------------------

    Doubly Occupied:

       1A    -20.565470     2A     -1.349423     3A     -0.724448
       4A     -0.575773     5A     -0.508827

  @DF-RHF Final Energy:   -76.05940315496230

   => Energetics <=

    Nuclear Repulsion Energy =              9.1619618442380091
    One-Electron Energy =                -122.9948469308857000
    Two-Electron Energy =                  37.7734819316853816
    Total Energy =                        -76.0594031549623111
 Dipole X            :          7.5823366           -7.9621607           -0.3798242
 Dipole Y            :         50.7805064          -51.3413342           -0.5608278
 Dipole Z            :         -2.8207569            2.4948693           -0.3258876
 Magnitude           :                                                    0.7516628
  Basis Set: (AUG-CC-PVTZ AUX)
    Blend: AUG-CC-PVTZ-RI + DEF2-QZVPP-RI
	 Reference Energy          =     -76.0594031549622969 [Eh]
	 Singles Energy            =      -0.0000000000000000 [Eh]
	 Same-Spin Energy          =      -0.0683697384354435 [Eh]
	 Opposite-Spin Energy      =      -0.2155481517126648 [Eh]
	 Correlation Energy        =      -0.2839178901481083 [Eh]
	 Total Energy              =     -76.3433210451104003 [Eh]

	 ================> DF-SCS-MP2 Energies <==================
	-----------------------------------------------------------
	 SCS Same-Spin Scale       =       0.3333333333333333 [-]
	 SCS Opposite-Spin Scale   =       1.2000000000000000 [-]
	 SCS Same-Spin Energy      =      -0.0227899128118145 [Eh]
	 SCS Opposite-Spin Energy  =      -0.2586577820551977 [Eh]
	 SCS Correlation Energy    =      -0.2814476948670123 [Eh]
	 SCS Total Energy          =     -76.3408508498293088 [Eh]
	-----------------------------------------------------------

*** Psi4 exiting successfully. Buy a developer a beer!
