                               Psi4 1.8.2 release

  ==> Input File <==

--------------------------------------------------------------------------
MEMORY 60 GB

molecule dimer {
1 1
Na         0.000000     0.000000     0.000000
Gh(O)      0.209842    -0.922257     1.980819
Gh(H)     -0.293424    -1.759493     2.013630
Gh(H)      1.137281    -1.096220     2.303432
Gh(O)     -0.913097     1.589898    -1.328350
Gh(H)     -0.417774     2.414856    -1.349717
Gh(H)     -1.803269     1.800960    -0.984765

units ang
no_reorient
no_com
symmetry c1
}

set {
basis        aug-cc-pVTZ
scf_type     df
}

energy("mp2")
--------------------------------------------------------------------------

    Molecular point group: c1

    Geometry (in Angstrom), charge = 1, multiplicity = 1:

       Center              X                  Y                   Z               Mass
    ------------   -----------------  -----------------  -----------------  -----------------
         NA           0.000000000000     0.000000000000     0.000000000000    22.989769282000
      Gh(O)           0.209842000000    -0.922257000000     1.980819000000    15.994914619570
      Gh(H)          -0.293424000000    -1.759493000000     2.013630000000     1.007825032230
      Gh(H)           1.137281000000    -1.096220000000     2.303432000000     1.007825032230
      Gh(O)          -0.913097000000     1.589898000000    -1.328350000000    15.994914619570
      Gh(H)          -0.417774000000     2.414856000000    -1.349717000000     1.007825032230
      Gh(H)          -1.803269000000     1.800960000000    -0.984765000000     1.007825032230

  Charge       = 1
  Multiplicity = 1
  Basis Set: AUG-CC-PVTZ
    Blend: AUG-CC-PVTZ
  Basis Set: (AUG-CC-PVTZ AUX)
    Blend: AUG-CC-PVTZ-JKFIT + DEF2-UNIVERSAL-JKFIT

    Orbital Energies [Eh]
    ---------------------

    Doubly Occupied:

       1A    -40.761670     2A     -3.074387     3A     -1.797807
       4A     -1.797598     5A     -1.797554

  @DF-RHF Final Energy:  -161.67606067074084

   => Energetics <=

    Nuclear Repulsion Energy =              0.0000000000000000
    One-Electron Energy =                -224.8940916427807508
    Two-Electron Energy =                  63.2180309720399052
    Total Energy =                       -161.6760606707408385
 Dipole X            :         -0.0001533            0.0000000           -0.0001533
 Dipole Y            :          0.0001194            0.0000000            0.0001194
 Dipole Z            :          0.0001232            0.0000000            0.0001232
 Magnitude           :                                                    0.0002301
  Basis Set: (AUG-CC-PVTZ AUX)
    Blend: AUG-CC-PVTZ-RI + DEF2-QZVPP-RI
	 Reference Energy          =    -161.6760606707408385 [Eh]
	 Singles Energy            =      -0.0000000000000000 [Eh]
	 Same-Spin Energy          =      -0.0037952010156770 [Eh]
	 Opposite-Spin Energy      =      -0.0130589440464083 [Eh]
	 Correlation Energy        =      -0.0168541450620853 [Eh]
	 Total Energy              =    -161.6929148158029363 [Eh]

	 ================> DF-SCS-MP2 Energies <==================
	-----------------------------------------------------------
	 SCS Same-Spin Scale       =       0.3333333333333333 [-]
	 SCS Opposite-Spin Scale   =       1.2000000000000000 [-]
	 SCS Same-Spin Energy      =      -0.0012650670052257 [Eh]
	 SCS Opposite-Spin Energy  =      -0.0156707328556900 [Eh]
	 SCS Correlation Energy    =      -0.0169357998609156 [Eh]
	 SCS Total Energy          =    -161.6929964706017415 [Eh]
	-----------------------------------------------------------

*** Psi4 exiting successfully. Buy a developer a beer!
