                               Psi4 1.8.2 release

  ==> Input File <==

--------------------------------------------------------------------------
MEMORY 60 GB

molecule dimer {
0 1
Gh(Na)     0.000000     0.000000     0.000000
Gh(O)      1.626028     1.034922     1.580623
Gh(H)      1.378579     0.724001     2.502033
Gh(H)      2.064630     1.955065     1.635979
Gh(O)     -1.372352    -2.180406    -0.667887
Gh(H)     -1.156517    -2.493550     0.245784
Gh(H)     -1.510414    -2.963832    -1.183852
Gh(O)     -1.339998     1.807402     0.199177
Gh(H)     -1.582903     2.201952    -0.688290
Gh(H)     -1.288117     2.504336     0.887083
Gh(O)     -1.123329    -0.697031     2.020695
Gh(H)     -0.556554    -0.315841     2.727097
Gh(H)     -1.512463    -1.540032     2.286606
O         -0.325095     0.344770    -2.289885
H         -0.904628    -0.206831    -2.834921
H          0.583007     0.391315    -2.704986

units ang
no_reorient
no_com
symmetry c1
}

set {
basis        aug-cc-pVTZ
scf_type     df
}

energy("mp2")
--------------------------------------------------------------------------

    Molecular point group: c1

    Geometry (in Angstrom), charge = 0, multiplicity = 1:

       Center              X                  Y                   Z               Mass
    ------------   -----------------  -----------------  -----------------  -----------------
      Gh(NA)          0.000000000000     0.000000000000     0.000000000000    22.989769282000
      Gh(O)           1.626028000000     1.034922000000     1.580623000000    15.994914619570
      Gh(H)           1.378579000000     0.724001000000     2.502033000000     1.007825032230
      Gh(H)           2.064630000000     1.955065000000     1.635979000000     1.007825032230
      Gh(O)          -1.372352000000    -2.180406000000    -0.667887000000    15.994914619570
      Gh(H)          -1.156517000000    -2.493550000000     0.245784000000     1.007825032230
      Gh(H)          -1.510414000000    -2.963832000000    -1.183852000000     1.007825032230
      Gh(O)          -1.339998000000     1.807402000000     0.199177000000    15.994914619570
      Gh(H)          -1.582903000000     2.201952000000    -0.688290000000     1.007825032230
      Gh(H)          -1.288117000000     2.504336000000     0.887083000000     1.007825032230
      Gh(O)          -1.123329000000    -0.697031000000     2.020695000000    15.994914619570
      Gh(H)          -0.556554000000    -0.315841000000     2.727097000000     1.007825032230
      Gh(H)          -1.512463000000    -1.540032000000     2.286606000000     1.007825032230
         O           -0.325095000000     0.344770000000    -2.289885000000    15.994914619570
         H           -0.904628000000    -0.206831000000    -2.834921000000     1.007825032230
         H            0.583007000000     0.391315000000    -2.704986000000     1.007825032230

  Charge       = 0
  Multiplicity = 1
  Basis Set: AUG-CC-PVTZ
    Blend: AUG-CC-PVTZ
  Basis Set: (AUG-CC-PVTZ AUX)
    Blend: AUG-CC-PVTZ-JKFIT + DEF2-UNIVERSAL-JKFIT

    Orbital Energies [Eh]
    ---------------------

    Doubly Occupied:

       1A    -20.569067     2A     -1.336937     3A     -0.712594
       4A     -0.569790     5A     -0.506573

  @DF-RHF Final Energy:   -76.05667775286938

   => Energetics <=

    Nuclear Repulsion Energy =              8.9372180442280484
    One-Electron Energy =                -122.5978634860966849
    Two-Electron Energy =                  37.6039676889992620
    Total Energy =                        -76.0566777528693763
 Dipole X            :          5.7365535           -5.5224997            0.2140538
 Dipole Y            :         -5.8979043            5.5607912           -0.3371131
 Dipole Z            :         44.4485989          -45.0869511           -0.6383522
 Magnitude           :                                                    0.7529660
  Basis Set: (AUG-CC-PVTZ AUX)
    Blend: AUG-CC-PVTZ-RI + DEF2-QZVPP-RI
	 Reference Energy          =     -76.0566777528693763 [Eh]
	 Singles Energy            =      -0.0000000000000000 [Eh]
	 Same-Spin Energy          =      -0.0688034417092841 [Eh]
	 Opposite-Spin Energy      =      -0.2170426396466932 [Eh]
	 Correlation Energy        =      -0.2858460813559773 [Eh]
	 Total Energy              =     -76.3425238342253465 [Eh]

	 ================> DF-SCS-MP2 Energies <==================
	-----------------------------------------------------------
	 SCS Same-Spin Scale       =       0.3333333333333333 [-]
	 SCS Opposite-Spin Scale   =       1.2000000000000000 [-]
	 SCS Same-Spin Energy      =      -0.0229344805697614 [Eh]
	 SCS Opposite-Spin Energy  =      -0.2604511675760319 [Eh]
	 SCS Correlation Energy    =      -0.2833856481457933 [Eh]
	 SCS Total Energy          =     -76.3400634010151720 [Eh]
	-----------------------------------------------------------

*** Psi4 exiting successfully. Buy a developer a beer!
