                               Psi4 1.8.2 release

  ==> Input File <==

--------------------------------------------------------------------------
MEMORY 60 GB

molecule dimer {
1 1
Na         0.000000     0.000000     0.000000
O         -2.267046    -0.058444    -0.576173
H         -2.957507     0.583536    -0.703646
H         -2.245748    -0.641405    -1.346391
O          2.020528    -0.856869     0.738830
H          2.866660    -0.369129     0.689068
H          2.097887    -1.320091     1.596498
O          0.786320    -0.955734    -2.146642
H          0.999726    -1.902132    -2.090619
H          0.456867    -0.843797    -3.039678
O         -0.382137    -2.373173     0.216705
H          0.026752    -3.262338     0.298848
H         -1.300501    -2.497887     0.385697
O         -0.519840     0.317423     2.277683
H          0.259638     0.493602     2.844944
H         -0.969288    -0.486423     2.544550

units ang
no_reorient
no_com
symmetry c1
}

set {
basis        aug-cc-pVTZ
scf_type     df
}

energy("mp2")
--------------------------------------------------------------------------

    Molecular point group: c1

    Geometry (in Angstrom), charge = 1, multiplicity = 1:

       Center              X                  Y                   Z               Mass
    ------------   -----------------  -----------------  -----------------  -----------------
         NA           0.000000000000     0.000000000000     0.000000000000    22.989769282000
         O           -2.267046000000    -0.058444000000    -0.576173000000    15.994914619570
         H           -2.957507000000     0.583536000000    -0.703646000000     1.007825032230
         H           -2.245748000000    -0.641405000000    -1.346391000000     1.007825032230
         O            2.020528000000    -0.856869000000     0.738830000000    15.994914619570
         H            2.866660000000    -0.369129000000     0.689068000000     1.007825032230
         H            2.097887000000    -1.320091000000     1.596498000000     1.007825032230
         O            0.786320000000    -0.955734000000    -2.146642000000    15.994914619570
         H            0.999726000000    -1.902132000000    -2.090619000000     1.007825032230
         H            0.456867000000    -0.843797000000    -3.039678000000     1.007825032230
         O           -0.382137000000    -2.373173000000     0.216705000000    15.994914619570
         H            0.026752000000    -3.262338000000     0.298848000000     1.007825032230
         H           -1.300501000000    -2.497887000000     0.385697000000     1.007825032230
         O           -0.519840000000     0.317423000000     2.277683000000    15.994914619570
         H            0.259638000000     0.493602000000     2.844944000000     1.007825032230
         H           -0.969288000000    -0.486423000000     2.544550000000     1.007825032230

  Charge       = 1
  Multiplicity = 1
  Basis Set: AUG-CC-PVTZ
    Blend: AUG-CC-PVTZ
  Basis Set: (AUG-CC-PVTZ AUX)
    Blend: AUG-CC-PVTZ-JKFIT + DEF2-UNIVERSAL-JKFIT

    Orbital Energies [Eh]
    ---------------------

    Doubly Occupied:

       1A    -40.549842     2A    -20.723232     3A    -20.722467
       4A    -20.720878     5A    -20.713784     6A    -20.709106
       7A     -2.872497     8A     -1.598159     9A     -1.597484
      10A     -1.596425    11A     -1.511842    12A     -1.507997
      13A     -1.499661    14A     -1.493984    15A     -1.492633
      16A     -0.887241    17A     -0.875348    18A     -0.871444
      19A     -0.856807    20A     -0.854171    21A     -0.765945
      22A     -0.748602    23A     -0.738576    24A     -0.733970
      25A     -0.726335    26A     -0.677464    27A     -0.674806
      28A     -0.671609    29A     -0.654344    30A     -0.650021

  @DF-RHF Final Energy:  -542.09221095018665

   => Energetics <=

    Nuclear Repulsion Energy =            312.5954921531411514
    One-Electron Energy =               -1367.9820458409617459
    Two-Electron Energy =                 513.2943427376339969
    Total Energy =                       -542.0922109501866544
 Dipole X            :          6.8512100           -6.9219043           -0.0706943
 Dipole Y            :         76.8159226          -78.7268219           -1.9108993
 Dipole Z            :         -9.8047293            9.9446743            0.1399450
 Magnitude           :                                                    1.9173207
  Basis Set: (AUG-CC-PVTZ AUX)
    Blend: AUG-CC-PVTZ-RI + DEF2-QZVPP-RI
	 Reference Energy          =    -542.0922109501866544 [Eh]
	 Singles Energy            =      -0.0000000000000000 [Eh]
	 Same-Spin Energy          =      -0.3521062272247885 [Eh]
	 Opposite-Spin Energy      =      -1.0999032512632207 [Eh]
	 Correlation Energy        =      -1.4520094784880093 [Eh]
	 Total Energy              =    -543.5442204286746346 [Eh]

	 ================> DF-SCS-MP2 Energies <==================
	-----------------------------------------------------------
	 SCS Same-Spin Scale       =       0.3333333333333333 [-]
	 SCS Opposite-Spin Scale   =       1.2000000000000000 [-]
	 SCS Same-Spin Energy      =      -0.1173687424082628 [Eh]
	 SCS Opposite-Spin Energy  =      -1.3198839015158648 [Eh]
	 SCS Correlation Energy    =      -1.4372526439241275 [Eh]
	 SCS Total Energy          =    -543.5294635941107799 [Eh]
	-----------------------------------------------------------

*** Psi4 exiting successfully. Buy a developer a beer!
