                               Psi4 1.8.2 release

  ==> Input File <==

--------------------------------------------------------------------------
MEMORY 60 GB

molecule dimer {
0 1
Gh(Na)     0.000000     0.000000     0.000000
O         -0.177744    -2.178850    -0.553539
H         -0.869295    -2.621709    -0.135058
H         -0.313895    -2.582009    -1.441257
Gh(O)      2.093826     0.024601     0.755933
Gh(H)      2.129969     0.591241     1.585698
Gh(H)      3.029505     0.110000     0.406142
Gh(O)      0.203324     2.325177     0.292567
Gh(H)      0.391095     2.453879     1.209027
Gh(H)     -0.303688     3.155131     0.044815
Gh(O)      0.320390     0.773751    -2.164870
Gh(H)      0.455080     1.775417    -2.130367
Gh(H)      0.649183     0.464819    -3.037165
Gh(O)     -1.390357     0.611765     2.061121
Gh(H)     -1.634301     1.509377     2.361661
Gh(H)     -2.142878     0.044850     2.278362

units ang
no_reorient
no_com
symmetry c1
}

set {
basis        aug-cc-pVTZ
scf_type     df
}

energy("mp2")
--------------------------------------------------------------------------

    Molecular point group: c1

    Geometry (in Angstrom), charge = 0, multiplicity = 1:

       Center              X                  Y                   Z               Mass
    ------------   -----------------  -----------------  -----------------  -----------------
      Gh(NA)          0.000000000000     0.000000000000     0.000000000000    22.989769282000
         O           -0.177744000000    -2.178850000000    -0.553539000000    15.994914619570
         H           -0.869295000000    -2.621709000000    -0.135058000000     1.007825032230
         H           -0.313895000000    -2.582009000000    -1.441257000000     1.007825032230
      Gh(O)           2.093826000000     0.024601000000     0.755933000000    15.994914619570
      Gh(H)           2.129969000000     0.591241000000     1.585698000000     1.007825032230
      Gh(H)           3.029505000000     0.110000000000     0.406142000000     1.007825032230
      Gh(O)           0.203324000000     2.325177000000     0.292567000000    15.994914619570
      Gh(H)           0.391095000000     2.453879000000     1.209027000000     1.007825032230
      Gh(H)          -0.303688000000     3.155131000000     0.044815000000     1.007825032230
      Gh(O)           0.320390000000     0.773751000000    -2.164870000000    15.994914619570
      Gh(H)           0.455080000000     1.775417000000    -2.130367000000     1.007825032230
      Gh(H)           0.649183000000     0.464819000000    -3.037165000000     1.007825032230
      Gh(O)          -1.390357000000     0.611765000000     2.061121000000    15.994914619570
      Gh(H)          -1.634301000000     1.509377000000     2.361661000000     1.007825032230
      Gh(H)          -2.142878000000     0.044850000000     2.278362000000     1.007825032230

  Charge       = 0
  Multiplicity = 1
  Basis Set: AUG-CC-PVTZ
    Blend: AUG-CC-PVTZ
  Basis Set: (AUG-CC-PVTZ AUX)
    Blend: AUG-CC-PVTZ-JKFIT + DEF2-UNIVERSAL-JKFIT

    Orbital Energies [Eh]
    ---------------------

    Doubly Occupied:

       1A    -20.569384     2A     -1.362941     3A     -0.703395
       4A     -0.601600     5A     -0.513073

  @DF-RHF Final Energy:   -76.05643659200265

   => Energetics <=

    Nuclear Repulsion Energy =              9.2661750275209638
    One-Electron Energy =                -123.1444339216955228
    Two-Electron Energy =                  37.8218223021719098
    Total Energy =                        -76.0564365920026546
 Dipole X            :          4.3782417           -4.9230049           -0.5447632
 Dipole Y            :         42.2208006          -42.7730400           -0.5522394
 Dipole Z            :         11.0534037          -11.3471005           -0.2936969
 Magnitude           :                                                    0.8294535
  Basis Set: (AUG-CC-PVTZ AUX)
    Blend: AUG-CC-PVTZ-RI + DEF2-QZVPP-RI
	 Reference Energy          =     -76.0564365920026546 [Eh]
	 Singles Energy            =      -0.0000000000000000 [Eh]
	 Same-Spin Energy          =      -0.0685592303991457 [Eh]
	 Opposite-Spin Energy      =      -0.2162153225546334 [Eh]
	 Correlation Energy        =      -0.2847745529537791 [Eh]
	 Total Energy              =     -76.3412111449564321 [Eh]

	 ================> DF-SCS-MP2 Energies <==================
	-----------------------------------------------------------
	 SCS Same-Spin Scale       =       0.3333333333333333 [-]
	 SCS Opposite-Spin Scale   =       1.2000000000000000 [-]
	 SCS Same-Spin Energy      =      -0.0228530767997152 [Eh]
	 SCS Opposite-Spin Energy  =      -0.2594583870655601 [Eh]
	 SCS Correlation Energy    =      -0.2823114638652753 [Eh]
	 SCS Total Energy          =     -76.3387480558679243 [Eh]
	-----------------------------------------------------------

*** Psi4 exiting successfully. Buy a developer a beer!
