                               Psi4 1.8.2 release

  ==> Input File <==

--------------------------------------------------------------------------
MEMORY 60 GB

molecule dimer {
0 1
Gh(Na)     0.000000     0.000000     0.000000
Gh(O)      0.708023    -1.342751    -1.859325
Gh(H)      0.651312    -1.530173    -2.824257
Gh(H)      0.765287    -2.234127    -1.494177
Gh(O)      1.966844     1.359311     0.168930
Gh(H)      2.774677     1.014819     0.464956
Gh(H)      2.154278     2.048941    -0.513915
Gh(O)      1.251839    -1.361885     1.616700
Gh(H)      1.002389    -2.318327     1.850238
Gh(H)      2.110395    -1.505860     1.250054
O         -1.064373     1.917554    -1.138065
H         -1.512374     2.639764    -0.689674
H         -1.757728     1.278248    -1.399230
Gh(O)     -2.229190    -0.753886     0.938174
Gh(H)     -2.626923    -1.541755     0.554601
Gh(H)     -2.610605     0.056120     0.627425

units ang
no_reorient
no_com
symmetry c1
}

set {
basis        aug-cc-pVTZ
scf_type     df
}

energy("mp2")
--------------------------------------------------------------------------

    Molecular point group: c1

    Geometry (in Angstrom), charge = 0, multiplicity = 1:

       Center              X                  Y                   Z               Mass
    ------------   -----------------  -----------------  -----------------  -----------------
      Gh(NA)          0.000000000000     0.000000000000     0.000000000000    22.989769282000
      Gh(O)           0.708023000000    -1.342751000000    -1.859325000000    15.994914619570
      Gh(H)           0.651312000000    -1.530173000000    -2.824257000000     1.007825032230
      Gh(H)           0.765287000000    -2.234127000000    -1.494177000000     1.007825032230
      Gh(O)           1.966844000000     1.359311000000     0.168930000000    15.994914619570
      Gh(H)           2.774677000000     1.014819000000     0.464956000000     1.007825032230
      Gh(H)           2.154278000000     2.048941000000    -0.513915000000     1.007825032230
      Gh(O)           1.251839000000    -1.361885000000     1.616700000000    15.994914619570
      Gh(H)           1.002389000000    -2.318327000000     1.850238000000     1.007825032230
      Gh(H)           2.110395000000    -1.505860000000     1.250054000000     1.007825032230
         O           -1.064373000000     1.917554000000    -1.138065000000    15.994914619570
         H           -1.512374000000     2.639764000000    -0.689674000000     1.007825032230
         H           -1.757728000000     1.278248000000    -1.399230000000     1.007825032230
      Gh(O)          -2.229190000000    -0.753886000000     0.938174000000    15.994914619570
      Gh(H)          -2.626923000000    -1.541755000000     0.554601000000     1.007825032230
      Gh(H)          -2.610605000000     0.056120000000     0.627425000000     1.007825032230

  Charge       = 0
  Multiplicity = 1
  Basis Set: AUG-CC-PVTZ
    Blend: AUG-CC-PVTZ
  Basis Set: (AUG-CC-PVTZ AUX)
    Blend: AUG-CC-PVTZ-JKFIT + DEF2-UNIVERSAL-JKFIT

    Orbital Energies [Eh]
    ---------------------

    Doubly Occupied:

       1A    -20.568218     2A     -1.345731     3A     -0.714770
       4A     -0.578408     5A     -0.508691

  @DF-RHF Final Energy:   -76.05944907973641

   => Energetics <=

    Nuclear Repulsion Energy =              9.0719767241384126
    One-Electron Energy =                -122.8312102496348359
    Two-Electron Energy =                  37.6997844457600095
    Total Energy =                        -76.0594490797364244
 Dipole X            :         21.5131909          -22.2705849           -0.7573940
 Dipole Y            :        -36.3355557           36.3931848            0.0576291
 Dipole Z            :         21.2778983          -21.1525058            0.1253926
 Magnitude           :                                                    0.7698637
  Basis Set: (AUG-CC-PVTZ AUX)
    Blend: AUG-CC-PVTZ-RI + DEF2-QZVPP-RI
	 Reference Energy          =     -76.0594490797364102 [Eh]
	 Singles Energy            =      -0.0000000000000000 [Eh]
	 Same-Spin Energy          =      -0.0685928392634236 [Eh]
	 Opposite-Spin Energy      =      -0.2163750126068089 [Eh]
	 Correlation Energy        =      -0.2849678518702325 [Eh]
	 Total Energy              =     -76.3444169316066450 [Eh]

	 ================> DF-SCS-MP2 Energies <==================
	-----------------------------------------------------------
	 SCS Same-Spin Scale       =       0.3333333333333333 [-]
	 SCS Opposite-Spin Scale   =       1.2000000000000000 [-]
	 SCS Same-Spin Energy      =      -0.0228642797544745 [Eh]
	 SCS Opposite-Spin Energy  =      -0.2596500151281707 [Eh]
	 SCS Correlation Energy    =      -0.2825142948826452 [Eh]
	 SCS Total Energy          =     -76.3419633746190556 [Eh]
	-----------------------------------------------------------

*** Psi4 exiting successfully. Buy a developer a beer!
