                               Psi4 1.9 release

  ==> Input File <==

--------------------------------------------------------------------------
MEMORY 60 GB

molecule dimer {
1 1
Na     0.000000     0.000000     0.000000
--
0 1
O     -0.835240     0.473484     2.119495
H     -0.454693     1.245275     2.586267
H     -1.132360    -0.183285     2.785897
O      0.033539    -2.290098    -0.664363
H     -0.004054    -2.576443     0.261397
H      0.855844    -2.546782    -1.166561
O      1.583864     1.928752    -0.019939
H      1.499354     1.829133    -1.014737
H      1.387146     2.888641     0.263931

units ang
no_reorient
no_com
symmetry c1
}

set {
basis        aug-cc-pVTZ
scf_type     df
}

energy("mp2", bsse_type="cp")
--------------------------------------------------------------------------

                               Psi4 1.9 release
    Molecular point group: c1
  Charge       = 0
  Multiplicity = 1
  Basis Set: AUG-CC-PVTZ
    Blend: AUG-CC-PVTZ
  Basis Set: (AUG-CC-PVTZ AUX)
    Blend: AUG-CC-PVTZ-JKFIT + DEF2-UNIVERSAL-JKFIT
  @DF-RHF Final Energy:  -228.15947054432996
    Total Energy =                       -228.1594705443299631
 Dipole X            :        -15.4906132           15.8898396            0.3992264
 Dipole Y            :         -2.6603815            2.9359598            0.2755782
 Dipole Z            :        -28.1704557           28.7195625            0.5491069
 Magnitude           :                                                    0.7326960
  Basis Set: (AUG-CC-PVTZ AUX)
    Blend: AUG-CC-PVTZ-RI + DEF2-QZVPP-RI
	 Reference Energy          =    -228.1594705443299631 [Eh]
	 Singles Energy            =      -0.0000000000000000 [Eh]
	 Same-Spin Energy          =      -0.2072023020110214 [Eh]
	 Opposite-Spin Energy      =      -0.6521210883998334 [Eh]
	 Correlation Energy        =      -0.8593233904108548 [Eh]
	 Total Energy              =    -229.0187939347408133 [Eh]
	 SCS Total Energy          =    -229.0110832844134450 [Eh]
                               Psi4 1.9 release
    Molecular point group: c1
  Multiplicity = 1
  Basis Set: AUG-CC-PVTZ
    Blend: AUG-CC-PVTZ
  Basis Set: (AUG-CC-PVTZ AUX)
    Blend: AUG-CC-PVTZ-JKFIT + DEF2-UNIVERSAL-JKFIT
  @DF-RHF Final Energy:  -161.67607128115935
    Total Energy =                       -161.6760712811593521
  Basis Set: (AUG-CC-PVTZ AUX)
	 Singles Energy            =      -0.0000000000000000 [Eh]
	 Same-Spin Energy          =      -0.0039627708787820 [Eh]
	 Opposite-Spin Energy      =      -0.0133404432404621 [Eh]
	 Correlation Energy        =      -0.0173032141192441 [Eh]
	 Total Energy              =    -161.6933744952785901 [Eh]
	 SCS Total Energy          =    -161.6934007366741639 [Eh]
                               Psi4 1.9 release
    Molecular point group: c1

    Geometry (in Bohr), charge = 1, multiplicity = 1:

       Center              X                  Y                   Z               Mass
    ------------   -----------------  -----------------  -----------------  -----------------
         NA           0.000000000000     0.000000000000     0.000000000000    22.989769282000
         O           -1.578374849027     0.894755084786     4.005265074277    15.994914619570
         H           -0.859245241163     2.353228700879     4.887336317309     1.007825032230
         H           -2.139850275423    -0.346358452905     5.264582343735     1.007825032230
         O            0.063379524522    -4.327658020459    -1.255464117888    15.994914619570
         H           -0.007660949713    -4.868771647853     0.493968740016     1.007825032230
         H            1.617310766116    -4.812720481246    -2.204480798640     1.007825032230
         O            2.993069179972     3.644813043929    -0.037679249216    15.994914619570
         H            2.833368425110     3.456560417037    -1.917575019369     1.007825032230
         H            2.621326036024     5.458740364769     0.498757306018     1.007825032230

  Charge       = 1
  Multiplicity = 1
  Basis Set: AUG-CC-PVTZ
    Blend: AUG-CC-PVTZ
  Basis Set: (AUG-CC-PVTZ AUX)
    Blend: AUG-CC-PVTZ-JKFIT + DEF2-UNIVERSAL-JKFIT

    Orbital Energies [Eh]
    ---------------------

    Doubly Occupied:

       1A    -40.631197     2A    -20.752543     3A    -20.750362
       4A    -20.750028     5A     -2.950849     6A     -1.675658
       7A     -1.674895     8A     -1.673731     9A     -1.523696
      10A     -1.520046    11A     -1.505547    12A     -0.907570
      13A     -0.896022    14A     -0.880497    15A     -0.772146
      16A     -0.749629    17A     -0.748495    18A     -0.697238
      19A     -0.694127    20A     -0.688514

  @DF-RHF Final Energy:  -389.91804461821067

   => Energetics <=

    Nuclear Repulsion Energy =            135.6689724089793856
    One-Electron Energy =                -806.2884504855976502
    Two-Electron Energy =                 280.7014334584076209
    Total Energy =                       -389.9180446182106721
 Dipole X            :        -15.3856872           15.8898396            0.5041524
 Dipole Y            :         -2.6364258            2.9359598            0.2995340
 Dipole Z            :        -27.9511216           28.7195625            0.7684409
 Magnitude           :                                                    0.9666394
  Basis Set: (AUG-CC-PVTZ AUX)
    Blend: AUG-CC-PVTZ-RI + DEF2-QZVPP-RI
	 Reference Energy          =    -389.9180446182106721 [Eh]
	 Singles Energy            =      -0.0000000000000000 [Eh]
	 Same-Spin Energy          =      -0.2107208867620607 [Eh]
	 Opposite-Spin Energy      =      -0.6623312621278521 [Eh]
	 Correlation Energy        =      -0.8730521488899128 [Eh]
	 Total Energy              =    -390.7910967671006119 [Eh]

	 ================> DF-SCS-MP2 Energies <==================
	-----------------------------------------------------------
	 SCS Same-Spin Scale       =       0.3333333333333333 [-]
	 SCS Opposite-Spin Scale   =       1.2000000000000000 [-]
	 SCS Same-Spin Energy      =      -0.0702402955873536 [Eh]
	 SCS Opposite-Spin Energy  =      -0.7947975145534225 [Eh]
	 SCS Correlation Energy    =      -0.8650378101407761 [Eh]
	 SCS Total Energy          =    -390.7830824283514630 [Eh]
	-----------------------------------------------------------

*** Psi4 exiting successfully. Buy a developer a beer!
