                               Psi4 1.8.2 release

  ==> Input File <==

--------------------------------------------------------------------------
MEMORY 60 GB

molecule dimer {
1 1
Na         0.000000     0.000000     0.000000
O          0.897942     0.232779    -2.242681
H          0.375770     0.945152    -2.637263
H          1.742548     0.701814    -2.136948
O         -0.526370    -2.247938    -0.113789
H         -0.067939    -2.929889     0.403156
H         -1.121253    -2.676460    -0.712395
O          0.965071     2.227927    -0.066810
H          1.977096     2.201242     0.110202
H          0.828364     2.723446    -0.874262
O         -0.282618     0.653366     2.269494
H         -1.091358     0.346471     2.688083
H          0.398640     0.607206     2.959686

units ang
no_reorient
no_com
symmetry c1
}

set {
basis        aug-cc-pVTZ
scf_type     df
}

energy("mp2")
--------------------------------------------------------------------------

    Molecular point group: c1

    Geometry (in Angstrom), charge = 1, multiplicity = 1:

       Center              X                  Y                   Z               Mass
    ------------   -----------------  -----------------  -----------------  -----------------
         NA           0.000000000000     0.000000000000     0.000000000000    22.989769282000
         O            0.897942000000     0.232779000000    -2.242681000000    15.994914619570
         H            0.375770000000     0.945152000000    -2.637263000000     1.007825032230
         H            1.742548000000     0.701814000000    -2.136948000000     1.007825032230
         O           -0.526370000000    -2.247938000000    -0.113789000000    15.994914619570
         H           -0.067939000000    -2.929889000000     0.403156000000     1.007825032230
         H           -1.121253000000    -2.676460000000    -0.712395000000     1.007825032230
         O            0.965071000000     2.227927000000    -0.066810000000    15.994914619570
         H            1.977096000000     2.201242000000     0.110202000000     1.007825032230
         H            0.828364000000     2.723446000000    -0.874262000000     1.007825032230
         O           -0.282618000000     0.653366000000     2.269494000000    15.994914619570
         H           -1.091358000000     0.346471000000     2.688083000000     1.007825032230
         H            0.398640000000     0.607206000000     2.959686000000     1.007825032230

  Charge       = 1
  Multiplicity = 1
  Basis Set: AUG-CC-PVTZ
    Blend: AUG-CC-PVTZ
  Basis Set: (AUG-CC-PVTZ AUX)
    Blend: AUG-CC-PVTZ-JKFIT + DEF2-UNIVERSAL-JKFIT

    Orbital Energies [Eh]
    ---------------------

    Doubly Occupied:

       1A    -40.583563     2A    -20.736992     3A    -20.734339
       4A    -20.730156     5A    -20.726113     6A     -2.904938
       7A     -1.630308     8A     -1.629203     9A     -1.628435
      10A     -1.519137    11A     -1.517473    12A     -1.509478
      13A     -1.504421    14A     -0.890971    15A     -0.876238
      16A     -0.872856    17A     -0.865020    18A     -0.768460
      19A     -0.760502    20A     -0.758847    21A     -0.739167
      22A     -0.700054    23A     -0.679492    24A     -0.672527
      25A     -0.662103

  @DF-RHF Final Energy:  -466.00846805848670

   => Energetics <=

    Nuclear Repulsion Energy =            213.6152744501766279
    One-Electron Energy =               -1066.0458938879526158
    Two-Electron Energy =                 386.4221513792892324
    Total Energy =                       -466.0084680584866987
 Dipole X            :        -21.0073233           21.6828461            0.6755227
 Dipole Y            :        -16.5842908           16.7203988            0.1361080
 Dipole Z            :          2.8250014           -2.7023632            0.1226382
 Magnitude           :                                                    0.6999261
  Basis Set: (AUG-CC-PVTZ AUX)
    Blend: AUG-CC-PVTZ-RI + DEF2-QZVPP-RI
	 Reference Energy          =    -466.0084680584866987 [Eh]
	 Singles Energy            =      -0.0000000000000000 [Eh]
	 Same-Spin Energy          =      -0.2805960365187740 [Eh]
	 Opposite-Spin Energy      =      -0.8798536727513320 [Eh]
	 Correlation Energy        =      -1.1604497092701060 [Eh]
	 Total Energy              =    -467.1689177677567955 [Eh]

	 ================> DF-SCS-MP2 Energies <==================
	-----------------------------------------------------------
	 SCS Same-Spin Scale       =       0.3333333333333333 [-]
	 SCS Opposite-Spin Scale   =       1.2000000000000000 [-]
	 SCS Same-Spin Energy      =      -0.0935320121729247 [Eh]
	 SCS Opposite-Spin Energy  =      -1.0558244073015983 [Eh]
	 SCS Correlation Energy    =      -1.1493564194745229 [Eh]
	 SCS Total Energy          =    -467.1578244779612419 [Eh]
	-----------------------------------------------------------

*** Psi4 exiting successfully. Buy a developer a beer!
