                               Psi4 1.8.2 release

  ==> Input File <==

--------------------------------------------------------------------------
MEMORY 60 GB

molecule dimer {
0 1
Gh(Na)     0.000000     0.000000     0.000000
Gh(O)     -1.395183     1.416531     1.115880
Gh(H)     -1.935421     2.181378     0.930318
Gh(H)     -0.776281     1.627815     1.829800
Gh(O)     -1.644028    -1.867254    -0.467300
Gh(H)     -1.184540    -2.597510    -0.013234
Gh(H)     -1.955768    -2.260579    -1.228122
Gh(O)      1.995929     1.382494     0.461430
Gh(H)      2.261805     2.279725     0.187226
Gh(H)      2.772848     0.877410     0.253783
O          0.711563    -1.241514     1.652283
H          0.535075    -1.057522     2.588328
H          1.001081    -2.145098     1.605558

units ang
no_reorient
no_com
symmetry c1
}

set {
basis        aug-cc-pVTZ
scf_type     df
}

energy("mp2")
--------------------------------------------------------------------------

    Molecular point group: c1

    Geometry (in Angstrom), charge = 0, multiplicity = 1:

       Center              X                  Y                   Z               Mass
    ------------   -----------------  -----------------  -----------------  -----------------
      Gh(NA)          0.000000000000     0.000000000000     0.000000000000    22.989769282000
      Gh(O)          -1.395183000000     1.416531000000     1.115880000000    15.994914619570
      Gh(H)          -1.935421000000     2.181378000000     0.930318000000     1.007825032230
      Gh(H)          -0.776281000000     1.627815000000     1.829800000000     1.007825032230
      Gh(O)          -1.644028000000    -1.867254000000    -0.467300000000    15.994914619570
      Gh(H)          -1.184540000000    -2.597510000000    -0.013234000000     1.007825032230
      Gh(H)          -1.955768000000    -2.260579000000    -1.228122000000     1.007825032230
      Gh(O)           1.995929000000     1.382494000000     0.461430000000    15.994914619570
      Gh(H)           2.261805000000     2.279725000000     0.187226000000     1.007825032230
      Gh(H)           2.772848000000     0.877410000000     0.253783000000     1.007825032230
         O            0.711563000000    -1.241514000000     1.652283000000    15.994914619570
         H            0.535075000000    -1.057522000000     2.588328000000     1.007825032230
         H            1.001081000000    -2.145098000000     1.605558000000     1.007825032230

  Charge       = 0
  Multiplicity = 1
  Basis Set: AUG-CC-PVTZ
    Blend: AUG-CC-PVTZ
  Basis Set: (AUG-CC-PVTZ AUX)
    Blend: AUG-CC-PVTZ-JKFIT + DEF2-UNIVERSAL-JKFIT

    Orbital Energies [Eh]
    ---------------------

    Doubly Occupied:

       1A    -20.566608     2A     -1.350741     3A     -0.719924
       4A     -0.580491     5A     -0.509503

  @DF-RHF Final Energy:   -76.06034146357426

   => Energetics <=

    Nuclear Repulsion Energy =              9.1640451957292939
    One-Electron Energy =                -122.9942359913741825
    Two-Electron Energy =                  37.7698493320706135
    Total Energy =                        -76.0603414635742752
 Dipole X            :        -13.5835841           13.6601877            0.0766035
 Dipole Y            :         24.3382242          -24.8210462           -0.4828220
 Dipole Z            :        -32.3124182           32.9041948            0.5917766
 Magnitude           :                                                    0.7675837
  Basis Set: (AUG-CC-PVTZ AUX)
    Blend: AUG-CC-PVTZ-RI + DEF2-QZVPP-RI
	 Reference Energy          =     -76.0603414635742610 [Eh]
	 Singles Energy            =      -0.0000000000000000 [Eh]
	 Same-Spin Energy          =      -0.0684249925288629 [Eh]
	 Opposite-Spin Energy      =      -0.2158936367108461 [Eh]
	 Correlation Energy        =      -0.2843186292397091 [Eh]
	 Total Energy              =     -76.3446600928139674 [Eh]

	 ================> DF-SCS-MP2 Energies <==================
	-----------------------------------------------------------
	 SCS Same-Spin Scale       =       0.3333333333333333 [-]
	 SCS Opposite-Spin Scale   =       1.2000000000000000 [-]
	 SCS Same-Spin Energy      =      -0.0228083308429543 [Eh]
	 SCS Opposite-Spin Energy  =      -0.2590723640530154 [Eh]
	 SCS Correlation Energy    =      -0.2818806948959697 [Eh]
	 SCS Total Energy          =     -76.3422221584702356 [Eh]
	-----------------------------------------------------------

*** Psi4 exiting successfully. Buy a developer a beer!
