                               Psi4 1.8.2 release

  ==> Input File <==

--------------------------------------------------------------------------
MEMORY 60 GB

molecule dimer {
1 1
Na         0.000000     0.000000     0.000000
Gh(O)     -0.034535     1.231489    -2.218136
Gh(H)      0.606959     1.824112    -2.604967
Gh(H)     -0.908760     1.375753    -2.636306
Gh(O)      2.509633    -0.358357    -0.458430
Gh(H)      2.814224    -0.209112     0.444792
Gh(H)      2.813634     0.361272    -1.001100
Gh(O)     -2.323793     0.459139     0.520834
Gh(H)     -3.041218     0.076369     0.031045
Gh(H)     -2.786487     1.059008     1.202974
Gh(O)     -0.225495    -2.522497     0.781078
Gh(H)     -0.490119    -2.643515     1.700931
Gh(H)      0.498305    -3.103075     0.692877
Gh(O)      0.964521     0.894478     1.841733
Gh(H)      1.926174     0.986879     2.103443
Gh(H)      0.445700     0.435486     2.501790

units ang
no_reorient
no_com
symmetry c1
}

set {
basis        aug-cc-pVTZ
scf_type     df
}

energy("mp2")
--------------------------------------------------------------------------

    Molecular point group: c1

    Geometry (in Angstrom), charge = 1, multiplicity = 1:

       Center              X                  Y                   Z               Mass
    ------------   -----------------  -----------------  -----------------  -----------------
         NA           0.000000000000     0.000000000000     0.000000000000    22.989769282000
      Gh(O)          -0.034535000000     1.231489000000    -2.218136000000    15.994914619570
      Gh(H)           0.606959000000     1.824112000000    -2.604967000000     1.007825032230
      Gh(H)          -0.908760000000     1.375753000000    -2.636306000000     1.007825032230
      Gh(O)           2.509633000000    -0.358357000000    -0.458430000000    15.994914619570
      Gh(H)           2.814224000000    -0.209112000000     0.444792000000     1.007825032230
      Gh(H)           2.813634000000     0.361272000000    -1.001100000000     1.007825032230
      Gh(O)          -2.323793000000     0.459139000000     0.520834000000    15.994914619570
      Gh(H)          -3.041218000000     0.076369000000     0.031045000000     1.007825032230
      Gh(H)          -2.786487000000     1.059008000000     1.202974000000     1.007825032230
      Gh(O)          -0.225495000000    -2.522497000000     0.781078000000    15.994914619570
      Gh(H)          -0.490119000000    -2.643515000000     1.700931000000     1.007825032230
      Gh(H)           0.498305000000    -3.103075000000     0.692877000000     1.007825032230
      Gh(O)           0.964521000000     0.894478000000     1.841733000000    15.994914619570
      Gh(H)           1.926174000000     0.986879000000     2.103443000000     1.007825032230
      Gh(H)           0.445700000000     0.435486000000     2.501790000000     1.007825032230

  Charge       = 1
  Multiplicity = 1
  Basis Set: AUG-CC-PVTZ
    Blend: AUG-CC-PVTZ
  Basis Set: (AUG-CC-PVTZ AUX)
    Blend: AUG-CC-PVTZ-JKFIT + DEF2-UNIVERSAL-JKFIT

    Orbital Energies [Eh]
    ---------------------

    Doubly Occupied:

       1A    -40.760608     2A     -3.073881     3A     -1.797233
       4A     -1.797219     5A     -1.797179

  @DF-RHF Final Energy:  -161.67608706516003

   => Energetics <=

    Nuclear Repulsion Energy =              0.0000000000000000
    One-Electron Energy =                -224.8999339024008179
    Two-Electron Energy =                  63.2238468372407922
    Total Energy =                       -161.6760870651600328
 Dipole X            :          0.0000303            0.0000000            0.0000303
 Dipole Y            :         -0.0000264            0.0000000           -0.0000264
 Dipole Z            :         -0.0000072            0.0000000           -0.0000072
 Magnitude           :                                                    0.0000408
  Basis Set: (AUG-CC-PVTZ AUX)
    Blend: AUG-CC-PVTZ-RI + DEF2-QZVPP-RI
	 Reference Energy          =    -161.6760870651600328 [Eh]
	 Singles Energy            =      -0.0000000000000000 [Eh]
	 Same-Spin Energy          =      -0.0056378193584901 [Eh]
	 Opposite-Spin Energy      =      -0.0175930775853723 [Eh]
	 Correlation Energy        =      -0.0232308969438624 [Eh]
	 Total Energy              =    -161.6993179621038905 [Eh]

	 ================> DF-SCS-MP2 Energies <==================
	-----------------------------------------------------------
	 SCS Same-Spin Scale       =       0.3333333333333333 [-]
	 SCS Opposite-Spin Scale   =       1.2000000000000000 [-]
	 SCS Same-Spin Energy      =      -0.0018792731194967 [Eh]
	 SCS Opposite-Spin Energy  =      -0.0211116931024468 [Eh]
	 SCS Correlation Energy    =      -0.0229909662219435 [Eh]
	 SCS Total Energy          =    -161.6990780313819869 [Eh]
	-----------------------------------------------------------

*** Psi4 exiting successfully. Buy a developer a beer!
