                               Psi4 1.9 release

  ==> Input File <==

--------------------------------------------------------------------------
MEMORY 60 GB

molecule dimer {
1 1
Na     0.000000     0.000000     0.000000
--
0 1
O     -1.519224     0.743307    -1.517371
H     -2.170232     1.445420    -1.313542
H     -1.928734     0.240608    -2.180940
O      0.880839    -0.923193    -1.792672
H      0.384739    -1.662288    -2.202197
H      0.908594    -0.270491    -2.520157
O     -0.829751    -2.398045     0.046518
H     -0.436846    -2.980410     0.712108
H     -1.756796    -2.284077     0.333535
O      1.813124    -0.230890     1.363483
H      2.118748    -1.000546     0.923160
H      2.605605     0.291871     1.236262
O      0.328695     2.432253     0.024011
H      1.248695     2.702953    -0.044667
H     -0.191218     2.949578    -0.590188

units ang
no_reorient
no_com
symmetry c1
}

set {
basis        aug-cc-pVTZ
scf_type     df
}

energy("mp2", bsse_type="cp")
--------------------------------------------------------------------------

                               Psi4 1.9 release
    Molecular point group: c1
  Charge       = 0
  Multiplicity = 1
  Basis Set: AUG-CC-PVTZ
    Blend: AUG-CC-PVTZ
  Basis Set: (AUG-CC-PVTZ AUX)
    Blend: AUG-CC-PVTZ-JKFIT + DEF2-UNIVERSAL-JKFIT
  @DF-RHF Final Energy:  -380.27611956702765
    Total Energy =                       -380.2761195670276493
 Dipole X            :        -12.1100021           11.6634256           -0.4465766
 Dipole Y            :          6.8554081           -6.7650797            0.0903284
 Dipole Z            :         37.8790074          -39.0320550           -1.1530476
 Magnitude           :                                                    1.2398019
  Basis Set: (AUG-CC-PVTZ AUX)
    Blend: AUG-CC-PVTZ-RI + DEF2-QZVPP-RI
	 Reference Energy          =    -380.2761195670276493 [Eh]
	 Singles Energy            =      -0.0000000000000000 [Eh]
	 Same-Spin Energy          =      -0.3464597185169964 [Eh]
	 Opposite-Spin Energy      =      -1.0859590992151968 [Eh]
	 Correlation Energy        =      -1.4324188177321933 [Eh]
	 Total Energy              =    -381.7085383847598337 [Eh]
	 SCS Total Energy          =    -381.6947570589248926 [Eh]
                               Psi4 1.9 release
    Molecular point group: c1
  Multiplicity = 1
  Basis Set: AUG-CC-PVTZ
    Blend: AUG-CC-PVTZ
  Basis Set: (AUG-CC-PVTZ AUX)
    Blend: AUG-CC-PVTZ-JKFIT + DEF2-UNIVERSAL-JKFIT
  @DF-RHF Final Energy:  -161.67609299303874
    Total Energy =                       -161.6760929930387078
  Basis Set: (AUG-CC-PVTZ AUX)
	 Singles Energy            =      -0.0000000000000000 [Eh]
	 Same-Spin Energy          =      -0.0065739278019618 [Eh]
	 Opposite-Spin Energy      =      -0.0199749931461529 [Eh]
	 Correlation Energy        =      -0.0265489209481147 [Eh]
	 Total Energy              =    -161.7026419139868381 [Eh]
	 SCS Total Energy          =    -161.7022542940814276 [Eh]
                               Psi4 1.9 release
    Molecular point group: c1

    Geometry (in Bohr), charge = 1, multiplicity = 1:

       Center              X                  Y                   Z               Mass
    ------------   -----------------  -----------------  -----------------  -----------------
         NA           0.000000000000     0.000000000000     0.000000000000    22.989769282000
         O           -2.870917283223     1.404646657136    -2.867415620712    15.994914619570
         H           -4.101144108705     2.731447936259    -2.482234634286     1.007825032230
         H           -3.644779028859     0.454683223594    -4.121379296056     1.007825032230
         O            1.664544470622    -1.744581930940    -3.387659112777    15.994914619570
         H            0.727051339783    -3.141269061635    -4.161549204305     1.007825032230
         H            1.716993819234    -0.511153909401    -4.762406523155     1.007825032230
         O           -1.568002142325    -4.531648286524     0.087906279904    15.994914619570
         H           -0.825519299002    -5.632158641576     1.345689091748     1.007825032230
         H           -3.319863298300    -4.316279979457     0.630289803255     1.007825032230
         O            3.426307791495    -0.436318865107     2.576609446718    15.994914619570
         H            4.003853448862    -1.890757915922     1.744519569978     1.007825032230
         H            4.923879841124     0.551556253964     2.336196599311     1.007825032230
         O            0.621143528807     4.596292037823     0.045374213998    15.994914619570
         H            2.359691564229     5.107840899985    -0.084408396846     1.007825032230
         H           -0.361349650258     5.573894605676    -1.115293682532     1.007825032230

  Charge       = 1
  Multiplicity = 1
  Basis Set: AUG-CC-PVTZ
    Blend: AUG-CC-PVTZ
  Basis Set: (AUG-CC-PVTZ AUX)
    Blend: AUG-CC-PVTZ-JKFIT + DEF2-UNIVERSAL-JKFIT

    Orbital Energies [Eh]
    ---------------------

    Doubly Occupied:

       1A    -40.546019     2A    -20.735514     3A    -20.725717
       4A    -20.723052     5A    -20.721147     6A    -20.716106
       7A     -2.871308     8A     -1.598378     9A     -1.597636
      10A     -1.595205    11A     -1.530117    12A     -1.520561
      13A     -1.505567    14A     -1.502806    15A     -1.500665
      16A     -0.895624    17A     -0.875510    18A     -0.868046
      19A     -0.862154    20A     -0.858754    21A     -0.776911
      22A     -0.765454    23A     -0.757865    24A     -0.742479
      25A     -0.736580    26A     -0.688925    27A     -0.675774
      28A     -0.672686    29A     -0.668530    30A     -0.662960

  @DF-RHF Final Energy:  -542.08657001303425

   => Energetics <=

    Nuclear Repulsion Energy =            311.5103330926559693
    One-Electron Energy =               -1365.3977000869290350
    Two-Electron Energy =                 511.8007969812388751
    Total Energy =                       -542.0865700130343612
 Dipole X            :        -12.0329233           11.6634256           -0.3694977
 Dipole Y            :          6.8384521           -6.7650797            0.0733724
 Dipole Z            :         37.5934135          -39.0320550           -1.4386415
 Magnitude           :                                                    1.4871454
  Basis Set: (AUG-CC-PVTZ AUX)
    Blend: AUG-CC-PVTZ-RI + DEF2-QZVPP-RI
	 Reference Energy          =    -542.0865700130342475 [Eh]
	 Singles Energy            =      -0.0000000000000000 [Eh]
	 Same-Spin Energy          =      -0.3517908349351925 [Eh]
	 Opposite-Spin Energy      =      -1.0994294036746508 [Eh]
	 Correlation Energy        =      -1.4512202386098432 [Eh]
	 Total Energy              =    -543.5377902516440827 [Eh]

	 ================> DF-SCS-MP2 Energies <==================
	-----------------------------------------------------------
	 SCS Same-Spin Scale       =       0.3333333333333333 [-]
	 SCS Opposite-Spin Scale   =       1.2000000000000000 [-]
	 SCS Same-Spin Energy      =      -0.1172636116450642 [Eh]
	 SCS Opposite-Spin Energy  =      -1.3193152844095810 [Eh]
	 SCS Correlation Energy    =      -1.4365788960546451 [Eh]
	 SCS Total Energy          =    -543.5231489090889454 [Eh]
	-----------------------------------------------------------

*** Psi4 exiting successfully. Buy a developer a beer!
