                               Psi4 1.8.2 release

  ==> Input File <==

--------------------------------------------------------------------------
MEMORY 60 GB

molecule dimer {
0 1
Gh(Na)     0.000000     0.000000     0.000000
Gh(O)      0.766127     0.515039     1.981709
Gh(H)      1.319922    -0.208424     2.371871
Gh(H)      0.227460     0.853158     2.684082
Gh(O)      1.024406     2.176228    -1.057194
Gh(H)      1.536833     2.576739    -0.331655
Gh(H)      0.165288     2.624778    -1.158303
O         -0.492044    -0.696903    -2.430464
H          0.340264    -0.313786    -2.821962
H         -0.852891    -1.398862    -2.972918
Gh(O)     -2.210786     0.705829     0.674056
Gh(H)     -2.694782     0.461413     1.505258
Gh(H)     -2.606634     1.473977     0.320053

units ang
no_reorient
no_com
symmetry c1
}

set {
basis        aug-cc-pVTZ
scf_type     df
}

energy("mp2")
--------------------------------------------------------------------------

    Molecular point group: c1

    Geometry (in Angstrom), charge = 0, multiplicity = 1:

       Center              X                  Y                   Z               Mass
    ------------   -----------------  -----------------  -----------------  -----------------
      Gh(NA)          0.000000000000     0.000000000000     0.000000000000    22.989769282000
      Gh(O)           0.766127000000     0.515039000000     1.981709000000    15.994914619570
      Gh(H)           1.319922000000    -0.208424000000     2.371871000000     1.007825032230
      Gh(H)           0.227460000000     0.853158000000     2.684082000000     1.007825032230
      Gh(O)           1.024406000000     2.176228000000    -1.057194000000    15.994914619570
      Gh(H)           1.536833000000     2.576739000000    -0.331655000000     1.007825032230
      Gh(H)           0.165288000000     2.624778000000    -1.158303000000     1.007825032230
         O           -0.492044000000    -0.696903000000    -2.430464000000    15.994914619570
         H            0.340264000000    -0.313786000000    -2.821962000000     1.007825032230
         H           -0.852891000000    -1.398862000000    -2.972918000000     1.007825032230
      Gh(O)          -2.210786000000     0.705829000000     0.674056000000    15.994914619570
      Gh(H)          -2.694782000000     0.461413000000     1.505258000000     1.007825032230
      Gh(H)          -2.606634000000     1.473977000000     0.320053000000     1.007825032230

  Charge       = 0
  Multiplicity = 1
  Basis Set: AUG-CC-PVTZ
    Blend: AUG-CC-PVTZ
  Basis Set: (AUG-CC-PVTZ AUX)
    Blend: AUG-CC-PVTZ-JKFIT + DEF2-UNIVERSAL-JKFIT

    Orbital Energies [Eh]
    ---------------------

    Doubly Occupied:

       1A    -20.566861     2A     -1.338862     3A     -0.720296
       4A     -0.566718     5A     -0.506381

  @DF-RHF Final Energy:   -76.05680379144641

   => Energetics <=

    Nuclear Repulsion Energy =              8.9958037474500472
    One-Electron Energy =                -122.7069741147014099
    Two-Electron Energy =                  37.6543665758049286
    Total Energy =                        -76.0568037914464270
 Dipole X            :          8.7205367           -8.4073518            0.3131849
 Dipole Y            :         13.5543855          -13.7720821           -0.2176966
 Dipole Z            :         47.0655179          -47.6940267           -0.6285087
 Magnitude           :                                                    0.7351869
  Basis Set: (AUG-CC-PVTZ AUX)
    Blend: AUG-CC-PVTZ-RI + DEF2-QZVPP-RI
	 Reference Energy          =     -76.0568037914464128 [Eh]
	 Singles Energy            =      -0.0000000000000000 [Eh]
	 Same-Spin Energy          =      -0.0686437428668514 [Eh]
	 Opposite-Spin Energy      =      -0.2163645527441549 [Eh]
	 Correlation Energy        =      -0.2850082956110063 [Eh]
	 Total Energy              =     -76.3418120870574199 [Eh]

	 ================> DF-SCS-MP2 Energies <==================
	-----------------------------------------------------------
	 SCS Same-Spin Scale       =       0.3333333333333333 [-]
	 SCS Opposite-Spin Scale   =       1.2000000000000000 [-]
	 SCS Same-Spin Energy      =      -0.0228812476222838 [Eh]
	 SCS Opposite-Spin Energy  =      -0.2596374632929859 [Eh]
	 SCS Correlation Energy    =      -0.2825187109152696 [Eh]
	 SCS Total Energy          =     -76.3393225023616822 [Eh]
	-----------------------------------------------------------

*** Psi4 exiting successfully. Buy a developer a beer!
