                               Psi4 1.8.2 release

  ==> Input File <==

--------------------------------------------------------------------------
MEMORY 60 GB

molecule dimer {
0 1
Gh(Na)     0.000000     0.000000     0.000000
O          1.334000    -1.849241     0.833682
H          0.843314    -2.454108     0.292436
H          1.075079    -1.910830     1.778471
Gh(O)      0.600992     2.170522     0.487660
Gh(H)      0.984422     2.164393     1.361891
Gh(H)     -0.125654     2.794966     0.541435
Gh(O)     -0.992808     0.222812     2.227261
Gh(H)     -1.843637     0.610825     2.337129
Gh(H)     -0.512337     0.213665     3.094299
Gh(O)     -0.600025    -1.874107    -1.325344
Gh(H)     -0.153155    -2.069651    -2.176957
Gh(H)     -1.332728    -2.491016    -1.134304
Gh(O)     -2.219894     1.097809    -0.293701
Gh(H)     -2.721279     0.507752    -0.888427
Gh(H)     -2.724866     1.291058     0.464875

units ang
no_reorient
no_com
symmetry c1
}

set {
basis        aug-cc-pVTZ
scf_type     df
}

energy("mp2")
--------------------------------------------------------------------------

    Molecular point group: c1

    Geometry (in Angstrom), charge = 0, multiplicity = 1:

       Center              X                  Y                   Z               Mass
    ------------   -----------------  -----------------  -----------------  -----------------
      Gh(NA)          0.000000000000     0.000000000000     0.000000000000    22.989769282000
         O            1.334000000000    -1.849241000000     0.833682000000    15.994914619570
         H            0.843314000000    -2.454108000000     0.292436000000     1.007825032230
         H            1.075079000000    -1.910830000000     1.778471000000     1.007825032230
      Gh(O)           0.600992000000     2.170522000000     0.487660000000    15.994914619570
      Gh(H)           0.984422000000     2.164393000000     1.361891000000     1.007825032230
      Gh(H)          -0.125654000000     2.794966000000     0.541435000000     1.007825032230
      Gh(O)          -0.992808000000     0.222812000000     2.227261000000    15.994914619570
      Gh(H)          -1.843637000000     0.610825000000     2.337129000000     1.007825032230
      Gh(H)          -0.512337000000     0.213665000000     3.094299000000     1.007825032230
      Gh(O)          -0.600025000000    -1.874107000000    -1.325344000000    15.994914619570
      Gh(H)          -0.153155000000    -2.069651000000    -2.176957000000     1.007825032230
      Gh(H)          -1.332728000000    -2.491016000000    -1.134304000000     1.007825032230
      Gh(O)          -2.219894000000     1.097809000000    -0.293701000000    15.994914619570
      Gh(H)          -2.721279000000     0.507752000000    -0.888427000000     1.007825032230
      Gh(H)          -2.724866000000     1.291058000000     0.464875000000     1.007825032230

  Charge       = 0
  Multiplicity = 1
  Basis Set: AUG-CC-PVTZ
    Blend: AUG-CC-PVTZ
  Basis Set: (AUG-CC-PVTZ AUX)
    Blend: AUG-CC-PVTZ-JKFIT + DEF2-UNIVERSAL-JKFIT

    Orbital Energies [Eh]
    ---------------------

    Doubly Occupied:

       1A    -20.564821     2A     -1.344680     3A     -0.726917
       4A     -0.569035     5A     -0.507446

  @DF-RHF Final Energy:   -76.05858084040871

   => Energetics <=

    Nuclear Repulsion Energy =              9.1073140792479919
    One-Electron Energy =                -122.9059890385906755
    Two-Electron Energy =                  37.7400941189339747
    Total Energy =                        -76.0585808404087231
 Dipole X            :        -24.3005252           23.7923946           -0.5081306
 Dipole Y            :         35.7519291          -36.2050096           -0.4530805
 Dipole Z            :        -16.2476661           16.5168923            0.2692262
 Magnitude           :                                                    0.7320939
  Basis Set: (AUG-CC-PVTZ AUX)
    Blend: AUG-CC-PVTZ-RI + DEF2-QZVPP-RI
	 Reference Energy          =     -76.0585808404087089 [Eh]
	 Singles Energy            =      -0.0000000000000000 [Eh]
	 Same-Spin Energy          =      -0.0684773140656348 [Eh]
	 Opposite-Spin Energy      =      -0.2160322879427670 [Eh]
	 Correlation Energy        =      -0.2845096020084018 [Eh]
	 Total Energy              =     -76.3430904424171075 [Eh]

	 ================> DF-SCS-MP2 Energies <==================
	-----------------------------------------------------------
	 SCS Same-Spin Scale       =       0.3333333333333333 [-]
	 SCS Opposite-Spin Scale   =       1.2000000000000000 [-]
	 SCS Same-Spin Energy      =      -0.0228257713552116 [Eh]
	 SCS Opposite-Spin Energy  =      -0.2592387455313204 [Eh]
	 SCS Correlation Energy    =      -0.2820645168865320 [Eh]
	 SCS Total Energy          =     -76.3406453572952444 [Eh]
	-----------------------------------------------------------

*** Psi4 exiting successfully. Buy a developer a beer!
