                               Psi4 1.8.2 release

  ==> Input File <==

--------------------------------------------------------------------------
MEMORY 60 GB

molecule dimer {
0 1
Gh(Na)     0.000000     0.000000     0.000000
Gh(O)     -0.634954     2.413494    -0.469274
Gh(H)     -0.282418     2.529735     0.411993
Gh(H)      0.141916     2.156275    -1.092832
Gh(O)      1.214648     0.775486     1.918368
Gh(H)      0.880044     0.448486     2.755494
Gh(H)      1.217297     1.754919     1.974001
Gh(O)     -0.701755    -1.577387     1.746965
Gh(H)      0.074402    -2.165534     1.642667
Gh(H)     -1.200487    -1.862180     2.524719
O         -0.775218    -1.328748    -1.945209
H         -1.162383    -1.989746    -1.350365
H         -0.197621    -1.804248    -2.558987
Gh(O)      1.999358    -1.188625    -0.266368
Gh(H)      1.946447    -1.713828    -1.091922
Gh(H)      2.822903    -0.667217    -0.248495
Gh(O)     -2.490267     0.426443     0.351436
Gh(H)     -2.601949     1.346809     0.579271
Gh(H)     -3.125572    -0.045171     0.927670

units ang
no_reorient
no_com
symmetry c1
}

set {
basis        aug-cc-pVTZ
scf_type     df
}

energy("mp2")
--------------------------------------------------------------------------

    Molecular point group: c1

    Geometry (in Angstrom), charge = 0, multiplicity = 1:

       Center              X                  Y                   Z               Mass
    ------------   -----------------  -----------------  -----------------  -----------------
      Gh(NA)          0.000000000000     0.000000000000     0.000000000000    22.989769282000
      Gh(O)          -0.634954000000     2.413494000000    -0.469274000000    15.994914619570
      Gh(H)          -0.282418000000     2.529735000000     0.411993000000     1.007825032230
      Gh(H)           0.141916000000     2.156275000000    -1.092832000000     1.007825032230
      Gh(O)           1.214648000000     0.775486000000     1.918368000000    15.994914619570
      Gh(H)           0.880044000000     0.448486000000     2.755494000000     1.007825032230
      Gh(H)           1.217297000000     1.754919000000     1.974001000000     1.007825032230
      Gh(O)          -0.701755000000    -1.577387000000     1.746965000000    15.994914619570
      Gh(H)           0.074402000000    -2.165534000000     1.642667000000     1.007825032230
      Gh(H)          -1.200487000000    -1.862180000000     2.524719000000     1.007825032230
         O           -0.775218000000    -1.328748000000    -1.945209000000    15.994914619570
         H           -1.162383000000    -1.989746000000    -1.350365000000     1.007825032230
         H           -0.197621000000    -1.804248000000    -2.558987000000     1.007825032230
      Gh(O)           1.999358000000    -1.188625000000    -0.266368000000    15.994914619570
      Gh(H)           1.946447000000    -1.713828000000    -1.091922000000     1.007825032230
      Gh(H)           2.822903000000    -0.667217000000    -0.248495000000     1.007825032230
      Gh(O)          -2.490267000000     0.426443000000     0.351436000000    15.994914619570
      Gh(H)          -2.601949000000     1.346809000000     0.579271000000     1.007825032230
      Gh(H)          -3.125572000000    -0.045171000000     0.927670000000     1.007825032230

  Charge       = 0
  Multiplicity = 1
  Basis Set: AUG-CC-PVTZ
    Blend: AUG-CC-PVTZ
  Basis Set: (AUG-CC-PVTZ AUX)
    Blend: AUG-CC-PVTZ-JKFIT + DEF2-UNIVERSAL-JKFIT

    Orbital Energies [Eh]
    ---------------------

    Doubly Occupied:

       1A    -20.567855     2A     -1.345836     3A     -0.716059
       4A     -0.577781     5A     -0.508625

  @DF-RHF Final Energy:   -76.05968389785745

   => Energetics <=

    Nuclear Repulsion Energy =              9.0793930284371100
    One-Electron Energy =                -122.8458377655035036
    Two-Electron Energy =                  37.7067608392089468
    Total Energy =                        -76.0596838978574397
 Dipole X            :         14.4162992          -14.2896327            0.1266665
 Dipole Y            :         26.5014165          -27.2573681           -0.7559516
 Dipole Z            :         36.7819235          -36.7949027           -0.0129793
 Magnitude           :                                                    0.7666001
  Basis Set: (AUG-CC-PVTZ AUX)
    Blend: AUG-CC-PVTZ-RI + DEF2-QZVPP-RI
	 Reference Energy          =     -76.0596838978574539 [Eh]
	 Singles Energy            =      -0.0000000000000000 [Eh]
	 Same-Spin Energy          =      -0.0685799226378841 [Eh]
	 Opposite-Spin Energy      =      -0.2163996467509741 [Eh]
	 Correlation Energy        =      -0.2849795693888582 [Eh]
	 Total Energy              =     -76.3446634672463063 [Eh]

	 ================> DF-SCS-MP2 Energies <==================
	-----------------------------------------------------------
	 SCS Same-Spin Scale       =       0.3333333333333333 [-]
	 SCS Opposite-Spin Scale   =       1.2000000000000000 [-]
	 SCS Same-Spin Energy      =      -0.0228599742126280 [Eh]
	 SCS Opposite-Spin Energy  =      -0.2596795761011689 [Eh]
	 SCS Correlation Energy    =      -0.2825395503137969 [Eh]
	 SCS Total Energy          =     -76.3422234481712536 [Eh]
	-----------------------------------------------------------

*** Psi4 exiting successfully. Buy a developer a beer!
