                               Psi4 1.8.2 release

  ==> Input File <==

--------------------------------------------------------------------------
MEMORY 60 GB

molecule dimer {
1 1
Na         0.000000     0.000000     0.000000
O          2.097125    -0.497024     0.761194
H          2.050085    -1.449035     0.873033
H          2.546047    -0.299517     1.556234
O          0.694124     2.052469     0.671515
H          1.544738     2.338465     0.228031
H          0.070848     2.347446    -0.028200
O         -1.811270     0.275644    -1.321325
H         -2.577804     0.825547    -1.027113
H         -1.990529     0.001056    -2.250202
O         -2.004597     0.304099     1.444740
H         -2.367149     1.218233     1.601480
H         -2.783477    -0.189314     1.246767

units ang
no_reorient
no_com
symmetry c1
}

set {
basis        aug-cc-pVTZ
scf_type     df
}

energy("mp2")
--------------------------------------------------------------------------

    Molecular point group: c1

    Geometry (in Angstrom), charge = 1, multiplicity = 1:

       Center              X                  Y                   Z               Mass
    ------------   -----------------  -----------------  -----------------  -----------------
         NA           0.000000000000     0.000000000000     0.000000000000    22.989769282000
         O            2.097125000000    -0.497024000000     0.761194000000    15.994914619570
         H            2.050085000000    -1.449035000000     0.873033000000     1.007825032230
         H            2.546047000000    -0.299517000000     1.556234000000     1.007825032230
         O            0.694124000000     2.052469000000     0.671515000000    15.994914619570
         H            1.544738000000     2.338465000000     0.228031000000     1.007825032230
         H            0.070848000000     2.347446000000    -0.028200000000     1.007825032230
         O           -1.811270000000     0.275644000000    -1.321325000000    15.994914619570
         H           -2.577804000000     0.825547000000    -1.027113000000     1.007825032230
         H           -1.990529000000     0.001056000000    -2.250202000000     1.007825032230
         O           -2.004597000000     0.304099000000     1.444740000000    15.994914619570
         H           -2.367149000000     1.218233000000     1.601480000000     1.007825032230
         H           -2.783477000000    -0.189314000000     1.246767000000     1.007825032230

  Charge       = 1
  Multiplicity = 1
  Basis Set: AUG-CC-PVTZ
    Blend: AUG-CC-PVTZ
  Basis Set: (AUG-CC-PVTZ AUX)
    Blend: AUG-CC-PVTZ-JKFIT + DEF2-UNIVERSAL-JKFIT

    Orbital Energies [Eh]
    ---------------------

    Doubly Occupied:

       1A    -40.583539     2A    -20.750497     3A    -20.736769
       4A    -20.732070     5A    -20.728832     6A     -2.907196
       7A     -1.633546     8A     -1.631913     9A     -1.630975
      10A     -1.532585    11A     -1.522896    12A     -1.510986
      13A     -1.507477    14A     -0.891151    15A     -0.878404
      16A     -0.868822    17A     -0.852098    18A     -0.783173
      19A     -0.776671    20A     -0.760425    21A     -0.752766
      22A     -0.697176    23A     -0.688835    24A     -0.677019
      25A     -0.670473

  @DF-RHF Final Energy:  -465.99801282842867

   => Energetics <=

    Nuclear Repulsion Energy =            221.4942576469304640
    One-Electron Energy =               -1081.5719470622229892
    Two-Electron Energy =                 394.0796765868638545
    Total Energy =                       -465.9980128284286707
 Dipole X            :         21.0819971          -22.1177042           -1.0357070
 Dipole Y            :        -40.8440467           41.3365968            0.4925501
 Dipole Z            :        -28.1218812           27.6826396           -0.4392416
 Magnitude           :                                                    1.2280993
  Basis Set: (AUG-CC-PVTZ AUX)
    Blend: AUG-CC-PVTZ-RI + DEF2-QZVPP-RI
	 Reference Energy          =    -465.9980128284286707 [Eh]
	 Singles Energy            =      -0.0000000000000000 [Eh]
	 Same-Spin Energy          =      -0.2822445356736085 [Eh]
	 Opposite-Spin Energy      =      -0.8828599311052392 [Eh]
	 Correlation Energy        =      -1.1651044667788477 [Eh]
	 Total Energy              =    -467.1631172952075417 [Eh]

	 ================> DF-SCS-MP2 Energies <==================
	-----------------------------------------------------------
	 SCS Same-Spin Scale       =       0.3333333333333333 [-]
	 SCS Opposite-Spin Scale   =       1.2000000000000000 [-]
	 SCS Same-Spin Energy      =      -0.0940815118912028 [Eh]
	 SCS Opposite-Spin Energy  =      -1.0594319173262869 [Eh]
	 SCS Correlation Energy    =      -1.1535134292174898 [Eh]
	 SCS Total Energy          =    -467.1515262576461396 [Eh]
	-----------------------------------------------------------

*** Psi4 exiting successfully. Buy a developer a beer!
