                               Psi4 1.8.2 release

  ==> Input File <==

--------------------------------------------------------------------------
MEMORY 60 GB

molecule dimer {
1 1
Na         0.000000     0.000000     0.000000
O          1.285259    -1.153262    -1.611448
H          1.153437    -0.457589    -2.307772
H          2.233554    -1.295964    -1.675455
O          0.015079     2.249596    -1.029439
H          0.758716     2.786048    -0.799301
H         -0.644652     2.867532    -1.422312
O          0.077834    -2.168857     1.191453
H          0.847867    -2.443931     0.714386
H         -0.420080    -2.971254     1.529163
O          2.051840     0.606902     1.147426
H          2.621342     1.274506     0.769810
H          1.731269     1.021384     1.952136
O         -2.067947     0.408587     0.901339
H         -1.890616     1.227864     1.441286
H         -2.586505    -0.220929     1.396051

units ang
no_reorient
no_com
symmetry c1
}

set {
basis        aug-cc-pVTZ
scf_type     df
}

energy("mp2")
--------------------------------------------------------------------------

    Molecular point group: c1

    Geometry (in Angstrom), charge = 1, multiplicity = 1:

       Center              X                  Y                   Z               Mass
    ------------   -----------------  -----------------  -----------------  -----------------
         NA           0.000000000000     0.000000000000     0.000000000000    22.989769282000
         O            1.285259000000    -1.153262000000    -1.611448000000    15.994914619570
         H            1.153437000000    -0.457589000000    -2.307772000000     1.007825032230
         H            2.233554000000    -1.295964000000    -1.675455000000     1.007825032230
         O            0.015079000000     2.249596000000    -1.029439000000    15.994914619570
         H            0.758716000000     2.786048000000    -0.799301000000     1.007825032230
         H           -0.644652000000     2.867532000000    -1.422312000000     1.007825032230
         O            0.077834000000    -2.168857000000     1.191453000000    15.994914619570
         H            0.847867000000    -2.443931000000     0.714386000000     1.007825032230
         H           -0.420080000000    -2.971254000000     1.529163000000     1.007825032230
         O            2.051840000000     0.606902000000     1.147426000000    15.994914619570
         H            2.621342000000     1.274506000000     0.769810000000     1.007825032230
         H            1.731269000000     1.021384000000     1.952136000000     1.007825032230
         O           -2.067947000000     0.408587000000     0.901339000000    15.994914619570
         H           -1.890616000000     1.227864000000     1.441286000000     1.007825032230
         H           -2.586505000000    -0.220929000000     1.396051000000     1.007825032230

  Charge       = 1
  Multiplicity = 1
  Basis Set: AUG-CC-PVTZ
    Blend: AUG-CC-PVTZ
  Basis Set: (AUG-CC-PVTZ AUX)
    Blend: AUG-CC-PVTZ-JKFIT + DEF2-UNIVERSAL-JKFIT

    Orbital Energies [Eh]
    ---------------------

    Doubly Occupied:

       1A    -40.558479     2A    -20.733332     3A    -20.729530
       4A    -20.727192     5A    -20.721010     6A    -20.702692
       7A     -2.880693     8A     -1.606441     9A     -1.605262
      10A     -1.604560    11A     -1.518815    12A     -1.516217
      13A     -1.505556    14A     -1.497704    15A     -1.479914
      16A     -0.882695    17A     -0.877429    18A     -0.876269
      19A     -0.860651    20A     -0.855465    21A     -0.762440
      22A     -0.758128    23A     -0.753487    24A     -0.735629
      25A     -0.718313    26A     -0.681883    27A     -0.678132
      28A     -0.670477    29A     -0.667689    30A     -0.646726

  @DF-RHF Final Energy:  -542.08761738200735

   => Energetics <=

    Nuclear Repulsion Energy =            301.5340418619827005
    One-Electron Energy =               -1345.6176907475812641
    Two-Electron Energy =                 501.9960315035910980
    Total Energy =                       -542.0876173820073518
 Dipole X            :        -26.9708961           27.7805841            0.8096880
 Dipole Y            :         -1.2483400            2.5159719            1.2676319
 Dipole Z            :        -11.7752180           12.0803388            0.3051208
 Magnitude           :                                                    1.5347912
  Basis Set: (AUG-CC-PVTZ AUX)
    Blend: AUG-CC-PVTZ-RI + DEF2-QZVPP-RI
	 Reference Energy          =    -542.0876173820073518 [Eh]
	 Singles Energy            =      -0.0000000000000000 [Eh]
	 Same-Spin Energy          =      -0.3509628386597307 [Eh]
	 Opposite-Spin Energy      =      -1.0990716164093655 [Eh]
	 Correlation Energy        =      -1.4500344550690962 [Eh]
	 Total Energy              =    -543.5376518370763961 [Eh]

	 ================> DF-SCS-MP2 Energies <==================
	-----------------------------------------------------------
	 SCS Same-Spin Scale       =       0.3333333333333333 [-]
	 SCS Opposite-Spin Scale   =       1.2000000000000000 [-]
	 SCS Same-Spin Energy      =      -0.1169876128865769 [Eh]
	 SCS Opposite-Spin Energy  =      -1.3188859396912385 [Eh]
	 SCS Correlation Energy    =      -1.4358735525778155 [Eh]
	 SCS Total Energy          =    -543.5234909345851975 [Eh]
	-----------------------------------------------------------

*** Psi4 exiting successfully. Buy a developer a beer!
