                               Psi4 1.8.2 release

  ==> Input File <==

--------------------------------------------------------------------------
MEMORY 60 GB

molecule dimer {
1 1
Na         0.000000     0.000000     0.000000
O         -0.016634     2.345683    -0.609321
H          0.441678     2.450256    -1.409300
H          0.733689     2.265644     0.005770
O          0.406428    -1.097493    -2.293116
H          0.899427    -0.937944    -3.106605
H          0.661938    -1.992354    -2.078615
O          2.069479     1.034300     0.451098
H          2.747916     1.000797    -0.192622
H          2.391647     0.698374     1.298185
O         -1.213915     0.523942     1.927405
H         -1.110685     1.402355     2.320522
H         -2.137289     0.311989     1.834560
O          1.342782    -1.704267     1.482592
H          0.507916    -2.003377     1.175612
H          1.850860    -2.539289     1.574754
O         -1.325409    -1.920437     0.348480
H         -1.929786    -1.973954     1.095278
H         -1.800531    -2.290450    -0.440086

units ang
no_reorient
no_com
symmetry c1
}

set {
basis        aug-cc-pVTZ
scf_type     df
}

energy("mp2")
--------------------------------------------------------------------------

    Molecular point group: c1

    Geometry (in Angstrom), charge = 1, multiplicity = 1:

       Center              X                  Y                   Z               Mass
    ------------   -----------------  -----------------  -----------------  -----------------
         NA           0.000000000000     0.000000000000     0.000000000000    22.989769282000
         O           -0.016634000000     2.345683000000    -0.609321000000    15.994914619570
         H            0.441678000000     2.450256000000    -1.409300000000     1.007825032230
         H            0.733689000000     2.265644000000     0.005770000000     1.007825032230
         O            0.406428000000    -1.097493000000    -2.293116000000    15.994914619570
         H            0.899427000000    -0.937944000000    -3.106605000000     1.007825032230
         H            0.661938000000    -1.992354000000    -2.078615000000     1.007825032230
         O            2.069479000000     1.034300000000     0.451098000000    15.994914619570
         H            2.747916000000     1.000797000000    -0.192622000000     1.007825032230
         H            2.391647000000     0.698374000000     1.298185000000     1.007825032230
         O           -1.213915000000     0.523942000000     1.927405000000    15.994914619570
         H           -1.110685000000     1.402355000000     2.320522000000     1.007825032230
         H           -2.137289000000     0.311989000000     1.834560000000     1.007825032230
         O            1.342782000000    -1.704267000000     1.482592000000    15.994914619570
         H            0.507916000000    -2.003377000000     1.175612000000     1.007825032230
         H            1.850860000000    -2.539289000000     1.574754000000     1.007825032230
         O           -1.325409000000    -1.920437000000     0.348480000000    15.994914619570
         H           -1.929786000000    -1.973954000000     1.095278000000     1.007825032230
         H           -1.800531000000    -2.290450000000    -0.440086000000     1.007825032230

  Charge       = 1
  Multiplicity = 1
  Basis Set: AUG-CC-PVTZ
    Blend: AUG-CC-PVTZ
  Basis Set: (AUG-CC-PVTZ AUX)
    Blend: AUG-CC-PVTZ-JKFIT + DEF2-UNIVERSAL-JKFIT

    Orbital Energies [Eh]
    ---------------------

    Doubly Occupied:

       1A    -40.555098     2A    -20.746504     3A    -20.724681
       4A    -20.724195     5A    -20.716486     6A    -20.698493
       7A    -20.686209     8A     -2.877634     9A     -1.604000
      10A     -1.602028    11A     -1.601867    12A     -1.526019
      13A     -1.522318    14A     -1.511408    15A     -1.503521
      16A     -1.488799    17A     -1.485917    18A     -0.898854
      19A     -0.897436    20A     -0.878885    21A     -0.868312
      22A     -0.856201    23A     -0.848955    24A     -0.769999
      25A     -0.764272    26A     -0.754520    27A     -0.742023
      28A     -0.726755    29A     -0.712248    30A     -0.692507
      31A     -0.678954    32A     -0.669868    33A     -0.666810
      34A     -0.644822    35A     -0.639976

  @DF-RHF Final Energy:  -618.15555021826640

   => Energetics <=

    Nuclear Repulsion Energy =            410.1207160731918862
    One-Electron Energy =               -1665.9793762057904587
    Two-Electron Energy =                 637.7031099143321171
    Total Energy =                       -618.1555502182663986
 Dipole X            :        -24.6954617           25.2441483            0.5486866
 Dipole Y            :         17.6936898          -19.1885229           -1.4948330
 Dipole Z            :        -23.9010641           23.6868798           -0.2141843
 Magnitude           :                                                    1.6066915
  Basis Set: (AUG-CC-PVTZ AUX)
    Blend: AUG-CC-PVTZ-RI + DEF2-QZVPP-RI
	 Reference Energy          =    -618.1555502182663986 [Eh]
	 Singles Energy            =      -0.0000000000000000 [Eh]
	 Same-Spin Energy          =      -0.4236425704190070 [Eh]
	 Opposite-Spin Energy      =      -1.3194644423652102 [Eh]
	 Correlation Energy        =      -1.7431070127842172 [Eh]
	 Total Energy              =    -619.8986572310506062 [Eh]

	 ================> DF-SCS-MP2 Energies <==================
	-----------------------------------------------------------
	 SCS Same-Spin Scale       =       0.3333333333333333 [-]
	 SCS Opposite-Spin Scale   =       1.2000000000000000 [-]
	 SCS Same-Spin Energy      =      -0.1412141901396690 [Eh]
	 SCS Opposite-Spin Energy  =      -1.5833573308382523 [Eh]
	 SCS Correlation Energy    =      -1.7245715209779213 [Eh]
	 SCS Total Energy          =    -619.8801217392443732 [Eh]
	-----------------------------------------------------------

*** Psi4 exiting successfully. Buy a developer a beer!
