                               Psi4 1.8.2 release

  ==> Input File <==

--------------------------------------------------------------------------
MEMORY 60 GB

molecule dimer {
0 1
Gh(Na)     0.000000     0.000000     0.000000
Gh(O)     -1.550334     1.816641    -0.647719
Gh(H)     -1.763595     2.148064    -1.549173
Gh(H)     -2.345886     1.993166    -0.095342
Gh(O)      1.776229    -0.620344    -1.543284
Gh(H)      1.957125    -1.432281    -2.104550
Gh(H)      2.456253     0.027568    -1.657251
Gh(O)     -0.110460    -0.599504     2.332443
Gh(H)     -0.274930    -0.167045     3.165026
Gh(H)     -0.837619    -1.226720     2.297426
O         -1.487710    -1.471897    -1.190235
H         -2.323235    -1.734375    -0.749536
H         -1.811237    -1.091178    -2.013706

units ang
no_reorient
no_com
symmetry c1
}

set {
basis        aug-cc-pVTZ
scf_type     df
}

energy("mp2")
--------------------------------------------------------------------------

    Molecular point group: c1

    Geometry (in Angstrom), charge = 0, multiplicity = 1:

       Center              X                  Y                   Z               Mass
    ------------   -----------------  -----------------  -----------------  -----------------
      Gh(NA)          0.000000000000     0.000000000000     0.000000000000    22.989769282000
      Gh(O)          -1.550334000000     1.816641000000    -0.647719000000    15.994914619570
      Gh(H)          -1.763595000000     2.148064000000    -1.549173000000     1.007825032230
      Gh(H)          -2.345886000000     1.993166000000    -0.095342000000     1.007825032230
      Gh(O)           1.776229000000    -0.620344000000    -1.543284000000    15.994914619570
      Gh(H)           1.957125000000    -1.432281000000    -2.104550000000     1.007825032230
      Gh(H)           2.456253000000     0.027568000000    -1.657251000000     1.007825032230
      Gh(O)          -0.110460000000    -0.599504000000     2.332443000000    15.994914619570
      Gh(H)          -0.274930000000    -0.167045000000     3.165026000000     1.007825032230
      Gh(H)          -0.837619000000    -1.226720000000     2.297426000000     1.007825032230
         O           -1.487710000000    -1.471897000000    -1.190235000000    15.994914619570
         H           -2.323235000000    -1.734375000000    -0.749536000000     1.007825032230
         H           -1.811237000000    -1.091178000000    -2.013706000000     1.007825032230

  Charge       = 0
  Multiplicity = 1
  Basis Set: AUG-CC-PVTZ
    Blend: AUG-CC-PVTZ
  Basis Set: (AUG-CC-PVTZ AUX)
    Blend: AUG-CC-PVTZ-JKFIT + DEF2-UNIVERSAL-JKFIT

    Orbital Energies [Eh]
    ---------------------

    Doubly Occupied:

       1A    -20.570726     2A     -1.348091     3A     -0.704543
       4A     -0.587383     5A     -0.509969

  @DF-RHF Final Energy:   -76.05893360475588

   => Energetics <=

    Nuclear Repulsion Energy =              9.0641466280494711
    One-Electron Energy =                -122.8047325221484840
    Two-Electron Energy =                  37.6816522893431340
    Total Energy =                        -76.0589336047558788
 Dipole X            :         29.5472756          -30.3039354           -0.7566598
 Dipole Y            :         27.6698156          -27.5913790            0.0784366
 Dipole Z            :         22.9624884          -23.2155160           -0.2530276
 Magnitude           :                                                    0.8016915
  Basis Set: (AUG-CC-PVTZ AUX)
    Blend: AUG-CC-PVTZ-RI + DEF2-QZVPP-RI
	 Reference Energy          =     -76.0589336047558788 [Eh]
	 Singles Energy            =      -0.0000000000000000 [Eh]
	 Same-Spin Energy          =      -0.0687125525158594 [Eh]
	 Opposite-Spin Energy      =      -0.2166319516996258 [Eh]
	 Correlation Energy        =      -0.2853445042154852 [Eh]
	 Total Energy              =     -76.3442781089713662 [Eh]

	 ================> DF-SCS-MP2 Energies <==================
	-----------------------------------------------------------
	 SCS Same-Spin Scale       =       0.3333333333333333 [-]
	 SCS Opposite-Spin Scale   =       1.2000000000000000 [-]
	 SCS Same-Spin Energy      =      -0.0229041841719531 [Eh]
	 SCS Opposite-Spin Energy  =      -0.2599583420395510 [Eh]
	 SCS Correlation Energy    =      -0.2828625262115041 [Eh]
	 SCS Total Energy          =     -76.3417961309673814 [Eh]
	-----------------------------------------------------------

*** Psi4 exiting successfully. Buy a developer a beer!
