                               Psi4 1.8.2 release

  ==> Input File <==

--------------------------------------------------------------------------
MEMORY 60 GB

molecule dimer {
1 1
Na         0.000000     0.000000     0.000000
Gh(O)     -2.058645     0.434487     1.171922
Gh(H)     -2.658565     1.121252     0.841320
Gh(H)     -2.557630    -0.382890     0.953784
Gh(O)      1.051296     1.338895     2.009781
Gh(H)      2.035858     1.255881     2.040475
Gh(H)      0.850641     1.874788     2.758326
Gh(O)     -0.639434    -1.764377    -1.349866
Gh(H)     -1.458636    -1.683678    -1.767648
Gh(H)     -0.058484    -1.996889    -2.070390
Gh(O)      1.802084     1.145751    -1.009113
Gh(H)      2.499224     1.024550    -1.661574
Gh(H)      1.730347     2.091370    -0.837185

units ang
no_reorient
no_com
symmetry c1
}

set {
basis        aug-cc-pVTZ
scf_type     df
}

energy("mp2")
--------------------------------------------------------------------------

    Molecular point group: c1

    Geometry (in Angstrom), charge = 1, multiplicity = 1:

       Center              X                  Y                   Z               Mass
    ------------   -----------------  -----------------  -----------------  -----------------
         NA           0.000000000000     0.000000000000     0.000000000000    22.989769282000
      Gh(O)          -2.058645000000     0.434487000000     1.171922000000    15.994914619570
      Gh(H)          -2.658565000000     1.121252000000     0.841320000000     1.007825032230
      Gh(H)          -2.557630000000    -0.382890000000     0.953784000000     1.007825032230
      Gh(O)           1.051296000000     1.338895000000     2.009781000000    15.994914619570
      Gh(H)           2.035858000000     1.255881000000     2.040475000000     1.007825032230
      Gh(H)           0.850641000000     1.874788000000     2.758326000000     1.007825032230
      Gh(O)          -0.639434000000    -1.764377000000    -1.349866000000    15.994914619570
      Gh(H)          -1.458636000000    -1.683678000000    -1.767648000000     1.007825032230
      Gh(H)          -0.058484000000    -1.996889000000    -2.070390000000     1.007825032230
      Gh(O)           1.802084000000     1.145751000000    -1.009113000000    15.994914619570
      Gh(H)           2.499224000000     1.024550000000    -1.661574000000     1.007825032230
      Gh(H)           1.730347000000     2.091370000000    -0.837185000000     1.007825032230

  Charge       = 1
  Multiplicity = 1
  Basis Set: AUG-CC-PVTZ
    Blend: AUG-CC-PVTZ
  Basis Set: (AUG-CC-PVTZ AUX)
    Blend: AUG-CC-PVTZ-JKFIT + DEF2-UNIVERSAL-JKFIT

    Orbital Energies [Eh]
    ---------------------

    Doubly Occupied:

       1A    -40.760734     2A     -3.073937     3A     -1.797302
       4A     -1.797289     5A     -1.797180

  @DF-RHF Final Energy:  -161.67608103272707

   => Energetics <=

    Nuclear Repulsion Energy =              0.0000000000000000
    One-Electron Energy =                -224.8992771003333360
    Two-Electron Energy =                  63.2231960676062528
    Total Energy =                       -161.6760810327270974
 Dipole X            :         -0.0000225            0.0000000           -0.0000225
 Dipole Y            :          0.0000593            0.0000000            0.0000593
 Dipole Z            :         -0.0000060            0.0000000           -0.0000060
 Magnitude           :                                                    0.0000637
  Basis Set: (AUG-CC-PVTZ AUX)
    Blend: AUG-CC-PVTZ-RI + DEF2-QZVPP-RI
	 Reference Energy          =    -161.6760810327270690 [Eh]
	 Singles Energy            =      -0.0000000000000000 [Eh]
	 Same-Spin Energy          =      -0.0050934086647489 [Eh]
	 Opposite-Spin Energy      =      -0.0162842692522500 [Eh]
	 Correlation Energy        =      -0.0213776779169989 [Eh]
	 Total Energy              =    -161.6974587106440708 [Eh]

	 ================> DF-SCS-MP2 Energies <==================
	-----------------------------------------------------------
	 SCS Same-Spin Scale       =       0.3333333333333333 [-]
	 SCS Opposite-Spin Scale   =       1.2000000000000000 [-]
	 SCS Same-Spin Energy      =      -0.0016978028882496 [Eh]
	 SCS Opposite-Spin Energy  =      -0.0195411231027000 [Eh]
	 SCS Correlation Energy    =      -0.0212389259909497 [Eh]
	 SCS Total Energy          =    -161.6973199587180261 [Eh]
	-----------------------------------------------------------

*** Psi4 exiting successfully. Buy a developer a beer!
