                               Psi4 1.8.2 release

  ==> Input File <==

--------------------------------------------------------------------------
MEMORY 60 GB

molecule dimer {
0 1
Gh(Na)     0.000000     0.000000     0.000000
O          0.678160     2.284288    -0.397643
H          1.614332     2.337963    -0.456092
H          0.453059     2.958377     0.208204
Gh(O)     -1.023978    -2.189835     0.746360
Gh(H)     -0.521172    -2.711199     0.158310
Gh(H)     -0.741558    -2.343754     1.621825
Gh(O)     -1.055877     1.483188     1.542185
Gh(H)     -1.151422     2.354443     1.184827
Gh(H)     -1.725839     1.293498     2.192923
Gh(O)      1.362518    -0.511661    -1.626750
Gh(H)      1.650715    -0.789797    -2.502568
Gh(H)      2.116689    -0.657072    -1.084660

units ang
no_reorient
no_com
symmetry c1
}

set {
basis        aug-cc-pVTZ
scf_type     df
}

energy("mp2")
--------------------------------------------------------------------------

    Molecular point group: c1

    Geometry (in Angstrom), charge = 0, multiplicity = 1:

       Center              X                  Y                   Z               Mass
    ------------   -----------------  -----------------  -----------------  -----------------
      Gh(NA)          0.000000000000     0.000000000000     0.000000000000    22.989769282000
         O            0.678160000000     2.284288000000    -0.397643000000    15.994914619570
         H            1.614332000000     2.337963000000    -0.456092000000     1.007825032230
         H            0.453059000000     2.958377000000     0.208204000000     1.007825032230
      Gh(O)          -1.023978000000    -2.189835000000     0.746360000000    15.994914619570
      Gh(H)          -0.521172000000    -2.711199000000     0.158310000000     1.007825032230
      Gh(H)          -0.741558000000    -2.343754000000     1.621825000000     1.007825032230
      Gh(O)          -1.055877000000     1.483188000000     1.542185000000    15.994914619570
      Gh(H)          -1.151422000000     2.354443000000     1.184827000000     1.007825032230
      Gh(H)          -1.725839000000     1.293498000000     2.192923000000     1.007825032230
      Gh(O)           1.362518000000    -0.511661000000    -1.626750000000    15.994914619570
      Gh(H)           1.650715000000    -0.789797000000    -2.502568000000     1.007825032230
      Gh(H)           2.116689000000    -0.657072000000    -1.084660000000     1.007825032230

  Charge       = 0
  Multiplicity = 1
  Basis Set: AUG-CC-PVTZ
    Blend: AUG-CC-PVTZ
  Basis Set: (AUG-CC-PVTZ AUX)
    Blend: AUG-CC-PVTZ-JKFIT + DEF2-UNIVERSAL-JKFIT

    Orbital Energies [Eh]
    ---------------------

    Doubly Occupied:

       1A    -20.563547     2A     -1.364913     3A     -0.727818
       4A     -0.590092     5A     -0.512278

  @DF-RHF Final Energy:   -76.06108661084377

   => Energetics <=

    Nuclear Repulsion Energy =              9.3979159479092154
    One-Electron Energy =                -123.4007084316501590
    Two-Electron Energy =                  37.9417058728971810
    Total Energy =                        -76.0610866108437733
 Dipole X            :        -13.6818953           14.1590961            0.4772008
 Dipole Y            :        -44.0521340           44.5420618            0.4899277
 Dipole Z            :          6.8481535           -6.4799314            0.3682221
 Magnitude           :                                                    0.7767479
  Basis Set: (AUG-CC-PVTZ AUX)
    Blend: AUG-CC-PVTZ-RI + DEF2-QZVPP-RI
	 Reference Energy          =     -76.0610866108437733 [Eh]
	 Singles Energy            =      -0.0000000000000000 [Eh]
	 Same-Spin Energy          =      -0.0680678834616444 [Eh]
	 Opposite-Spin Energy      =      -0.2147857448149170 [Eh]
	 Correlation Energy        =      -0.2828536282765614 [Eh]
	 Total Energy              =     -76.3439402391203288 [Eh]

	 ================> DF-SCS-MP2 Energies <==================
	-----------------------------------------------------------
	 SCS Same-Spin Scale       =       0.3333333333333333 [-]
	 SCS Opposite-Spin Scale   =       1.2000000000000000 [-]
	 SCS Same-Spin Energy      =      -0.0226892944872148 [Eh]
	 SCS Opposite-Spin Energy  =      -0.2577428937779004 [Eh]
	 SCS Correlation Energy    =      -0.2804321882651152 [Eh]
	 SCS Total Energy          =     -76.3415187991088828 [Eh]
	-----------------------------------------------------------

*** Psi4 exiting successfully. Buy a developer a beer!
