                               Psi4 1.8.2 release

  ==> Input File <==

--------------------------------------------------------------------------
MEMORY 60 GB

molecule dimer {
0 1
Gh(Na)     0.000000     0.000000     0.000000
Gh(O)     -0.176977     1.686618    -2.008264
Gh(H)     -0.632707     2.516626    -2.104365
Gh(H)      0.159539     1.416134    -2.919306
O          1.634007    -0.997109    -1.357904
H          1.486035    -0.968361    -2.307521
H          1.460201    -1.819247    -0.910788
Gh(O)      1.120484    -0.081834     2.153587
Gh(H)      1.506776     0.791182     2.044304
Gh(H)      0.522102    -0.043865     2.978173
Gh(O)     -1.063075    -1.858798     0.142341
Gh(H)     -1.368323    -2.410910     0.865620
Gh(H)     -1.298628    -2.180823    -0.693113
Gh(O)     -0.084576     2.215043     0.683941
Gh(H)     -0.140511     2.320130     1.634745
Gh(H)      0.316926     3.119409     0.463861

units ang
no_reorient
no_com
symmetry c1
}

set {
basis        aug-cc-pVTZ
scf_type     df
}

energy("mp2")
--------------------------------------------------------------------------

    Molecular point group: c1

    Geometry (in Angstrom), charge = 0, multiplicity = 1:

       Center              X                  Y                   Z               Mass
    ------------   -----------------  -----------------  -----------------  -----------------
      Gh(NA)          0.000000000000     0.000000000000     0.000000000000    22.989769282000
      Gh(O)          -0.176977000000     1.686618000000    -2.008264000000    15.994914619570
      Gh(H)          -0.632707000000     2.516626000000    -2.104365000000     1.007825032230
      Gh(H)           0.159539000000     1.416134000000    -2.919306000000     1.007825032230
         O            1.634007000000    -0.997109000000    -1.357904000000    15.994914619570
         H            1.486035000000    -0.968361000000    -2.307521000000     1.007825032230
         H            1.460201000000    -1.819247000000    -0.910788000000     1.007825032230
      Gh(O)           1.120484000000    -0.081834000000     2.153587000000    15.994914619570
      Gh(H)           1.506776000000     0.791182000000     2.044304000000     1.007825032230
      Gh(H)           0.522102000000    -0.043865000000     2.978173000000     1.007825032230
      Gh(O)          -1.063075000000    -1.858798000000     0.142341000000    15.994914619570
      Gh(H)          -1.368323000000    -2.410910000000     0.865620000000     1.007825032230
      Gh(H)          -1.298628000000    -2.180823000000    -0.693113000000     1.007825032230
      Gh(O)          -0.084576000000     2.215043000000     0.683941000000    15.994914619570
      Gh(H)          -0.140511000000     2.320130000000     1.634745000000     1.007825032230
      Gh(H)           0.316926000000     3.119409000000     0.463861000000     1.007825032230

  Charge       = 0
  Multiplicity = 1
  Basis Set: AUG-CC-PVTZ
    Blend: AUG-CC-PVTZ
  Basis Set: (AUG-CC-PVTZ AUX)
    Blend: AUG-CC-PVTZ-JKFIT + DEF2-UNIVERSAL-JKFIT

    Orbital Energies [Eh]
    ---------------------

    Doubly Occupied:

       1A    -20.560692     2A     -1.344943     3A     -0.740989
       4A     -0.560076     5A     -0.506366

  @DF-RHF Final Energy:   -76.05739837371405

   => Energetics <=

    Nuclear Repulsion Energy =              9.1739514083219351
    One-Electron Energy =                -123.0365642140090898
    Two-Electron Energy =                  37.8052144319730914
    Total Energy =                        -76.0573983737140509
 Dipole X            :        -30.4933345           30.2701849           -0.2231496
 Dipole Y            :         19.7907279          -20.3419191           -0.5511912
 Dipole Z            :         26.2622398          -26.6102559           -0.3480161
 Magnitude           :                                                    0.6890012
  Basis Set: (AUG-CC-PVTZ AUX)
    Blend: AUG-CC-PVTZ-RI + DEF2-QZVPP-RI
	 Reference Energy          =     -76.0573983737140509 [Eh]
	 Singles Energy            =      -0.0000000000000000 [Eh]
	 Same-Spin Energy          =      -0.0683545626455658 [Eh]
	 Opposite-Spin Energy      =      -0.2154234945581409 [Eh]
	 Correlation Energy        =      -0.2837780572037067 [Eh]
	 Total Energy              =     -76.3411764309177556 [Eh]

	 ================> DF-SCS-MP2 Energies <==================
	-----------------------------------------------------------
	 SCS Same-Spin Scale       =       0.3333333333333333 [-]
	 SCS Opposite-Spin Scale   =       1.2000000000000000 [-]
	 SCS Same-Spin Energy      =      -0.0227848542151886 [Eh]
	 SCS Opposite-Spin Energy  =      -0.2585081934697691 [Eh]
	 SCS Correlation Energy    =      -0.2812930476849577 [Eh]
	 SCS Total Energy          =     -76.3386914213990053 [Eh]
	-----------------------------------------------------------

*** Psi4 exiting successfully. Buy a developer a beer!
