                               Psi4 1.8.2 release

  ==> Input File <==

--------------------------------------------------------------------------
MEMORY 60 GB

molecule dimer {
1 1
Na         0.000000     0.000000     0.000000
O         -1.270892     0.775336    -1.734881
H         -2.041556     0.267356    -1.809439
H         -1.389474     1.715105    -2.154391
O         -1.538328     1.148730     1.663206
H         -2.479361     0.999225     1.788695
H         -1.153620     0.858041     2.489959
O          1.119723    -1.679292    -1.361821
H          1.074447    -1.430682    -2.285905
H          1.954304    -2.132372    -1.289916
O          1.802531    -0.151360     1.513496
H          1.956804    -0.794728     2.265743
H          2.401941    -0.491777     0.846105
O         -1.831106    -1.657480    -0.070603
H         -2.766494    -1.428010    -0.112170
H         -1.501432    -2.003291    -0.932357

units ang
no_reorient
no_com
symmetry c1
}

set {
basis        aug-cc-pVTZ
scf_type     df
}

energy("mp2")
--------------------------------------------------------------------------

    Molecular point group: c1

    Geometry (in Angstrom), charge = 1, multiplicity = 1:

       Center              X                  Y                   Z               Mass
    ------------   -----------------  -----------------  -----------------  -----------------
         NA           0.000000000000     0.000000000000     0.000000000000    22.989769282000
         O           -1.270892000000     0.775336000000    -1.734881000000    15.994914619570
         H           -2.041556000000     0.267356000000    -1.809439000000     1.007825032230
         H           -1.389474000000     1.715105000000    -2.154391000000     1.007825032230
         O           -1.538328000000     1.148730000000     1.663206000000    15.994914619570
         H           -2.479361000000     0.999225000000     1.788695000000     1.007825032230
         H           -1.153620000000     0.858041000000     2.489959000000     1.007825032230
         O            1.119723000000    -1.679292000000    -1.361821000000    15.994914619570
         H            1.074447000000    -1.430682000000    -2.285905000000     1.007825032230
         H            1.954304000000    -2.132372000000    -1.289916000000     1.007825032230
         O            1.802531000000    -0.151360000000     1.513496000000    15.994914619570
         H            1.956804000000    -0.794728000000     2.265743000000     1.007825032230
         H            2.401941000000    -0.491777000000     0.846105000000     1.007825032230
         O           -1.831106000000    -1.657480000000    -0.070603000000    15.994914619570
         H           -2.766494000000    -1.428010000000    -0.112170000000     1.007825032230
         H           -1.501432000000    -2.003291000000    -0.932357000000     1.007825032230

  Charge       = 1
  Multiplicity = 1
  Basis Set: AUG-CC-PVTZ
    Blend: AUG-CC-PVTZ
  Basis Set: (AUG-CC-PVTZ AUX)
    Blend: AUG-CC-PVTZ-JKFIT + DEF2-UNIVERSAL-JKFIT

    Orbital Energies [Eh]
    ---------------------

    Doubly Occupied:

       1A    -40.561550     2A    -20.738119     3A    -20.730442
       4A    -20.728955     5A    -20.719494     6A    -20.706415
       7A     -2.883554     8A     -1.609106     9A     -1.608046
      10A     -1.607586    11A     -1.528963    12A     -1.507536
      13A     -1.505485    14A     -1.495939    15A     -1.493760
      16A     -0.891289    17A     -0.884509    18A     -0.876577
      19A     -0.860980    20A     -0.854689    21A     -0.771532
      22A     -0.755424    23A     -0.746629    24A     -0.733494
      25A     -0.728069    26A     -0.689195    27A     -0.677544
      28A     -0.673446    29A     -0.664672    30A     -0.651452

  @DF-RHF Final Energy:  -542.08001194512906

   => Energetics <=

    Nuclear Repulsion Energy =            303.4805994323876348
    One-Electron Energy =               -1349.3523059233189088
    Two-Electron Energy =                 503.7916945458022724
    Total Energy =                       -542.0800119451289447
 Dipole X            :         33.0006264          -33.4273976           -0.4267712
 Dipole Y            :         31.0424736          -32.0377761           -0.9953025
 Dipole Z            :          1.2689468           -2.1136587           -0.8447118
 Magnitude           :                                                    1.3734259
  Basis Set: (AUG-CC-PVTZ AUX)
    Blend: AUG-CC-PVTZ-RI + DEF2-QZVPP-RI
	 Reference Energy          =    -542.0800119451290584 [Eh]
	 Singles Energy            =      -0.0000000000000000 [Eh]
	 Same-Spin Energy          =      -0.3513681852393345 [Eh]
	 Opposite-Spin Energy      =      -1.0994655906893933 [Eh]
	 Correlation Energy        =      -1.4508337759287278 [Eh]
	 Total Energy              =    -543.5308457210577444 [Eh]

	 ================> DF-SCS-MP2 Energies <==================
	-----------------------------------------------------------
	 SCS Same-Spin Scale       =       0.3333333333333333 [-]
	 SCS Opposite-Spin Scale   =       1.2000000000000000 [-]
	 SCS Same-Spin Energy      =      -0.1171227284131115 [Eh]
	 SCS Opposite-Spin Energy  =      -1.3193587088272720 [Eh]
	 SCS Correlation Energy    =      -1.4364814372403836 [Eh]
	 SCS Total Energy          =    -543.5164933823693900 [Eh]
	-----------------------------------------------------------

*** Psi4 exiting successfully. Buy a developer a beer!
