                               Psi4 1.8.2 release

  ==> Input File <==

--------------------------------------------------------------------------
MEMORY 60 GB

molecule dimer {
0 1
Gh(Na)     0.000000     0.000000     0.000000
Gh(O)      0.897942     0.232779    -2.242681
Gh(H)      0.375770     0.945152    -2.637263
Gh(H)      1.742548     0.701814    -2.136948
Gh(O)     -0.526370    -2.247938    -0.113789
Gh(H)     -0.067939    -2.929889     0.403156
Gh(H)     -1.121253    -2.676460    -0.712395
O          0.965071     2.227927    -0.066810
H          1.977096     2.201242     0.110202
H          0.828364     2.723446    -0.874262
Gh(O)     -0.282618     0.653366     2.269494
Gh(H)     -1.091358     0.346471     2.688083
Gh(H)      0.398640     0.607206     2.959686

units ang
no_reorient
no_com
symmetry c1
}

set {
basis        aug-cc-pVTZ
scf_type     df
}

energy("mp2")
--------------------------------------------------------------------------

    Molecular point group: c1

    Geometry (in Angstrom), charge = 0, multiplicity = 1:

       Center              X                  Y                   Z               Mass
    ------------   -----------------  -----------------  -----------------  -----------------
      Gh(NA)          0.000000000000     0.000000000000     0.000000000000    22.989769282000
      Gh(O)           0.897942000000     0.232779000000    -2.242681000000    15.994914619570
      Gh(H)           0.375770000000     0.945152000000    -2.637263000000     1.007825032230
      Gh(H)           1.742548000000     0.701814000000    -2.136948000000     1.007825032230
      Gh(O)          -0.526370000000    -2.247938000000    -0.113789000000    15.994914619570
      Gh(H)          -0.067939000000    -2.929889000000     0.403156000000     1.007825032230
      Gh(H)          -1.121253000000    -2.676460000000    -0.712395000000     1.007825032230
         O            0.965071000000     2.227927000000    -0.066810000000    15.994914619570
         H            1.977096000000     2.201242000000     0.110202000000     1.007825032230
         H            0.828364000000     2.723446000000    -0.874262000000     1.007825032230
      Gh(O)          -0.282618000000     0.653366000000     2.269494000000    15.994914619570
      Gh(H)          -1.091358000000     0.346471000000     2.688083000000     1.007825032230
      Gh(H)           0.398640000000     0.607206000000     2.959686000000     1.007825032230

  Charge       = 0
  Multiplicity = 1
  Basis Set: AUG-CC-PVTZ
    Blend: AUG-CC-PVTZ
  Basis Set: (AUG-CC-PVTZ AUX)
    Blend: AUG-CC-PVTZ-JKFIT + DEF2-UNIVERSAL-JKFIT

    Orbital Energies [Eh]
    ---------------------

    Doubly Occupied:

       1A    -20.571383     2A     -1.335202     3A     -0.704423
       4A     -0.572088     5A     -0.506725

  @DF-RHF Final Energy:   -76.05399379729153

   => Energetics <=

    Nuclear Repulsion Energy =              8.8725836260589066
    One-Electron Energy =                -122.4735082237829857
    Two-Electron Energy =                  37.5469308004325555
    Total Energy =                        -76.0539937972915254
 Dipole X            :        -19.3246906           19.8913101            0.5666195
 Dipole Y            :        -42.6761791           42.9876864            0.3115074
 Dipole Z            :          2.0332796           -2.4538850           -0.4206054
 Magnitude           :                                                    0.7713646
  Basis Set: (AUG-CC-PVTZ AUX)
    Blend: AUG-CC-PVTZ-RI + DEF2-QZVPP-RI
	 Reference Energy          =     -76.0539937972915254 [Eh]
	 Singles Energy            =      -0.0000000000000000 [Eh]
	 Same-Spin Energy          =      -0.0689588635672971 [Eh]
	 Opposite-Spin Energy      =      -0.2176038993226534 [Eh]
	 Correlation Energy        =      -0.2865627628899505 [Eh]
	 Total Energy              =     -76.3405565601814828 [Eh]

	 ================> DF-SCS-MP2 Energies <==================
	-----------------------------------------------------------
	 SCS Same-Spin Scale       =       0.3333333333333333 [-]
	 SCS Opposite-Spin Scale   =       1.2000000000000000 [-]
	 SCS Same-Spin Energy      =      -0.0229862878557657 [Eh]
	 SCS Opposite-Spin Energy  =      -0.2611246791871841 [Eh]
	 SCS Correlation Energy    =      -0.2841109670429498 [Eh]
	 SCS Total Energy          =     -76.3381047643344743 [Eh]
	-----------------------------------------------------------

*** Psi4 exiting successfully. Buy a developer a beer!
