                               Psi4 1.8.2 release

  ==> Input File <==

--------------------------------------------------------------------------
MEMORY 60 GB

molecule dimer {
0 1
Gh(Na)     0.000000     0.000000     0.000000
Gh(O)      1.404702    -0.485518    -1.896445
Gh(H)      1.038745    -1.321937    -2.102680
Gh(H)      1.307717     0.036148    -2.685769
Gh(O)     -1.779006    -0.081116    -1.451137
Gh(H)     -1.861816     0.166913    -2.371670
Gh(H)     -2.628732     0.137084    -0.991427
Gh(O)     -0.705629    -1.885287     0.969773
Gh(H)     -1.640917    -1.977294     0.921356
Gh(H)     -0.341296    -2.802783     1.169197
O         -0.020124     2.263140    -0.701517
H          0.750889     2.324265    -1.265418
H         -0.815691     2.319251    -1.249151

units ang
no_reorient
no_com
symmetry c1
}

set {
basis        aug-cc-pVTZ
scf_type     df
}

energy("mp2")
--------------------------------------------------------------------------

    Molecular point group: c1

    Geometry (in Angstrom), charge = 0, multiplicity = 1:

       Center              X                  Y                   Z               Mass
    ------------   -----------------  -----------------  -----------------  -----------------
      Gh(NA)          0.000000000000     0.000000000000     0.000000000000    22.989769282000
      Gh(O)           1.404702000000    -0.485518000000    -1.896445000000    15.994914619570
      Gh(H)           1.038745000000    -1.321937000000    -2.102680000000     1.007825032230
      Gh(H)           1.307717000000     0.036148000000    -2.685769000000     1.007825032230
      Gh(O)          -1.779006000000    -0.081116000000    -1.451137000000    15.994914619570
      Gh(H)          -1.861816000000     0.166913000000    -2.371670000000     1.007825032230
      Gh(H)          -2.628732000000     0.137084000000    -0.991427000000     1.007825032230
      Gh(O)          -0.705629000000    -1.885287000000     0.969773000000    15.994914619570
      Gh(H)          -1.640917000000    -1.977294000000     0.921356000000     1.007825032230
      Gh(H)          -0.341296000000    -2.802783000000     1.169197000000     1.007825032230
         O           -0.020124000000     2.263140000000    -0.701517000000    15.994914619570
         H            0.750889000000     2.324265000000    -1.265418000000     1.007825032230
         H           -0.815691000000     2.319251000000    -1.249151000000     1.007825032230

  Charge       = 0
  Multiplicity = 1
  Basis Set: AUG-CC-PVTZ
    Blend: AUG-CC-PVTZ
  Basis Set: (AUG-CC-PVTZ AUX)
    Blend: AUG-CC-PVTZ-JKFIT + DEF2-UNIVERSAL-JKFIT

    Orbital Energies [Eh]
    ---------------------

    Doubly Occupied:

       1A    -20.565816     2A     -1.347760     3A     -0.723272
       4A     -0.575174     5A     -0.508572

  @DF-RHF Final Energy:   -76.06003791747462

   => Energetics <=

    Nuclear Repulsion Energy =              9.1364099651690402
    One-Electron Energy =                -122.9517041113970208
    Two-Electron Energy =                  37.7552562287533675
    Total Energy =                        -76.0600379174746166
 Dipole X            :          0.4116922           -0.4266888           -0.0149966
 Dipole Y            :        -42.9096443           42.9886918            0.0790474
 Dipole Z            :         14.6102824          -15.3572468           -0.7469644
 Magnitude           :                                                    0.7512850
  Basis Set: (AUG-CC-PVTZ AUX)
    Blend: AUG-CC-PVTZ-RI + DEF2-QZVPP-RI
	 Reference Energy          =     -76.0600379174746166 [Eh]
	 Singles Energy            =      -0.0000000000000000 [Eh]
	 Same-Spin Energy          =      -0.0684428202758354 [Eh]
	 Opposite-Spin Energy      =      -0.2159316542803422 [Eh]
	 Correlation Energy        =      -0.2843744745561776 [Eh]
	 Total Energy              =     -76.3444123920307902 [Eh]

	 ================> DF-SCS-MP2 Energies <==================
	-----------------------------------------------------------
	 SCS Same-Spin Scale       =       0.3333333333333333 [-]
	 SCS Opposite-Spin Scale   =       1.2000000000000000 [-]
	 SCS Same-Spin Energy      =      -0.0228142734252785 [Eh]
	 SCS Opposite-Spin Energy  =      -0.2591179851364106 [Eh]
	 SCS Correlation Energy    =      -0.2819322585616891 [Eh]
	 SCS Total Energy          =     -76.3419701760363125 [Eh]
	-----------------------------------------------------------

*** Psi4 exiting successfully. Buy a developer a beer!
