                               Psi4 1.8.2 release

  ==> Input File <==

--------------------------------------------------------------------------
MEMORY 60 GB

molecule dimer {
0 1
Gh(Na)     0.000000     0.000000     0.000000
Gh(O)     -0.326768     2.408225     0.061285
Gh(H)      0.544784     2.772753    -0.175390
Gh(H)     -0.732186     2.969370     0.737395
Gh(O)      0.756241     0.217993     2.191234
Gh(H)      0.298885    -0.587551     2.571149
Gh(H)      1.393189     0.622836     2.815605
Gh(O)      1.186850    -2.317272     0.164521
Gh(H)      1.872732    -2.329814     0.850027
Gh(H)      0.683306    -3.146135     0.325061
O          1.885007     0.747789    -1.167856
H          2.689228     0.780065    -0.668381
H          2.068393     0.776155    -2.104132
Gh(O)     -1.476463     0.638790    -1.711258
Gh(H)     -0.833314     1.324452    -1.599428
Gh(H)     -2.279710     1.059435    -1.296832

units ang
no_reorient
no_com
symmetry c1
}

set {
basis        aug-cc-pVTZ
scf_type     df
}

energy("mp2")
--------------------------------------------------------------------------

    Molecular point group: c1

    Geometry (in Angstrom), charge = 0, multiplicity = 1:

       Center              X                  Y                   Z               Mass
    ------------   -----------------  -----------------  -----------------  -----------------
      Gh(NA)          0.000000000000     0.000000000000     0.000000000000    22.989769282000
      Gh(O)          -0.326768000000     2.408225000000     0.061285000000    15.994914619570
      Gh(H)           0.544784000000     2.772753000000    -0.175390000000     1.007825032230
      Gh(H)          -0.732186000000     2.969370000000     0.737395000000     1.007825032230
      Gh(O)           0.756241000000     0.217993000000     2.191234000000    15.994914619570
      Gh(H)           0.298885000000    -0.587551000000     2.571149000000     1.007825032230
      Gh(H)           1.393189000000     0.622836000000     2.815605000000     1.007825032230
      Gh(O)           1.186850000000    -2.317272000000     0.164521000000    15.994914619570
      Gh(H)           1.872732000000    -2.329814000000     0.850027000000     1.007825032230
      Gh(H)           0.683306000000    -3.146135000000     0.325061000000     1.007825032230
         O            1.885007000000     0.747789000000    -1.167856000000    15.994914619570
         H            2.689228000000     0.780065000000    -0.668381000000     1.007825032230
         H            2.068393000000     0.776155000000    -2.104132000000     1.007825032230
      Gh(O)          -1.476463000000     0.638790000000    -1.711258000000    15.994914619570
      Gh(H)          -0.833314000000     1.324452000000    -1.599428000000     1.007825032230
      Gh(H)          -2.279710000000     1.059435000000    -1.296832000000     1.007825032230

  Charge       = 0
  Multiplicity = 1
  Basis Set: AUG-CC-PVTZ
    Blend: AUG-CC-PVTZ
  Basis Set: (AUG-CC-PVTZ AUX)
    Blend: AUG-CC-PVTZ-JKFIT + DEF2-UNIVERSAL-JKFIT

    Orbital Energies [Eh]
    ---------------------

    Doubly Occupied:

       1A    -20.563046     2A     -1.352425     3A     -0.732864
       4A     -0.574062     5A     -0.509011

  @DF-RHF Final Energy:   -76.06054606067286

   => Energetics <=

    Nuclear Repulsion Energy =              9.2427241137782126
    One-Electron Energy =                -123.1437203739649675
    Two-Electron Energy =                  37.8404501995138887
    Total Energy =                        -76.0605460606728627
 Dipole X            :        -36.8152336           37.4877765            0.6725429
 Dipole Y            :        -14.2044566           14.2457609            0.0413043
 Dipole Z            :         22.5983246          -22.8947142           -0.2963896
 Magnitude           :                                                    0.7361160
  Basis Set: (AUG-CC-PVTZ AUX)
    Blend: AUG-CC-PVTZ-RI + DEF2-QZVPP-RI
	 Reference Energy          =     -76.0605460606728627 [Eh]
	 Singles Energy            =      -0.0000000000000000 [Eh]
	 Same-Spin Energy          =      -0.0682355711148160 [Eh]
	 Opposite-Spin Energy      =      -0.2153049989254791 [Eh]
	 Correlation Energy        =      -0.2835405700402950 [Eh]
	 Total Energy              =     -76.3440866307131643 [Eh]

	 ================> DF-SCS-MP2 Energies <==================
	-----------------------------------------------------------
	 SCS Same-Spin Scale       =       0.3333333333333333 [-]
	 SCS Opposite-Spin Scale   =       1.2000000000000000 [-]
	 SCS Same-Spin Energy      =      -0.0227451903716053 [Eh]
	 SCS Opposite-Spin Energy  =      -0.2583659987105749 [Eh]
	 SCS Correlation Energy    =      -0.2811111890821802 [Eh]
	 SCS Total Energy          =     -76.3416572497550447 [Eh]
	-----------------------------------------------------------

*** Psi4 exiting successfully. Buy a developer a beer!
