                               Psi4 1.8.2 release

  ==> Input File <==

--------------------------------------------------------------------------
MEMORY 60 GB

molecule dimer {
1 1
Na         0.000000     0.000000     0.000000
O         -1.371627    -0.910990    -1.738968
H         -2.225004    -0.362023    -1.723958
H         -1.583777    -1.810688    -1.348074
O         -1.627495     1.776149     0.403766
H         -1.295572     2.668369     0.129330
H         -2.180298     1.827238     1.131582
O          1.777113    -1.842919    -0.309474
H          1.036427    -2.184772     0.244859
H          2.605022    -1.908448     0.154364
O         -0.746949    -1.450897     1.784131
H         -1.396092    -2.132055     1.814768
H         -0.857192    -1.089903     2.632736

units ang
no_reorient
no_com
symmetry c1
}

set {
basis        aug-cc-pVTZ
scf_type     df
}

energy("mp2")
--------------------------------------------------------------------------

    Molecular point group: c1

    Geometry (in Angstrom), charge = 1, multiplicity = 1:

       Center              X                  Y                   Z               Mass
    ------------   -----------------  -----------------  -----------------  -----------------
         NA           0.000000000000     0.000000000000     0.000000000000    22.989769282000
         O           -1.371627000000    -0.910990000000    -1.738968000000    15.994914619570
         H           -2.225004000000    -0.362023000000    -1.723958000000     1.007825032230
         H           -1.583777000000    -1.810688000000    -1.348074000000     1.007825032230
         O           -1.627495000000     1.776149000000     0.403766000000    15.994914619570
         H           -1.295572000000     2.668369000000     0.129330000000     1.007825032230
         H           -2.180298000000     1.827238000000     1.131582000000     1.007825032230
         O            1.777113000000    -1.842919000000    -0.309474000000    15.994914619570
         H            1.036427000000    -2.184772000000     0.244859000000     1.007825032230
         H            2.605022000000    -1.908448000000     0.154364000000     1.007825032230
         O           -0.746949000000    -1.450897000000     1.784131000000    15.994914619570
         H           -1.396092000000    -2.132055000000     1.814768000000     1.007825032230
         H           -0.857192000000    -1.089903000000     2.632736000000     1.007825032230

  Charge       = 1
  Multiplicity = 1
  Basis Set: AUG-CC-PVTZ
    Blend: AUG-CC-PVTZ
  Basis Set: (AUG-CC-PVTZ AUX)
    Blend: AUG-CC-PVTZ-JKFIT + DEF2-UNIVERSAL-JKFIT

    Orbital Energies [Eh]
    ---------------------

    Doubly Occupied:

       1A    -40.607588     2A    -20.756120     3A    -20.740501
       4A    -20.734327     5A    -20.716760     6A     -2.927396
       7A     -1.652356     8A     -1.651357     9A     -1.650517
      10A     -1.562559    11A     -1.531603    12A     -1.496242
      13A     -1.489896    14A     -0.913609    15A     -0.912362
      16A     -0.877570    17A     -0.856587    18A     -0.806560
      19A     -0.762783    20A     -0.736432    21A     -0.724628
      22A     -0.709550    23A     -0.691592    24A     -0.672932
      25A     -0.662388

  @DF-RHF Final Energy:  -465.99993892542113

   => Energetics <=

    Nuclear Repulsion Energy =            212.1174909737734708
    One-Electron Energy =               -1062.5464276580364640
    Two-Electron Energy =                 384.4289977588418878
    Total Energy =                       -465.9999389254211337
 Dipole X            :         39.3398472          -40.9090746           -1.5692275
 Dipole Y            :         45.9451372          -46.1500184           -0.2048812
 Dipole Z            :         -5.8892570            7.8447199            1.9554629
 Magnitude           :                                                    2.5156085
  Basis Set: (AUG-CC-PVTZ AUX)
    Blend: AUG-CC-PVTZ-RI + DEF2-QZVPP-RI
	 Reference Energy          =    -465.9999389254211337 [Eh]
	 Singles Energy            =      -0.0000000000000000 [Eh]
	 Same-Spin Energy          =      -0.2803409847383731 [Eh]
	 Opposite-Spin Energy      =      -0.8789842598163351 [Eh]
	 Correlation Energy        =      -1.1593252445547082 [Eh]
	 Total Energy              =    -467.1592641699758701 [Eh]

	 ================> DF-SCS-MP2 Energies <==================
	-----------------------------------------------------------
	 SCS Same-Spin Scale       =       0.3333333333333333 [-]
	 SCS Opposite-Spin Scale   =       1.2000000000000000 [-]
	 SCS Same-Spin Energy      =      -0.0934469949127910 [Eh]
	 SCS Opposite-Spin Energy  =      -1.0547811117796020 [Eh]
	 SCS Correlation Energy    =      -1.1482281066923929 [Eh]
	 SCS Total Energy          =    -467.1481670321135198 [Eh]
	-----------------------------------------------------------

*** Psi4 exiting successfully. Buy a developer a beer!
