                               Psi4 1.8.2 release

  ==> Input File <==

--------------------------------------------------------------------------
MEMORY 60 GB

molecule dimer {
0 1
Gh(Na)     0.000000     0.000000     0.000000
O         -1.169214     0.675061    -1.965345
H         -1.806908    -0.031789    -2.222785
H         -1.605764     1.457733    -2.244370
Gh(O)     -0.030340    -2.107786    -1.084587
Gh(H)      0.207561    -2.894411    -0.558114
Gh(H)      0.618974    -2.140900    -1.742073
Gh(O)      0.692412     0.310337     2.464985
Gh(H)     -0.299640     0.237282     2.718297
Gh(H)      1.167970    -0.408106     2.881909
Gh(O)     -2.120624    -0.497677     1.271846
Gh(H)     -2.415073     0.222634     1.817307
Gh(H)     -2.903605    -0.836519     0.750395
Gh(O)      0.425403     2.480866     0.024064
Gh(H)      0.339669     3.168213     0.657297
Gh(H)     -0.465816     2.494236    -0.380434
Gh(O)      2.583179    -0.496408    -0.190695
Gh(H)      2.787887    -0.734051    -1.155683
Gh(H)      2.934192     0.414483    -0.062159

units ang
no_reorient
no_com
symmetry c1
}

set {
basis        aug-cc-pVTZ
scf_type     df
}

energy("mp2")
--------------------------------------------------------------------------

    Molecular point group: c1

    Geometry (in Angstrom), charge = 0, multiplicity = 1:

       Center              X                  Y                   Z               Mass
    ------------   -----------------  -----------------  -----------------  -----------------
      Gh(NA)          0.000000000000     0.000000000000     0.000000000000    22.989769282000
         O           -1.169214000000     0.675061000000    -1.965345000000    15.994914619570
         H           -1.806908000000    -0.031789000000    -2.222785000000     1.007825032230
         H           -1.605764000000     1.457733000000    -2.244370000000     1.007825032230
      Gh(O)          -0.030340000000    -2.107786000000    -1.084587000000    15.994914619570
      Gh(H)           0.207561000000    -2.894411000000    -0.558114000000     1.007825032230
      Gh(H)           0.618974000000    -2.140900000000    -1.742073000000     1.007825032230
      Gh(O)           0.692412000000     0.310337000000     2.464985000000    15.994914619570
      Gh(H)          -0.299640000000     0.237282000000     2.718297000000     1.007825032230
      Gh(H)           1.167970000000    -0.408106000000     2.881909000000     1.007825032230
      Gh(O)          -2.120624000000    -0.497677000000     1.271846000000    15.994914619570
      Gh(H)          -2.415073000000     0.222634000000     1.817307000000     1.007825032230
      Gh(H)          -2.903605000000    -0.836519000000     0.750395000000     1.007825032230
      Gh(O)           0.425403000000     2.480866000000     0.024064000000    15.994914619570
      Gh(H)           0.339669000000     3.168213000000     0.657297000000     1.007825032230
      Gh(H)          -0.465816000000     2.494236000000    -0.380434000000     1.007825032230
      Gh(O)           2.583179000000    -0.496408000000    -0.190695000000    15.994914619570
      Gh(H)           2.787887000000    -0.734051000000    -1.155683000000     1.007825032230
      Gh(H)           2.934192000000     0.414483000000    -0.062159000000     1.007825032230

  Charge       = 0
  Multiplicity = 1
  Basis Set: AUG-CC-PVTZ
    Blend: AUG-CC-PVTZ
  Basis Set: (AUG-CC-PVTZ AUX)
    Blend: AUG-CC-PVTZ-JKFIT + DEF2-UNIVERSAL-JKFIT

    Orbital Energies [Eh]
    ---------------------

    Doubly Occupied:

       1A    -20.568554     2A     -1.352676     3A     -0.711500
       4A     -0.587250     5A     -0.510465

  @DF-RHF Final Energy:   -76.05907475167108

   => Energetics <=

    Nuclear Repulsion Energy =              9.1550053481486220
    One-Electron Energy =                -122.9672671000759721
    Two-Electron Energy =                  37.7531870002562755
    Total Energy =                        -76.0590747516710763
 Dipole X            :         23.4178842          -24.1249694           -0.7070852
 Dipole Y            :        -12.8414565           12.9000869            0.0586304
 Dipole Z            :         37.7993847          -38.1534098           -0.3540252
 Magnitude           :                                                    0.7929318
  Basis Set: (AUG-CC-PVTZ AUX)
    Blend: AUG-CC-PVTZ-RI + DEF2-QZVPP-RI
	 Reference Energy          =     -76.0590747516710763 [Eh]
	 Singles Energy            =      -0.0000000000000000 [Eh]
	 Same-Spin Energy          =      -0.0685406109272350 [Eh]
	 Opposite-Spin Energy      =      -0.2163219631915410 [Eh]
	 Correlation Energy        =      -0.2848625741187760 [Eh]
	 Total Energy              =     -76.3439373257898524 [Eh]

	 ================> DF-SCS-MP2 Energies <==================
	-----------------------------------------------------------
	 SCS Same-Spin Scale       =       0.3333333333333333 [-]
	 SCS Opposite-Spin Scale   =       1.2000000000000000 [-]
	 SCS Same-Spin Energy      =      -0.0228468703090783 [Eh]
	 SCS Opposite-Spin Energy  =      -0.2595863558298492 [Eh]
	 SCS Correlation Energy    =      -0.2824332261389276 [Eh]
	 SCS Total Energy          =     -76.3415079778100107 [Eh]
	-----------------------------------------------------------

*** Psi4 exiting successfully. Buy a developer a beer!
