                               Psi4 1.9 release

  ==> Input File <==

--------------------------------------------------------------------------
MEMORY 60 GB

molecule dimer {
1 1
Na     0.000000     0.000000     0.000000
--
0 1
O      1.295992    -1.038055    -1.666929
H      1.199472    -0.914486    -2.588127
H      2.215709    -0.827473    -1.487559
O      0.945093    -1.880558     0.968601
H      1.449261    -2.195584     0.246835
H      0.398653    -2.523314     1.421842
O     -1.899954     0.291284     1.327143
H     -1.989905     1.254936     1.673416
H     -1.881234    -0.239655     2.109490
O      2.210054     0.959882     0.855124
H      2.866527     0.324916     0.526095
H      2.208158     0.741535     1.764241
O     -1.049559     1.773634    -1.401658
H     -0.352216     2.144695    -1.977073
H     -1.638655     1.166318    -1.764810

units ang
no_reorient
no_com
symmetry c1
}

set {
basis        aug-cc-pVTZ
scf_type     df
}

energy("mp2", bsse_type="cp")
--------------------------------------------------------------------------

                               Psi4 1.9 release
    Molecular point group: c1
  Charge       = 0
  Multiplicity = 1
  Basis Set: AUG-CC-PVTZ
    Blend: AUG-CC-PVTZ
  Basis Set: (AUG-CC-PVTZ AUX)
    Blend: AUG-CC-PVTZ-JKFIT + DEF2-UNIVERSAL-JKFIT
  @DF-RHF Final Energy:  -380.27285696387480
    Total Energy =                       -380.2728569638748013
 Dipole X            :        -30.3067442           31.1592746            0.8525304
 Dipole Y            :         -0.4390241           -0.4131244           -0.8521485
 Dipole Z            :         -1.3633490            1.1009507           -0.2623983
 Magnitude           :                                                    1.2336199
  Basis Set: (AUG-CC-PVTZ AUX)
    Blend: AUG-CC-PVTZ-RI + DEF2-QZVPP-RI
	 Reference Energy          =    -380.2728569638748013 [Eh]
	 Singles Energy            =      -0.0000000000000000 [Eh]
	 Same-Spin Energy          =      -0.3451454114321058 [Eh]
	 Opposite-Spin Energy      =      -1.0823789303044831 [Eh]
	 Correlation Energy        =      -1.4275243417365888 [Eh]
	 Total Energy              =    -381.7003813056114154 [Eh]
	 SCS Total Energy          =    -381.6867601507175323 [Eh]
                               Psi4 1.9 release
    Molecular point group: c1
  Multiplicity = 1
  Basis Set: AUG-CC-PVTZ
    Blend: AUG-CC-PVTZ
  Basis Set: (AUG-CC-PVTZ AUX)
    Blend: AUG-CC-PVTZ-JKFIT + DEF2-UNIVERSAL-JKFIT
  @DF-RHF Final Energy:  -161.67609044044940
    Total Energy =                       -161.6760904404493999
  Basis Set: (AUG-CC-PVTZ AUX)
	 Singles Energy            =      -0.0000000000000000 [Eh]
	 Same-Spin Energy          =      -0.0062429819844427 [Eh]
	 Opposite-Spin Energy      =      -0.0192303824116084 [Eh]
	 Correlation Energy        =      -0.0254733643960511 [Eh]
	 Total Energy              =    -161.7015638048454491 [Eh]
	 SCS Total Energy          =    -161.7012478933381487 [Eh]
                               Psi4 1.9 release
    Molecular point group: c1

    Geometry (in Bohr), charge = 1, multiplicity = 1:

       Center              X                  Y                   Z               Mass
    ------------   -----------------  -----------------  -----------------  -----------------
         NA           0.000000000000     0.000000000000     0.000000000000    22.989769282000
         O            2.449069940784    -1.961639653162    -3.150039280583    15.994914619570
         H            2.266673575155    -1.728128085565    -4.890851207903     1.007825032230
         H            4.187083183712    -1.563697346211    -2.811079105460     1.007825032230
         O            1.785966933087    -3.553739583039     1.830390614845    15.994914619570
         H            2.738706374307    -4.149052445437     0.466450548177     1.007825032230
         H            0.753344989092    -4.768372388533     2.686891973673     1.007825032230
         O           -3.590392710968     0.550446984728     2.507936799318    15.994914619570
         H           -3.760375465679     2.371485344978     3.162297933959     1.007825032230
         H           -3.555017037900    -0.452882314597     3.986358364392     1.007825032230
         O            4.176396782473     1.813914092757     1.615950163306    15.994914619570
         H            5.416950961230     0.614002253779     0.994175465973     1.007825032230
         H            4.172813861739     1.401298062441     3.333932309304     1.007825032230
         O           -1.983379062509     3.351682506800    -2.648749741557    15.994914619570
         H           -0.665591777004     4.052886172639    -3.736126500037     1.007825032230
         H           -3.096609164112     2.204021595192    -3.335007563469     1.007825032230

  Charge       = 1
  Multiplicity = 1
  Basis Set: AUG-CC-PVTZ
    Blend: AUG-CC-PVTZ
  Basis Set: (AUG-CC-PVTZ AUX)
    Blend: AUG-CC-PVTZ-JKFIT + DEF2-UNIVERSAL-JKFIT

    Orbital Energies [Eh]
    ---------------------

    Doubly Occupied:

       1A    -40.564279     2A    -20.748579     3A    -20.728863
       4A    -20.722779     5A    -20.721445     6A    -20.712594
       7A     -2.887202     8A     -1.612830     9A     -1.612006
      10A     -1.611525    11A     -1.546808    12A     -1.519108
      13A     -1.514402    14A     -1.504899    15A     -1.500871
      16A     -0.924980    17A     -0.901993    18A     -0.900632
      19A     -0.866523    20A     -0.861359    21A     -0.784474
      22A     -0.753772    23A     -0.749678    24A     -0.743224
      25A     -0.717191    26A     -0.703427    27A     -0.679638
      28A     -0.673570    29A     -0.668488    30A     -0.665672

  @DF-RHF Final Energy:  -542.07560624998030

   => Energetics <=

    Nuclear Repulsion Energy =            305.0950909886888667
    One-Electron Energy =               -1352.1357703021433281
    Two-Electron Energy =                 504.9650730634740512
    Total Energy =                       -542.0756062499802965
 Dipole X            :        -30.1383686           31.1592746            1.0209059
 Dipole Y            :         -0.4643807           -0.4131244           -0.8775050
 Dipole Z            :         -1.3386446            1.1009507           -0.2376939
 Magnitude           :                                                    1.3670268
  Basis Set: (AUG-CC-PVTZ AUX)
    Blend: AUG-CC-PVTZ-RI + DEF2-QZVPP-RI
	 Reference Energy          =    -542.0756062499802965 [Eh]
	 Singles Energy            =      -0.0000000000000000 [Eh]
	 Same-Spin Energy          =      -0.3506146147697706 [Eh]
	 Opposite-Spin Energy      =      -1.0966988798613706 [Eh]
	 Correlation Energy        =      -1.4473134946311412 [Eh]
	 Total Energy              =    -543.5229197446113858 [Eh]

	 ================> DF-SCS-MP2 Energies <==================
	-----------------------------------------------------------
	 SCS Same-Spin Scale       =       0.3333333333333333 [-]
	 SCS Opposite-Spin Scale   =       1.2000000000000000 [-]
	 SCS Same-Spin Energy      =      -0.1168715382565902 [Eh]
	 SCS Opposite-Spin Energy  =      -1.3160386558336448 [Eh]
	 SCS Correlation Energy    =      -1.4329101940902349 [Eh]
	 SCS Total Energy          =    -543.5085164440705512 [Eh]
	-----------------------------------------------------------

*** Psi4 exiting successfully. Buy a developer a beer!
