                               Psi4 1.8.2 release

  ==> Input File <==

--------------------------------------------------------------------------
MEMORY 60 GB

molecule dimer {
1 1
Na         0.000000     0.000000     0.000000
Gh(O)      0.455401     1.725871    -1.530100
Gh(H)      0.381599     2.703129    -1.701900
Gh(H)      1.168828     1.383847    -1.972639
Gh(O)      0.099395    -1.245093    -1.972522
Gh(H)     -0.525908    -1.852204    -2.373265
Gh(H)      0.897570    -1.353097    -2.425965
Gh(O)     -0.577192    -2.096889     1.451220
Gh(H)     -0.502479    -1.745663     2.351427
Gh(H)     -0.878722    -2.990788     1.553783
Gh(O)     -1.109273     1.078842     1.946875
Gh(H)     -1.010859     0.585553     2.773577
Gh(H)     -1.699356     1.860468     2.119333
Gh(O)      2.116279     0.093364     1.509554
Gh(H)      2.034470     0.874012     2.152355
Gh(H)      2.186417    -0.715612     2.045233

units ang
no_reorient
no_com
symmetry c1
}

set {
basis        aug-cc-pVTZ
scf_type     df
}

energy("mp2")
--------------------------------------------------------------------------

    Molecular point group: c1

    Geometry (in Angstrom), charge = 1, multiplicity = 1:

       Center              X                  Y                   Z               Mass
    ------------   -----------------  -----------------  -----------------  -----------------
         NA           0.000000000000     0.000000000000     0.000000000000    22.989769282000
      Gh(O)           0.455401000000     1.725871000000    -1.530100000000    15.994914619570
      Gh(H)           0.381599000000     2.703129000000    -1.701900000000     1.007825032230
      Gh(H)           1.168828000000     1.383847000000    -1.972639000000     1.007825032230
      Gh(O)           0.099395000000    -1.245093000000    -1.972522000000    15.994914619570
      Gh(H)          -0.525908000000    -1.852204000000    -2.373265000000     1.007825032230
      Gh(H)           0.897570000000    -1.353097000000    -2.425965000000     1.007825032230
      Gh(O)          -0.577192000000    -2.096889000000     1.451220000000    15.994914619570
      Gh(H)          -0.502479000000    -1.745663000000     2.351427000000     1.007825032230
      Gh(H)          -0.878722000000    -2.990788000000     1.553783000000     1.007825032230
      Gh(O)          -1.109273000000     1.078842000000     1.946875000000    15.994914619570
      Gh(H)          -1.010859000000     0.585553000000     2.773577000000     1.007825032230
      Gh(H)          -1.699356000000     1.860468000000     2.119333000000     1.007825032230
      Gh(O)           2.116279000000     0.093364000000     1.509554000000    15.994914619570
      Gh(H)           2.034470000000     0.874012000000     2.152355000000     1.007825032230
      Gh(H)           2.186417000000    -0.715612000000     2.045233000000     1.007825032230

  Charge       = 1
  Multiplicity = 1
  Basis Set: AUG-CC-PVTZ
    Blend: AUG-CC-PVTZ
  Basis Set: (AUG-CC-PVTZ AUX)
    Blend: AUG-CC-PVTZ-JKFIT + DEF2-UNIVERSAL-JKFIT

    Orbital Energies [Eh]
    ---------------------

    Doubly Occupied:

       1A    -40.760547     2A     -3.073847     3A     -1.797210
       4A     -1.797193     5A     -1.797134

  @DF-RHF Final Energy:  -161.67608721758970

   => Energetics <=

    Nuclear Repulsion Energy =              0.0000000000000000
    One-Electron Energy =                -224.9003120101961599
    Two-Electron Energy =                  63.2242247926064778
    Total Energy =                       -161.6760872175896679
 Dipole X            :         -0.0000236            0.0000000           -0.0000236
 Dipole Y            :         -0.0000496            0.0000000           -0.0000496
 Dipole Z            :          0.0000568            0.0000000            0.0000568
 Magnitude           :                                                    0.0000790
  Basis Set: (AUG-CC-PVTZ AUX)
    Blend: AUG-CC-PVTZ-RI + DEF2-QZVPP-RI
	 Reference Energy          =    -161.6760872175896964 [Eh]
	 Singles Energy            =      -0.0000000000000000 [Eh]
	 Same-Spin Energy          =      -0.0058644446045476 [Eh]
	 Opposite-Spin Energy      =      -0.0182671589551542 [Eh]
	 Correlation Energy        =      -0.0241316035597018 [Eh]
	 Total Energy              =    -161.7002188211494058 [Eh]

	 ================> DF-SCS-MP2 Energies <==================
	-----------------------------------------------------------
	 SCS Same-Spin Scale       =       0.3333333333333333 [-]
	 SCS Opposite-Spin Scale   =       1.2000000000000000 [-]
	 SCS Same-Spin Energy      =      -0.0019548148681825 [Eh]
	 SCS Opposite-Spin Energy  =      -0.0219205907461851 [Eh]
	 SCS Correlation Energy    =      -0.0238754056143676 [Eh]
	 SCS Total Energy          =    -161.6999626232040725 [Eh]
	-----------------------------------------------------------

*** Psi4 exiting successfully. Buy a developer a beer!
