                               Psi4 1.8.2 release

  ==> Input File <==

--------------------------------------------------------------------------
MEMORY 60 GB

molecule dimer {
0 1
Gh(Na)     0.000000     0.000000     0.000000
Gh(O)     -0.897532    -2.178500     0.017525
Gh(H)     -1.843403    -2.189920     0.149337
Gh(H)     -0.582756    -2.774658     0.713365
Gh(O)      1.591836     0.043402     2.008514
Gh(H)      1.716990     0.920967     2.376036
Gh(H)      1.411828    -0.601746     2.676202
Gh(O)     -1.189951     0.486911    -1.920717
Gh(H)     -1.068420     0.988809    -2.658257
Gh(H)     -2.180180     0.605188    -1.812331
O         -0.608989     2.168295     1.082772
H         -1.262092     2.080125     1.733612
H         -0.903001     2.839890     0.429345
Gh(O)      1.897515     0.031709    -1.711733
Gh(H)      2.558639     0.731250    -1.645906
Gh(H)      1.496705     0.148755    -2.522837

units ang
no_reorient
no_com
symmetry c1
}

set {
basis        aug-cc-pVTZ
scf_type     df
}

energy("mp2")
--------------------------------------------------------------------------

    Molecular point group: c1

    Geometry (in Angstrom), charge = 0, multiplicity = 1:

       Center              X                  Y                   Z               Mass
    ------------   -----------------  -----------------  -----------------  -----------------
      Gh(NA)          0.000000000000     0.000000000000     0.000000000000    22.989769282000
      Gh(O)          -0.897532000000    -2.178500000000     0.017525000000    15.994914619570
      Gh(H)          -1.843403000000    -2.189920000000     0.149337000000     1.007825032230
      Gh(H)          -0.582756000000    -2.774658000000     0.713365000000     1.007825032230
      Gh(O)           1.591836000000     0.043402000000     2.008514000000    15.994914619570
      Gh(H)           1.716990000000     0.920967000000     2.376036000000     1.007825032230
      Gh(H)           1.411828000000    -0.601746000000     2.676202000000     1.007825032230
      Gh(O)          -1.189951000000     0.486911000000    -1.920717000000    15.994914619570
      Gh(H)          -1.068420000000     0.988809000000    -2.658257000000     1.007825032230
      Gh(H)          -2.180180000000     0.605188000000    -1.812331000000     1.007825032230
         O           -0.608989000000     2.168295000000     1.082772000000    15.994914619570
         H           -1.262092000000     2.080125000000     1.733612000000     1.007825032230
         H           -0.903001000000     2.839890000000     0.429345000000     1.007825032230
      Gh(O)           1.897515000000     0.031709000000    -1.711733000000    15.994914619570
      Gh(H)           2.558639000000     0.731250000000    -1.645906000000     1.007825032230
      Gh(H)           1.496705000000     0.148755000000    -2.522837000000     1.007825032230

  Charge       = 0
  Multiplicity = 1
  Basis Set: AUG-CC-PVTZ
    Blend: AUG-CC-PVTZ
  Basis Set: (AUG-CC-PVTZ AUX)
    Blend: AUG-CC-PVTZ-JKFIT + DEF2-UNIVERSAL-JKFIT

    Orbital Energies [Eh]
    ---------------------

    Doubly Occupied:

       1A    -20.564356     2A     -1.352831     3A     -0.727686
       4A     -0.576935     5A     -0.509390

  @DF-RHF Final Energy:   -76.05912953436572

   => Energetics <=

    Nuclear Repulsion Energy =              9.2223672830832921
    One-Electron Energy =                -123.1005924837525640
    Two-Electron Energy =                  37.8190956663035465
    Total Energy =                        -76.0591295343657237
 Dipole X            :         12.6566554          -13.2980122           -0.6413568
 Dipole Y            :        -41.6873958           42.0773506            0.3899548
 Dipole Z            :        -20.4510130           20.4565366            0.0055237
 Magnitude           :                                                    0.7506223
  Basis Set: (AUG-CC-PVTZ AUX)
    Blend: AUG-CC-PVTZ-RI + DEF2-QZVPP-RI
	 Reference Energy          =     -76.0591295343657237 [Eh]
	 Singles Energy            =      -0.0000000000000000 [Eh]
	 Same-Spin Energy          =      -0.0682795235509058 [Eh]
	 Opposite-Spin Energy      =      -0.2153884091631027 [Eh]
	 Correlation Energy        =      -0.2836679327140085 [Eh]
	 Total Energy              =     -76.3427974670797340 [Eh]

	 ================> DF-SCS-MP2 Energies <==================
	-----------------------------------------------------------
	 SCS Same-Spin Scale       =       0.3333333333333333 [-]
	 SCS Opposite-Spin Scale   =       1.2000000000000000 [-]
	 SCS Same-Spin Energy      =      -0.0227598411836353 [Eh]
	 SCS Opposite-Spin Energy  =      -0.2584660909957232 [Eh]
	 SCS Correlation Energy    =      -0.2812259321793585 [Eh]
	 SCS Total Energy          =     -76.3403554665450770 [Eh]
	-----------------------------------------------------------

*** Psi4 exiting successfully. Buy a developer a beer!
