                               Psi4 1.8.2 release

  ==> Input File <==

--------------------------------------------------------------------------
MEMORY 60 GB

molecule dimer {
1 1
Na         0.000000     0.000000     0.000000
Gh(O)     -1.276190    -1.895462    -0.040608
Gh(H)     -2.127558    -2.381803    -0.032716
Gh(H)     -0.649478    -2.617925    -0.097285
Gh(O)      1.279520    -0.856733     1.908127
Gh(H)      1.429020    -1.725810     1.617383
Gh(H)      2.152061    -0.516055     2.066464
Gh(O)      1.299180    -0.930748    -1.795194
Gh(H)      1.895986    -0.426229    -2.417540
Gh(H)      1.773401    -1.700742    -1.666497
Gh(O)     -1.150366     1.204114    -1.632613
Gh(H)     -0.622560     1.212033    -2.467742
Gh(H)     -1.635570     2.032036    -1.478611
Gh(O)      1.957058     1.448042    -0.052295
Gh(H)      2.006511     1.818263     0.762342
Gh(H)      2.834060     1.269535    -0.454297

units ang
no_reorient
no_com
symmetry c1
}

set {
basis        aug-cc-pVTZ
scf_type     df
}

energy("mp2")
--------------------------------------------------------------------------

    Molecular point group: c1

    Geometry (in Angstrom), charge = 1, multiplicity = 1:

       Center              X                  Y                   Z               Mass
    ------------   -----------------  -----------------  -----------------  -----------------
         NA           0.000000000000     0.000000000000     0.000000000000    22.989769282000
      Gh(O)          -1.276190000000    -1.895462000000    -0.040608000000    15.994914619570
      Gh(H)          -2.127558000000    -2.381803000000    -0.032716000000     1.007825032230
      Gh(H)          -0.649478000000    -2.617925000000    -0.097285000000     1.007825032230
      Gh(O)           1.279520000000    -0.856733000000     1.908127000000    15.994914619570
      Gh(H)           1.429020000000    -1.725810000000     1.617383000000     1.007825032230
      Gh(H)           2.152061000000    -0.516055000000     2.066464000000     1.007825032230
      Gh(O)           1.299180000000    -0.930748000000    -1.795194000000    15.994914619570
      Gh(H)           1.895986000000    -0.426229000000    -2.417540000000     1.007825032230
      Gh(H)           1.773401000000    -1.700742000000    -1.666497000000     1.007825032230
      Gh(O)          -1.150366000000     1.204114000000    -1.632613000000    15.994914619570
      Gh(H)          -0.622560000000     1.212033000000    -2.467742000000     1.007825032230
      Gh(H)          -1.635570000000     2.032036000000    -1.478611000000     1.007825032230
      Gh(O)           1.957058000000     1.448042000000    -0.052295000000    15.994914619570
      Gh(H)           2.006511000000     1.818263000000     0.762342000000     1.007825032230
      Gh(H)           2.834060000000     1.269535000000    -0.454297000000     1.007825032230

  Charge       = 1
  Multiplicity = 1
  Basis Set: AUG-CC-PVTZ
    Blend: AUG-CC-PVTZ
  Basis Set: (AUG-CC-PVTZ AUX)
    Blend: AUG-CC-PVTZ-JKFIT + DEF2-UNIVERSAL-JKFIT

    Orbital Energies [Eh]
    ---------------------

    Doubly Occupied:

       1A    -40.760378     2A     -3.073786     3A     -1.797157
       4A     -1.797135     5A     -1.797089

  @DF-RHF Final Energy:  -161.67609100385948

   => Energetics <=

    Nuclear Repulsion Energy =              0.0000000000000000
    One-Electron Energy =                -224.9010908101904249
    Two-Electron Energy =                  63.2249998063309491
    Total Energy =                       -161.6760910038594830
 Dipole X            :          0.0001177            0.0000000            0.0001177
 Dipole Y            :         -0.0000713            0.0000000           -0.0000713
 Dipole Z            :          0.0000125            0.0000000            0.0000125
 Magnitude           :                                                    0.0001382
  Basis Set: (AUG-CC-PVTZ AUX)
    Blend: AUG-CC-PVTZ-RI + DEF2-QZVPP-RI
	 Reference Energy          =    -161.6760910038594830 [Eh]
	 Singles Energy            =      -0.0000000000000000 [Eh]
	 Same-Spin Energy          =      -0.0065364427669967 [Eh]
	 Opposite-Spin Energy      =      -0.0199201609030350 [Eh]
	 Correlation Energy        =      -0.0264566036700317 [Eh]
	 Total Energy              =    -161.7025476075295103 [Eh]

	 ================> DF-SCS-MP2 Energies <==================
	-----------------------------------------------------------
	 SCS Same-Spin Scale       =       0.3333333333333333 [-]
	 SCS Opposite-Spin Scale   =       1.2000000000000000 [-]
	 SCS Same-Spin Energy      =      -0.0021788142556656 [Eh]
	 SCS Opposite-Spin Energy  =      -0.0239041930836419 [Eh]
	 SCS Correlation Energy    =      -0.0260830073393075 [Eh]
	 SCS Total Energy          =    -161.7021740111987924 [Eh]
	-----------------------------------------------------------

*** Psi4 exiting successfully. Buy a developer a beer!
