                               Psi4 1.8.2 release

  ==> Input File <==

--------------------------------------------------------------------------
MEMORY 60 GB

molecule dimer {
1 1
Na         0.000000     0.000000     0.000000
O         -0.326768     2.408225     0.061285
H          0.544784     2.772753    -0.175390
H         -0.732186     2.969370     0.737395
O          0.756241     0.217993     2.191234
H          0.298885    -0.587551     2.571149
H          1.393189     0.622836     2.815605
O          1.186850    -2.317272     0.164521
H          1.872732    -2.329814     0.850027
H          0.683306    -3.146135     0.325061
O          1.885007     0.747789    -1.167856
H          2.689228     0.780065    -0.668381
H          2.068393     0.776155    -2.104132
O         -1.476463     0.638790    -1.711258
H         -0.833314     1.324452    -1.599428
H         -2.279710     1.059435    -1.296832

units ang
no_reorient
no_com
symmetry c1
}

set {
basis        aug-cc-pVTZ
scf_type     df
}

energy("mp2")
--------------------------------------------------------------------------

    Molecular point group: c1

    Geometry (in Angstrom), charge = 1, multiplicity = 1:

       Center              X                  Y                   Z               Mass
    ------------   -----------------  -----------------  -----------------  -----------------
         NA           0.000000000000     0.000000000000     0.000000000000    22.989769282000
         O           -0.326768000000     2.408225000000     0.061285000000    15.994914619570
         H            0.544784000000     2.772753000000    -0.175390000000     1.007825032230
         H           -0.732186000000     2.969370000000     0.737395000000     1.007825032230
         O            0.756241000000     0.217993000000     2.191234000000    15.994914619570
         H            0.298885000000    -0.587551000000     2.571149000000     1.007825032230
         H            1.393189000000     0.622836000000     2.815605000000     1.007825032230
         O            1.186850000000    -2.317272000000     0.164521000000    15.994914619570
         H            1.872732000000    -2.329814000000     0.850027000000     1.007825032230
         H            0.683306000000    -3.146135000000     0.325061000000     1.007825032230
         O            1.885007000000     0.747789000000    -1.167856000000    15.994914619570
         H            2.689228000000     0.780065000000    -0.668381000000     1.007825032230
         H            2.068393000000     0.776155000000    -2.104132000000     1.007825032230
         O           -1.476463000000     0.638790000000    -1.711258000000    15.994914619570
         H           -0.833314000000     1.324452000000    -1.599428000000     1.007825032230
         H           -2.279710000000     1.059435000000    -1.296832000000     1.007825032230

  Charge       = 1
  Multiplicity = 1
  Basis Set: AUG-CC-PVTZ
    Blend: AUG-CC-PVTZ
  Basis Set: (AUG-CC-PVTZ AUX)
    Blend: AUG-CC-PVTZ-JKFIT + DEF2-UNIVERSAL-JKFIT

    Orbital Energies [Eh]
    ---------------------

    Doubly Occupied:

       1A    -40.567859     2A    -20.737730     3A    -20.728106
       4A    -20.727818     5A    -20.720308     6A    -20.701447
       7A     -2.890195     8A     -1.616348     9A     -1.614804
      10A     -1.613691    11A     -1.521006    12A     -1.511585
      13A     -1.505162    14A     -1.495631    15A     -1.484982
      16A     -0.899964    17A     -0.887932    18A     -0.886241
      19A     -0.855700    20A     -0.842455    21A     -0.765598
      22A     -0.757364    23A     -0.747138    24A     -0.739865
      25A     -0.716383    26A     -0.684853    27A     -0.679825
      28A     -0.671964    29A     -0.660224    30A     -0.650173

  @DF-RHF Final Energy:  -542.07867832582383

   => Energetics <=

    Nuclear Repulsion Energy =            307.0932407081854194
    One-Electron Energy =               -1356.5791212170674953
    Two-Electron Energy =                 507.4072021830582457
    Total Energy =                       -542.0786783258238302
 Dipole X            :        -39.9570279           41.3930203            1.4359923
 Dipole Y            :        -32.8797297           33.6480212            0.7682915
 Dipole Z            :          5.8939603           -4.2358551            1.6581052
 Magnitude           :                                                    2.3241469
  Basis Set: (AUG-CC-PVTZ AUX)
    Blend: AUG-CC-PVTZ-RI + DEF2-QZVPP-RI
	 Reference Energy          =    -542.0786783258238302 [Eh]
	 Singles Energy            =      -0.0000000000000000 [Eh]
	 Same-Spin Energy          =      -0.3529085811733667 [Eh]
	 Opposite-Spin Energy      =      -1.1017296787458228 [Eh]
	 Correlation Energy        =      -1.4546382599191894 [Eh]
	 Total Energy              =    -543.5333165857430231 [Eh]

	 ================> DF-SCS-MP2 Energies <==================
	-----------------------------------------------------------
	 SCS Same-Spin Scale       =       0.3333333333333333 [-]
	 SCS Opposite-Spin Scale   =       1.2000000000000000 [-]
	 SCS Same-Spin Energy      =      -0.1176361937244556 [Eh]
	 SCS Opposite-Spin Energy  =      -1.3220756144949874 [Eh]
	 SCS Correlation Energy    =      -1.4397118082194429 [Eh]
	 SCS Total Energy          =    -543.5183901340433295 [Eh]
	-----------------------------------------------------------

*** Psi4 exiting successfully. Buy a developer a beer!
