                               Psi4 1.9 release

  ==> Input File <==

--------------------------------------------------------------------------
MEMORY 60 GB

molecule dimer {
1 1
Na     0.000000     0.000000     0.000000
--
0 1
O      1.661844     0.842701    -1.497041
H      2.528080     0.377121    -1.307093
H      1.848781     1.779490    -1.584275
O     -0.087779     2.077226     1.056665
H      0.723586     2.252445     1.568366
H     -0.229253     2.684807     0.350873
O     -0.986073    -2.138878    -0.877046
H     -0.792585    -1.599887    -1.687093
H     -0.537496    -2.949143    -1.090109
O     -1.993529     0.705204    -1.045757
H     -2.712929     0.142744    -1.464515
H     -2.466013     1.376847    -0.624703
O      2.026165    -1.165386     0.465272
H      2.085392    -1.934949     1.021382
H      2.008320    -1.517727    -0.446427

units ang
no_reorient
no_com
symmetry c1
}

set {
basis        aug-cc-pVTZ
scf_type     df
}

energy("mp2", bsse_type="cp")
--------------------------------------------------------------------------

                               Psi4 1.9 release
    Molecular point group: c1
  Charge       = 0
  Multiplicity = 1
  Basis Set: AUG-CC-PVTZ
    Blend: AUG-CC-PVTZ
  Basis Set: (AUG-CC-PVTZ AUX)
    Blend: AUG-CC-PVTZ-JKFIT + DEF2-UNIVERSAL-JKFIT
  @DF-RHF Final Energy:  -380.27497482429192
    Total Energy =                       -380.2749748242919168
 Dipole X            :        -13.2811030           14.0234818            0.7423788
 Dipole Y            :         -6.0078267            6.0068422           -0.0009845
 Dipole Z            :         37.8345983          -38.6389466           -0.8043484
 Magnitude           :                                                    1.0945792
  Basis Set: (AUG-CC-PVTZ AUX)
    Blend: AUG-CC-PVTZ-RI + DEF2-QZVPP-RI
	 Reference Energy          =    -380.2749748242919168 [Eh]
	 Singles Energy            =      -0.0000000000000000 [Eh]
	 Same-Spin Energy          =      -0.3464771437946212 [Eh]
	 Opposite-Spin Energy      =      -1.0860705442132175 [Eh]
	 Correlation Energy        =      -1.4325476880078387 [Eh]
	 Total Energy              =    -381.7075225122997608 [Eh]
	 SCS Total Energy          =    -381.6937518586126430 [Eh]
                               Psi4 1.9 release
    Molecular point group: c1
  Multiplicity = 1
  Basis Set: AUG-CC-PVTZ
    Blend: AUG-CC-PVTZ
  Basis Set: (AUG-CC-PVTZ AUX)
    Blend: AUG-CC-PVTZ-JKFIT + DEF2-UNIVERSAL-JKFIT
  @DF-RHF Final Energy:  -161.67609198568420
    Total Energy =                       -161.6760919856841952
  Basis Set: (AUG-CC-PVTZ AUX)
	 Singles Energy            =      -0.0000000000000000 [Eh]
	 Same-Spin Energy          =      -0.0060543014497280 [Eh]
	 Opposite-Spin Energy      =      -0.0187877022630264 [Eh]
	 Correlation Energy        =      -0.0248420037127545 [Eh]
	 Total Energy              =    -161.7009339893969582 [Eh]
	 SCS Total Energy          =    -161.7006553288830730 [Eh]
                               Psi4 1.9 release
    Molecular point group: c1

    Geometry (in Bohr), charge = 1, multiplicity = 1:

       Center              X                  Y                   Z               Mass
    ------------   -----------------  -----------------  -----------------  -----------------
         NA           0.000000000000     0.000000000000     0.000000000000    22.989769282000
         O            3.140430023235     1.592474095649    -2.828997488582    15.994914619570
         H            4.777378823247     0.712655406159    -2.470047790503     1.007825032230
         H            3.493689755950     3.362748742991    -2.993845857410     1.007825032230
         O           -0.165878269567     3.925388240680     1.996807456357    15.994914619570
         H            1.367379368216     4.256504162657     2.963782204480     1.007825032230
         H           -0.433225383440     5.073549929712     0.663053874818     1.007825032230
         O           -1.863407909709    -4.041893635767    -1.657376739428    15.994914619570
         H           -1.497768581146    -3.023348261680    -3.188143718177     1.007825032230
         H           -1.015720233529    -5.573072574811    -2.060007456897     1.007825032230
         O           -3.767223833158     1.332642422577    -1.976194323780    15.994914619570
         H           -5.126692807812     0.269747066052    -2.767532256625     1.007825032230
         H           -4.660089191819     2.601863746658    -1.180517579752     1.007825032230
         O            3.828896934988    -2.202260370443     0.879236653844    15.994914619570
         H            3.940819744221    -3.656523676728     1.930132249472     1.007825032230
         H            3.795174772279    -2.868088363213    -0.843624765010     1.007825032230

  Charge       = 1
  Multiplicity = 1
  Basis Set: AUG-CC-PVTZ
    Blend: AUG-CC-PVTZ
  Basis Set: (AUG-CC-PVTZ AUX)
    Blend: AUG-CC-PVTZ-JKFIT + DEF2-UNIVERSAL-JKFIT

    Orbital Energies [Eh]
    ---------------------

    Doubly Occupied:

       1A    -40.566641     2A    -20.739815     3A    -20.732289
       4A    -20.731735     5A    -20.725916     6A    -20.724207
       7A     -2.889473     8A     -1.615116     9A     -1.614254
      10A     -1.613596    11A     -1.526355    12A     -1.515813
      13A     -1.511852    14A     -1.511137    15A     -1.506137
      16A     -0.901586    17A     -0.898082    18A     -0.879542
      19A     -0.867008    20A     -0.861057    21A     -0.765013
      22A     -0.761623    23A     -0.754495    24A     -0.749386
      25A     -0.738090    26A     -0.693631    27A     -0.685056
      28A     -0.674203    29A     -0.672839    30A     -0.668396

  @DF-RHF Final Energy:  -542.07544136894501

   => Energetics <=

    Nuclear Repulsion Energy =            307.1281219072633917
    One-Electron Energy =               -1356.2184317754615677
    Two-Electron Energy =                 507.0148684992531116
    Total Energy =                       -542.0754413689450075
 Dipole X            :        -13.1777833           14.0234818            0.8456986
 Dipole Y            :         -5.9679475            6.0068422            0.0388947
 Dipole Z            :         37.6199341          -38.6389466           -1.0190125
 Magnitude           :                                                    1.3248039
  Basis Set: (AUG-CC-PVTZ AUX)
    Blend: AUG-CC-PVTZ-RI + DEF2-QZVPP-RI
	 Reference Energy          =    -542.0754413689450075 [Eh]
	 Singles Energy            =      -0.0000000000000000 [Eh]
	 Same-Spin Energy          =      -0.3516267763720708 [Eh]
	 Opposite-Spin Energy      =      -1.0995504684951014 [Eh]
	 Correlation Energy        =      -1.4511772448671723 [Eh]
	 Total Energy              =    -543.5266186138121611 [Eh]

	 ================> DF-SCS-MP2 Energies <==================
	-----------------------------------------------------------
	 SCS Same-Spin Scale       =       0.3333333333333333 [-]
	 SCS Opposite-Spin Scale   =       1.2000000000000000 [-]
	 SCS Same-Spin Energy      =      -0.1172089254573569 [Eh]
	 SCS Opposite-Spin Energy  =      -1.3194605621941216 [Eh]
	 SCS Correlation Energy    =      -1.4366694876514785 [Eh]
	 SCS Total Energy          =    -543.5121108565964505 [Eh]
	-----------------------------------------------------------

*** Psi4 exiting successfully. Buy a developer a beer!
