                               Psi4 1.8.2 release

  ==> Input File <==

--------------------------------------------------------------------------
MEMORY 60 GB

molecule dimer {
0 1
Gh(Na)     0.000000     0.000000     0.000000
Gh(O)      0.573445     0.522482    -2.425718
Gh(H)      0.565546    -0.283950    -2.909351
Gh(H)     -0.117345     1.111605    -2.808292
Gh(O)     -1.679400    -0.610316     1.453133
Gh(H)     -1.385658    -0.169377     2.284592
Gh(H)     -1.324565    -1.507257     1.282268
O          0.799290     2.100325     0.839463
H          1.724281     2.237643     0.911781
H          0.337870     2.956704     0.693773
Gh(O)      1.544445    -1.816388     0.444477
Gh(H)      2.490067    -1.614678     0.281276
Gh(H)      1.362461    -2.682268     0.137746

units ang
no_reorient
no_com
symmetry c1
}

set {
basis        aug-cc-pVTZ
scf_type     df
}

energy("mp2")
--------------------------------------------------------------------------

    Molecular point group: c1

    Geometry (in Angstrom), charge = 0, multiplicity = 1:

       Center              X                  Y                   Z               Mass
    ------------   -----------------  -----------------  -----------------  -----------------
      Gh(NA)          0.000000000000     0.000000000000     0.000000000000    22.989769282000
      Gh(O)           0.573445000000     0.522482000000    -2.425718000000    15.994914619570
      Gh(H)           0.565546000000    -0.283950000000    -2.909351000000     1.007825032230
      Gh(H)          -0.117345000000     1.111605000000    -2.808292000000     1.007825032230
      Gh(O)          -1.679400000000    -0.610316000000     1.453133000000    15.994914619570
      Gh(H)          -1.385658000000    -0.169377000000     2.284592000000     1.007825032230
      Gh(H)          -1.324565000000    -1.507257000000     1.282268000000     1.007825032230
         O            0.799290000000     2.100325000000     0.839463000000    15.994914619570
         H            1.724281000000     2.237643000000     0.911781000000     1.007825032230
         H            0.337870000000     2.956704000000     0.693773000000     1.007825032230
      Gh(O)           1.544445000000    -1.816388000000     0.444477000000    15.994914619570
      Gh(H)           2.490067000000    -1.614678000000     0.281276000000     1.007825032230
      Gh(H)           1.362461000000    -2.682268000000     0.137746000000     1.007825032230

  Charge       = 0
  Multiplicity = 1
  Basis Set: AUG-CC-PVTZ
    Blend: AUG-CC-PVTZ
  Basis Set: (AUG-CC-PVTZ AUX)
    Blend: AUG-CC-PVTZ-JKFIT + DEF2-UNIVERSAL-JKFIT

    Orbital Energies [Eh]
    ---------------------

    Doubly Occupied:

       1A    -20.564880     2A     -1.348160     3A     -0.726621
       4A     -0.572873     5A     -0.508315

  @DF-RHF Final Energy:   -76.05890095133941

   => Energetics <=

    Nuclear Repulsion Energy =              9.1530881759482092
    One-Electron Energy =                -122.9822774962503615
    Two-Electron Energy =                  37.7702883689627456
    Total Energy =                        -76.0589009513394103
 Dipole X            :        -15.6615215           15.9804142            0.3188926
 Dipole Y            :        -40.8998896           41.5682054            0.6683158
 Dipole Z            :        -15.7733712           15.7248986           -0.0484726
 Magnitude           :                                                    0.7420836
  Basis Set: (AUG-CC-PVTZ AUX)
    Blend: AUG-CC-PVTZ-RI + DEF2-QZVPP-RI
	 Reference Energy          =     -76.0589009513394103 [Eh]
	 Singles Energy            =      -0.0000000000000000 [Eh]
	 Same-Spin Energy          =      -0.0683762296785048 [Eh]
	 Opposite-Spin Energy      =      -0.2156195799047235 [Eh]
	 Correlation Energy        =      -0.2839958095832283 [Eh]
	 Total Energy              =     -76.3428967609226419 [Eh]

	 ================> DF-SCS-MP2 Energies <==================
	-----------------------------------------------------------
	 SCS Same-Spin Scale       =       0.3333333333333333 [-]
	 SCS Opposite-Spin Scale   =       1.2000000000000000 [-]
	 SCS Same-Spin Energy      =      -0.0227920765595016 [Eh]
	 SCS Opposite-Spin Energy  =      -0.2587434958856681 [Eh]
	 SCS Correlation Energy    =      -0.2815355724451697 [Eh]
	 SCS Total Energy          =     -76.3404365237845752 [Eh]
	-----------------------------------------------------------

*** Psi4 exiting successfully. Buy a developer a beer!
