                               Psi4 1.8.2 release

  ==> Input File <==

--------------------------------------------------------------------------
MEMORY 60 GB

molecule dimer {
1 1
Na         0.000000     0.000000     0.000000
O         -0.873183    -0.042255    -2.202229
H         -1.560372     0.663997    -2.132574
H         -0.159520     0.419195    -2.658009
O          1.774585    -1.111243    -0.868120
H          2.668034    -0.822498    -1.023053
H          1.823483    -1.922315    -0.332354
O          0.464055     2.270172    -0.774407
H          0.794773     2.768432     0.018710
H          0.991671     2.713961    -1.495196
O         -0.152636     0.078280     2.536654
H         -0.531478     0.659236     3.209083
H         -0.606956    -0.844174     2.462228
O         -2.312711     0.767096     0.299708
H         -2.650719     0.461772     1.137174
H         -2.063417     1.711685     0.481131

units ang
no_reorient
no_com
symmetry c1
}

set {
basis        aug-cc-pVTZ
scf_type     df
}

energy("mp2")
--------------------------------------------------------------------------

    Molecular point group: c1

    Geometry (in Angstrom), charge = 1, multiplicity = 1:

       Center              X                  Y                   Z               Mass
    ------------   -----------------  -----------------  -----------------  -----------------
         NA           0.000000000000     0.000000000000     0.000000000000    22.989769282000
         O           -0.873183000000    -0.042255000000    -2.202229000000    15.994914619570
         H           -1.560372000000     0.663997000000    -2.132574000000     1.007825032230
         H           -0.159520000000     0.419195000000    -2.658009000000     1.007825032230
         O            1.774585000000    -1.111243000000    -0.868120000000    15.994914619570
         H            2.668034000000    -0.822498000000    -1.023053000000     1.007825032230
         H            1.823483000000    -1.922315000000    -0.332354000000     1.007825032230
         O            0.464055000000     2.270172000000    -0.774407000000    15.994914619570
         H            0.794773000000     2.768432000000     0.018710000000     1.007825032230
         H            0.991671000000     2.713961000000    -1.495196000000     1.007825032230
         O           -0.152636000000     0.078280000000     2.536654000000    15.994914619570
         H           -0.531478000000     0.659236000000     3.209083000000     1.007825032230
         H           -0.606956000000    -0.844174000000     2.462228000000     1.007825032230
         O           -2.312711000000     0.767096000000     0.299708000000    15.994914619570
         H           -2.650719000000     0.461772000000     1.137174000000     1.007825032230
         H           -2.063417000000     1.711685000000     0.481131000000     1.007825032230

  Charge       = 1
  Multiplicity = 1
  Basis Set: AUG-CC-PVTZ
    Blend: AUG-CC-PVTZ
  Basis Set: (AUG-CC-PVTZ AUX)
    Blend: AUG-CC-PVTZ-JKFIT + DEF2-UNIVERSAL-JKFIT

    Orbital Energies [Eh]
    ---------------------

    Doubly Occupied:

       1A    -40.569766     2A    -20.744252     3A    -20.739702
       4A    -20.730032     5A    -20.726339     6A    -20.698487
       7A     -2.892295     8A     -1.617898     9A     -1.616950
      10A     -1.615883    11A     -1.516328    12A     -1.510923
      13A     -1.506861    14A     -1.500882    15A     -1.477468
      16A     -0.887294    17A     -0.886324    18A     -0.868160
      19A     -0.861398    20A     -0.833510    21A     -0.770570
      22A     -0.757602    23A     -0.746076    24A     -0.736769
      25A     -0.719273    26A     -0.690301    27A     -0.685393
      28A     -0.678839    29A     -0.663724    30A     -0.644395

  @DF-RHF Final Energy:  -542.06509696825356

   => Energetics <=

    Nuclear Repulsion Energy =            304.9101692539547912
    One-Electron Energy =               -1352.1631371118655807
    Two-Electron Energy =                 505.1878708896572334
    Total Energy =                       -542.0650969682535560
 Dipole X            :         19.6805930          -19.0741793            0.6064137
 Dipole Y            :        -39.2386161           40.6398661            1.4012500
 Dipole Z            :         16.9815583          -15.8737221            1.1078362
 Magnitude           :                                                    1.8864094
  Basis Set: (AUG-CC-PVTZ AUX)
    Blend: AUG-CC-PVTZ-RI + DEF2-QZVPP-RI
	 Reference Energy          =    -542.0650969682535560 [Eh]
	 Singles Energy            =      -0.0000000000000000 [Eh]
	 Same-Spin Energy          =      -0.3529897842761364 [Eh]
	 Opposite-Spin Energy      =      -1.1036828634478713 [Eh]
	 Correlation Energy        =      -1.4566726477240077 [Eh]
	 Total Energy              =    -543.5217696159775187 [Eh]

	 ================> DF-SCS-MP2 Energies <==================
	-----------------------------------------------------------
	 SCS Same-Spin Scale       =       0.3333333333333333 [-]
	 SCS Opposite-Spin Scale   =       1.2000000000000000 [-]
	 SCS Same-Spin Energy      =      -0.1176632614253788 [Eh]
	 SCS Opposite-Spin Energy  =      -1.3244194361374455 [Eh]
	 SCS Correlation Energy    =      -1.4420826975628243 [Eh]
	 SCS Total Energy          =    -543.5071796658163521 [Eh]
	-----------------------------------------------------------

*** Psi4 exiting successfully. Buy a developer a beer!
