                               Psi4 1.9 release

  ==> Input File <==

--------------------------------------------------------------------------
MEMORY 60 GB

molecule dimer {
1 1
Na     0.000000     0.000000     0.000000
--
0 1
O      1.123334     2.081258    -0.572008
H      1.216698     2.687495     0.190794
H      1.959598     2.117506    -1.056213
O      2.258056    -1.030970     0.237516
H      2.691734    -0.383332     0.814519
H      2.334528    -0.786860    -0.703473
O     -0.907363    -1.944297     0.044354
H     -1.273537    -2.411135    -0.753502
H     -1.634033    -1.924246     0.641980
O     -2.039574     0.663792    -0.777922
H     -1.939320     1.285531    -1.453140
H     -2.627457    -0.060953    -1.090527

units ang
no_reorient
no_com
symmetry c1
}

set {
basis        aug-cc-pVTZ
scf_type     df
}

energy("mp2", bsse_type="cp")
--------------------------------------------------------------------------

                               Psi4 1.9 release
    Molecular point group: c1
  Charge       = 0
  Multiplicity = 1
  Basis Set: AUG-CC-PVTZ
    Blend: AUG-CC-PVTZ
  Basis Set: (AUG-CC-PVTZ AUX)
    Blend: AUG-CC-PVTZ-JKFIT + DEF2-UNIVERSAL-JKFIT
  @DF-RHF Final Energy:  -304.22027662421004
    Total Energy =                       -304.2202766242101006
 Dipole X            :         -8.0104999            7.9440968           -0.0664031
 Dipole Y            :          3.2009146           -2.4901488            0.7107658
 Dipole Z            :         21.8010727          -22.5898655           -0.7887927
 Magnitude           :                                                    1.0638569
  Basis Set: (AUG-CC-PVTZ AUX)
    Blend: AUG-CC-PVTZ-RI + DEF2-QZVPP-RI
	 Reference Energy          =    -304.2202766242100438 [Eh]
	 Singles Energy            =      -0.0000000000000000 [Eh]
	 Same-Spin Energy          =      -0.2760406212513678 [Eh]
	 Opposite-Spin Energy      =      -0.8671744042854350 [Eh]
	 Correlation Energy        =      -1.1432150255368028 [Eh]
	 Total Energy              =    -305.3634916497468339 [Eh]
	 SCS Total Energy          =    -305.3528994497696658 [Eh]
                               Psi4 1.9 release
    Molecular point group: c1
  Multiplicity = 1
  Basis Set: AUG-CC-PVTZ
    Blend: AUG-CC-PVTZ
  Basis Set: (AUG-CC-PVTZ AUX)
    Blend: AUG-CC-PVTZ-JKFIT + DEF2-UNIVERSAL-JKFIT
  @DF-RHF Final Energy:  -161.67608255729752
    Total Energy =                       -161.6760825572975193
  Basis Set: (AUG-CC-PVTZ AUX)
	 Singles Energy            =      -0.0000000000000000 [Eh]
	 Same-Spin Energy          =      -0.0056819866036737 [Eh]
	 Opposite-Spin Energy      =      -0.0178792427628403 [Eh]
	 Correlation Energy        =      -0.0235612293665140 [Eh]
	 Total Energy              =    -161.6996437866640406 [Eh]
	 SCS Total Energy          =    -161.6994316441474950 [Eh]
                               Psi4 1.9 release
    Molecular point group: c1

    Geometry (in Bohr), charge = 1, multiplicity = 1:

       Center              X                  Y                   Z               Mass
    ------------   -----------------  -----------------  -----------------  -----------------
         NA           0.000000000000     0.000000000000     0.000000000000    22.989769282000
         O            2.122793607415     3.933007616418    -1.080938461571    15.994914619570
         H            2.299225997392     5.078629513537     0.360548406381     1.007825032230
         H            3.703103535995     4.001506409014    -1.995953300148     1.007825032230
         O            4.267107415947    -1.948250943563     0.448840190414    15.994914619570
         H            5.086640062583    -0.724392495124     1.539217833982     1.007825032230
         H            4.411618552213    -1.486949899078    -1.329371306654     1.007825032230
         O           -1.714667566374    -3.674188836549     0.083816912569    15.994914619570
         H           -2.406636140637    -4.556384801506    -1.423912414985     1.007825032230
         H           -3.087874849960    -3.636297938008     1.213166378021     1.007825032230
         O           -3.854236272605     1.254385084270    -1.470059526968    15.994914619570
         H           -3.664783669623     2.429301515786    -2.746036621948     1.007825032230
         H           -4.965174136417    -0.115184476525    -2.060797362417     1.007825032230

  Charge       = 1
  Multiplicity = 1
  Basis Set: AUG-CC-PVTZ
    Blend: AUG-CC-PVTZ
  Basis Set: (AUG-CC-PVTZ AUX)
    Blend: AUG-CC-PVTZ-JKFIT + DEF2-UNIVERSAL-JKFIT

    Orbital Energies [Eh]
    ---------------------

    Doubly Occupied:

       1A    -40.584095     2A    -20.748493     3A    -20.741181
       4A    -20.735957     5A    -20.726848     6A     -2.908607
       7A     -1.634890     8A     -1.633693     9A     -1.632607
      10A     -1.530947    11A     -1.526617    12A     -1.525744
      13A     -1.503786    14A     -0.903915    15A     -0.894239
      16A     -0.888530    17A     -0.883572    18A     -0.777994
      19A     -0.771195    20A     -0.761216    21A     -0.729609
      22A     -0.702744    23A     -0.696106    24A     -0.679910
      25A     -0.671024

  @DF-RHF Final Energy:  -466.00087493044884

   => Energetics <=

    Nuclear Repulsion Energy =            217.8993828232816270
    One-Electron Energy =               -1074.2134727588006626
    Two-Electron Energy =                 390.3132150050702194
    Total Energy =                       -466.0008749304488447
 Dipole X            :         -8.0230156            7.9440968           -0.0789188
 Dipole Y            :          3.1563633           -2.4901488            0.6662145
 Dipole Z            :         21.6330501          -22.5898655           -0.9568154
 Magnitude           :                                                    1.1685742
  Basis Set: (AUG-CC-PVTZ AUX)
    Blend: AUG-CC-PVTZ-RI + DEF2-QZVPP-RI
	 Reference Energy          =    -466.0008749304488447 [Eh]
	 Singles Energy            =      -0.0000000000000000 [Eh]
	 Same-Spin Energy          =      -0.2809082688685828 [Eh]
	 Opposite-Spin Energy      =      -0.8802063167577379 [Eh]
	 Correlation Energy        =      -1.1611145856263207 [Eh]
	 Total Energy              =    -467.1619895160751526 [Eh]

	 ================> DF-SCS-MP2 Energies <==================
	-----------------------------------------------------------
	 SCS Same-Spin Scale       =       0.3333333333333333 [-]
	 SCS Opposite-Spin Scale   =       1.2000000000000000 [-]
	 SCS Same-Spin Energy      =      -0.0936360896228609 [Eh]
	 SCS Opposite-Spin Energy  =      -1.0562475801092854 [Eh]
	 SCS Correlation Energy    =      -1.1498836697321464 [Eh]
	 SCS Total Energy          =    -467.1507586001810068 [Eh]
	-----------------------------------------------------------

*** Psi4 exiting successfully. Buy a developer a beer!
