                               Psi4 1.8.2 release

  ==> Input File <==

--------------------------------------------------------------------------
MEMORY 60 GB

molecule dimer {
0 1
Gh(Na)     0.000000     0.000000     0.000000
Gh(O)      2.200023    -0.188222    -0.286542
Gh(H)      2.895583     0.458553    -0.239530
Gh(H)      2.596252    -0.970724    -0.637590
O         -2.027672     0.184032     1.494454
H         -2.514049    -0.102364     0.712930
H         -2.397718     1.017536     1.839885
Gh(O)     -0.365594    -2.633320     0.181044
Gh(H)     -1.247852    -2.871394     0.397864
Gh(H)     -0.040790    -3.230710    -0.525988
Gh(O)     -0.373167     2.099173    -1.094592
Gh(H)     -0.625127     2.930081    -0.644687
Gh(H)     -0.748604     2.251364    -1.958488
Gh(O)      0.543302     1.414289     1.993847
Gh(H)      1.399965     1.002046     2.227791
Gh(H)     -0.019699     1.251749     2.818915

units ang
no_reorient
no_com
symmetry c1
}

set {
basis        aug-cc-pVTZ
scf_type     df
}

energy("mp2")
--------------------------------------------------------------------------

    Molecular point group: c1

    Geometry (in Angstrom), charge = 0, multiplicity = 1:

       Center              X                  Y                   Z               Mass
    ------------   -----------------  -----------------  -----------------  -----------------
      Gh(NA)          0.000000000000     0.000000000000     0.000000000000    22.989769282000
      Gh(O)           2.200023000000    -0.188222000000    -0.286542000000    15.994914619570
      Gh(H)           2.895583000000     0.458553000000    -0.239530000000     1.007825032230
      Gh(H)           2.596252000000    -0.970724000000    -0.637590000000     1.007825032230
         O           -2.027672000000     0.184032000000     1.494454000000    15.994914619570
         H           -2.514049000000    -0.102364000000     0.712930000000     1.007825032230
         H           -2.397718000000     1.017536000000     1.839885000000     1.007825032230
      Gh(O)          -0.365594000000    -2.633320000000     0.181044000000    15.994914619570
      Gh(H)          -1.247852000000    -2.871394000000     0.397864000000     1.007825032230
      Gh(H)          -0.040790000000    -3.230710000000    -0.525988000000     1.007825032230
      Gh(O)          -0.373167000000     2.099173000000    -1.094592000000    15.994914619570
      Gh(H)          -0.625127000000     2.930081000000    -0.644687000000     1.007825032230
      Gh(H)          -0.748604000000     2.251364000000    -1.958488000000     1.007825032230
      Gh(O)           0.543302000000     1.414289000000     1.993847000000    15.994914619570
      Gh(H)           1.399965000000     1.002046000000     2.227791000000     1.007825032230
      Gh(H)          -0.019699000000     1.251749000000     2.818915000000     1.007825032230

  Charge       = 0
  Multiplicity = 1
  Basis Set: AUG-CC-PVTZ
    Blend: AUG-CC-PVTZ
  Basis Set: (AUG-CC-PVTZ AUX)
    Blend: AUG-CC-PVTZ-JKFIT + DEF2-UNIVERSAL-JKFIT

    Orbital Energies [Eh]
    ---------------------

    Doubly Occupied:

       1A    -20.566363     2A     -1.343126     3A     -0.721804
       4A     -0.570975     5A     -0.507485

  @DF-RHF Final Energy:   -76.05892053161263

   => Energetics <=

    Nuclear Repulsion Energy =              9.0646761326475929
    One-Electron Energy =                -122.8276844310610869
    Two-Electron Energy =                  37.7040877668008676
    Total Energy =                        -76.0589205316126282
 Dipole X            :         39.3600318          -39.9358524           -0.5758207
 Dipole Y            :         -4.1451328            4.5115851            0.3664523
 Dipole Z            :        -27.7110309           27.4169913           -0.2940395
 Magnitude           :                                                    0.7431796
  Basis Set: (AUG-CC-PVTZ AUX)
    Blend: AUG-CC-PVTZ-RI + DEF2-QZVPP-RI
	 Reference Energy          =     -76.0589205316126282 [Eh]
	 Singles Energy            =      -0.0000000000000000 [Eh]
	 Same-Spin Energy          =      -0.0685508364978294 [Eh]
	 Opposite-Spin Energy      =      -0.2161983798895729 [Eh]
	 Correlation Energy        =      -0.2847492163874022 [Eh]
	 Total Energy              =     -76.3436697480000248 [Eh]

	 ================> DF-SCS-MP2 Energies <==================
	-----------------------------------------------------------
	 SCS Same-Spin Scale       =       0.3333333333333333 [-]
	 SCS Opposite-Spin Scale   =       1.2000000000000000 [-]
	 SCS Same-Spin Energy      =      -0.0228502788326098 [Eh]
	 SCS Opposite-Spin Energy  =      -0.2594380558674875 [Eh]
	 SCS Correlation Energy    =      -0.2822883347000973 [Eh]
	 SCS Total Energy          =     -76.3412088663127264 [Eh]
	-----------------------------------------------------------

*** Psi4 exiting successfully. Buy a developer a beer!
