                               Psi4 1.8.2 release

  ==> Input File <==

--------------------------------------------------------------------------
MEMORY 60 GB

molecule dimer {
1 1
Na         0.000000     0.000000     0.000000
O         -1.270703     1.958564     0.911769
H         -2.124725     1.551684     0.575181
H         -1.379974     2.228364     1.821269
O          0.587472    -2.201463     0.748927
H         -0.101641    -2.358357     1.431600
H          1.379076    -2.483852     1.213110
O         -2.211830    -1.319853     0.286643
H         -2.899654    -0.680785     0.484013
H         -1.960837    -1.588265     1.197980
O          1.514145     0.926826     1.650245
H          1.294798     1.672359     2.220085
H          2.399115     1.116522     1.261384
O         -0.863562     0.600979    -1.935483
H         -1.872318     0.424331    -1.975920
H         -0.615829     1.523469    -1.858067

units ang
no_reorient
no_com
symmetry c1
}

set {
basis        aug-cc-pVTZ
scf_type     df
}

energy("mp2")
--------------------------------------------------------------------------

    Molecular point group: c1

    Geometry (in Angstrom), charge = 1, multiplicity = 1:

       Center              X                  Y                   Z               Mass
    ------------   -----------------  -----------------  -----------------  -----------------
         NA           0.000000000000     0.000000000000     0.000000000000    22.989769282000
         O           -1.270703000000     1.958564000000     0.911769000000    15.994914619570
         H           -2.124725000000     1.551684000000     0.575181000000     1.007825032230
         H           -1.379974000000     2.228364000000     1.821269000000     1.007825032230
         O            0.587472000000    -2.201463000000     0.748927000000    15.994914619570
         H           -0.101641000000    -2.358357000000     1.431600000000     1.007825032230
         H            1.379076000000    -2.483852000000     1.213110000000     1.007825032230
         O           -2.211830000000    -1.319853000000     0.286643000000    15.994914619570
         H           -2.899654000000    -0.680785000000     0.484013000000     1.007825032230
         H           -1.960837000000    -1.588265000000     1.197980000000     1.007825032230
         O            1.514145000000     0.926826000000     1.650245000000    15.994914619570
         H            1.294798000000     1.672359000000     2.220085000000     1.007825032230
         H            2.399115000000     1.116522000000     1.261384000000     1.007825032230
         O           -0.863562000000     0.600979000000    -1.935483000000    15.994914619570
         H           -1.872318000000     0.424331000000    -1.975920000000     1.007825032230
         H           -0.615829000000     1.523469000000    -1.858067000000     1.007825032230

  Charge       = 1
  Multiplicity = 1
  Basis Set: AUG-CC-PVTZ
    Blend: AUG-CC-PVTZ
  Basis Set: (AUG-CC-PVTZ AUX)
    Blend: AUG-CC-PVTZ-JKFIT + DEF2-UNIVERSAL-JKFIT

    Orbital Energies [Eh]
    ---------------------

    Doubly Occupied:

       1A    -40.569135     2A    -20.743962     3A    -20.743202
       4A    -20.730172     5A    -20.729730     6A    -20.728093
       7A     -2.892215     8A     -1.618426     9A     -1.617163
      10A     -1.615597    11A     -1.525783    12A     -1.517469
      13A     -1.508638    14A     -1.506934    15A     -1.499099
      16A     -0.895688    17A     -0.887537    18A     -0.882281
      19A     -0.875428    20A     -0.854277    21A     -0.768522
      22A     -0.756809    23A     -0.753912    24A     -0.748324
      25A     -0.732238    26A     -0.697074    27A     -0.684350
      28A     -0.675502    29A     -0.672862    30A     -0.670803

  @DF-RHF Final Energy:  -542.05693046377917

   => Energetics <=

    Nuclear Repulsion Energy =            305.6156734489626388
    One-Electron Energy =               -1353.1427433937114984
    Two-Electron Energy =                 505.4701394809695785
    Total Energy =                       -542.0569304637791674
 Dipole X            :         44.0313073          -45.0469380           -1.0156307
 Dipole Y            :         -1.1279863            2.1276313            0.9996450
 Dipole Z            :        -35.0670766           37.1660809            2.0990042
 Magnitude           :                                                    2.5370484
  Basis Set: (AUG-CC-PVTZ AUX)
    Blend: AUG-CC-PVTZ-RI + DEF2-QZVPP-RI
	 Reference Energy          =    -542.0569304637791674 [Eh]
	 Singles Energy            =      -0.0000000000000000 [Eh]
	 Same-Spin Energy          =      -0.3524806441475899 [Eh]
	 Opposite-Spin Energy      =      -1.1025391278460823 [Eh]
	 Correlation Energy        =      -1.4550197719936722 [Eh]
	 Total Energy              =    -543.5119502357728152 [Eh]

	 ================> DF-SCS-MP2 Energies <==================
	-----------------------------------------------------------
	 SCS Same-Spin Scale       =       0.3333333333333333 [-]
	 SCS Opposite-Spin Scale   =       1.2000000000000000 [-]
	 SCS Same-Spin Energy      =      -0.1174935480491966 [Eh]
	 SCS Opposite-Spin Energy  =      -1.3230469534152987 [Eh]
	 SCS Correlation Energy    =      -1.4405405014644952 [Eh]
	 SCS Total Energy          =    -543.4974709652436786 [Eh]
	-----------------------------------------------------------

*** Psi4 exiting successfully. Buy a developer a beer!
