                               Psi4 1.8.2 release

  ==> Input File <==

--------------------------------------------------------------------------
MEMORY 60 GB

molecule dimer {
0 1
Gh(Na)     0.000000     0.000000     0.000000
Gh(O)     -1.303188     1.664866     1.104595
Gh(H)     -0.470288     2.199361     1.156535
Gh(H)     -1.573108     1.918059     0.254875
O          0.729354    -2.356522     0.687908
H          1.312049    -1.877683     1.251734
H          0.115995    -2.750276     1.273369
Gh(O)      0.100788    -0.239392    -2.295890
Gh(H)     -0.074582     0.302705    -3.084869
Gh(H)     -0.313292    -1.090884    -2.589965
Gh(O)      2.035040     1.209218     0.044939
Gh(H)      2.826981     0.709029     0.335038
Gh(H)      2.348264     1.657480    -0.765905

units ang
no_reorient
no_com
symmetry c1
}

set {
basis        aug-cc-pVTZ
scf_type     df
}

energy("mp2")
--------------------------------------------------------------------------

    Molecular point group: c1

    Geometry (in Angstrom), charge = 0, multiplicity = 1:

       Center              X                  Y                   Z               Mass
    ------------   -----------------  -----------------  -----------------  -----------------
      Gh(NA)          0.000000000000     0.000000000000     0.000000000000    22.989769282000
      Gh(O)          -1.303188000000     1.664866000000     1.104595000000    15.994914619570
      Gh(H)          -0.470288000000     2.199361000000     1.156535000000     1.007825032230
      Gh(H)          -1.573108000000     1.918059000000     0.254875000000     1.007825032230
         O            0.729354000000    -2.356522000000     0.687908000000    15.994914619570
         H            1.312049000000    -1.877683000000     1.251734000000     1.007825032230
         H            0.115995000000    -2.750276000000     1.273369000000     1.007825032230
      Gh(O)           0.100788000000    -0.239392000000    -2.295890000000    15.994914619570
      Gh(H)          -0.074582000000     0.302705000000    -3.084869000000     1.007825032230
      Gh(H)          -0.313292000000    -1.090884000000    -2.589965000000     1.007825032230
      Gh(O)           2.035040000000     1.209218000000     0.044939000000    15.994914619570
      Gh(H)           2.826981000000     0.709029000000     0.335038000000     1.007825032230
      Gh(H)           2.348264000000     1.657480000000    -0.765905000000     1.007825032230

  Charge       = 0
  Multiplicity = 1
  Basis Set: AUG-CC-PVTZ
    Blend: AUG-CC-PVTZ
  Basis Set: (AUG-CC-PVTZ AUX)
    Blend: AUG-CC-PVTZ-JKFIT + DEF2-UNIVERSAL-JKFIT

    Orbital Energies [Eh]
    ---------------------

    Doubly Occupied:

       1A    -20.563710     2A     -1.363807     3A     -0.727652
       4A     -0.589102     5A     -0.512061

  @DF-RHF Final Energy:   -76.06113056122648

   => Energetics <=

    Nuclear Repulsion Energy =              9.3813526858800103
    One-Electron Energy =                -123.3723021976326919
    Two-Electron Energy =                  37.9298189505262187
    Total Energy =                        -76.0611305612264630
 Dipole X            :        -13.7462563           13.7248465           -0.0214097
 Dipole Y            :         44.4274011          -44.3710245            0.0563766
 Dipole Z            :        -14.3986049           15.1714149            0.7728099
 Magnitude           :                                                    0.7751593
  Basis Set: (AUG-CC-PVTZ AUX)
    Blend: AUG-CC-PVTZ-RI + DEF2-QZVPP-RI
	 Reference Energy          =     -76.0611305612264772 [Eh]
	 Singles Energy            =      -0.0000000000000000 [Eh]
	 Same-Spin Energy          =      -0.0680709568395380 [Eh]
	 Opposite-Spin Energy      =      -0.2147109475230385 [Eh]
	 Correlation Energy        =      -0.2827819043625765 [Eh]
	 Total Energy              =     -76.3439124655890566 [Eh]

	 ================> DF-SCS-MP2 Energies <==================
	-----------------------------------------------------------
	 SCS Same-Spin Scale       =       0.3333333333333333 [-]
	 SCS Opposite-Spin Scale   =       1.2000000000000000 [-]
	 SCS Same-Spin Energy      =      -0.0226903189465127 [Eh]
	 SCS Opposite-Spin Energy  =      -0.2576531370276461 [Eh]
	 SCS Correlation Energy    =      -0.2803434559741588 [Eh]
	 SCS Total Energy          =     -76.3414740172006390 [Eh]
	-----------------------------------------------------------

*** Psi4 exiting successfully. Buy a developer a beer!
