                               Psi4 1.8.2 release

  ==> Input File <==

--------------------------------------------------------------------------
MEMORY 60 GB

molecule dimer {
0 1
Gh(Na)     0.000000     0.000000     0.000000
Gh(O)      1.747514    -1.240286    -0.375824
Gh(H)      2.581703    -1.519130     0.078519
Gh(H)      1.479033    -2.093395    -0.704350
Gh(O)     -0.429820    -0.381650    -2.462831
Gh(H)     -1.131957     0.024596    -3.095869
Gh(H)     -0.303470    -1.200046    -3.002034
O         -0.228330     2.599785     0.309304
H         -1.092556     2.758248     0.746061
H         -0.374367     2.681910    -0.695767
Gh(O)      0.084550    -0.396548     2.467479
Gh(H)      0.621263     0.054807     3.131341
Gh(H)      0.404248    -1.312537     2.361715
Gh(O)     -1.925565    -1.536386     0.102860
Gh(H)     -2.658248    -1.897907    -0.433939
Gh(H)     -1.979879    -1.934402     0.955160

units ang
no_reorient
no_com
symmetry c1
}

set {
basis        aug-cc-pVTZ
scf_type     df
}

energy("mp2")
--------------------------------------------------------------------------

    Molecular point group: c1

    Geometry (in Angstrom), charge = 0, multiplicity = 1:

       Center              X                  Y                   Z               Mass
    ------------   -----------------  -----------------  -----------------  -----------------
      Gh(NA)          0.000000000000     0.000000000000     0.000000000000    22.989769282000
      Gh(O)           1.747514000000    -1.240286000000    -0.375824000000    15.994914619570
      Gh(H)           2.581703000000    -1.519130000000     0.078519000000     1.007825032230
      Gh(H)           1.479033000000    -2.093395000000    -0.704350000000     1.007825032230
      Gh(O)          -0.429820000000    -0.381650000000    -2.462831000000    15.994914619570
      Gh(H)          -1.131957000000     0.024596000000    -3.095869000000     1.007825032230
      Gh(H)          -0.303470000000    -1.200046000000    -3.002034000000     1.007825032230
         O           -0.228330000000     2.599785000000     0.309304000000    15.994914619570
         H           -1.092556000000     2.758248000000     0.746061000000     1.007825032230
         H           -0.374367000000     2.681910000000    -0.695767000000     1.007825032230
      Gh(O)           0.084550000000    -0.396548000000     2.467479000000    15.994914619570
      Gh(H)           0.621263000000     0.054807000000     3.131341000000     1.007825032230
      Gh(H)           0.404248000000    -1.312537000000     2.361715000000     1.007825032230
      Gh(O)          -1.925565000000    -1.536386000000     0.102860000000    15.994914619570
      Gh(H)          -2.658248000000    -1.897907000000    -0.433939000000     1.007825032230
      Gh(H)          -1.979879000000    -1.934402000000     0.955160000000     1.007825032230

  Charge       = 0
  Multiplicity = 1
  Basis Set: AUG-CC-PVTZ
    Blend: AUG-CC-PVTZ
  Basis Set: (AUG-CC-PVTZ AUX)
    Blend: AUG-CC-PVTZ-JKFIT + DEF2-UNIVERSAL-JKFIT

    Orbital Energies [Eh]
    ---------------------

    Doubly Occupied:

       1A    -20.572832     2A     -1.330865     3A     -0.700129
       4A     -0.570896     5A     -0.506087

  @DF-RHF Final Energy:   -76.05384009629465

   => Energetics <=

    Nuclear Repulsion Energy =              8.7974074315230055
    One-Electron Energy =                -122.3408744213309944
    Two-Electron Energy =                  37.4896268935133463
    Total Energy =                        -76.0538400962946497
 Dipole X            :          5.5615106           -6.2239320           -0.6624214
 Dipole Y            :        -49.4258063           49.5834618            0.1576555
 Dipole Z            :         -5.1369762            4.7710407           -0.3659356
 Magnitude           :                                                    0.7730241
  Basis Set: (AUG-CC-PVTZ AUX)
    Blend: AUG-CC-PVTZ-RI + DEF2-QZVPP-RI
	 Reference Energy          =     -76.0538400962946497 [Eh]
	 Singles Energy            =      -0.0000000000000000 [Eh]
	 Same-Spin Energy          =      -0.0690903279608573 [Eh]
	 Opposite-Spin Energy      =      -0.2178607627965238 [Eh]
	 Correlation Energy        =      -0.2869510907573811 [Eh]
	 Total Energy              =     -76.3407911870520337 [Eh]

	 ================> DF-SCS-MP2 Energies <==================
	-----------------------------------------------------------
	 SCS Same-Spin Scale       =       0.3333333333333333 [-]
	 SCS Opposite-Spin Scale   =       1.2000000000000000 [-]
	 SCS Same-Spin Energy      =      -0.0230301093202858 [Eh]
	 SCS Opposite-Spin Energy  =      -0.2614329153558286 [Eh]
	 SCS Correlation Energy    =      -0.2844630246761143 [Eh]
	 SCS Total Energy          =     -76.3383031209707639 [Eh]
	-----------------------------------------------------------

*** Psi4 exiting successfully. Buy a developer a beer!
