                               Psi4 1.8.2 release

  ==> Input File <==

--------------------------------------------------------------------------
MEMORY 60 GB

molecule dimer {
0 1
Gh(Na)     0.000000     0.000000     0.000000
O          1.661844     0.842701    -1.497041
H          2.528080     0.377121    -1.307093
H          1.848781     1.779490    -1.584275
Gh(O)     -0.087779     2.077226     1.056665
Gh(H)      0.723586     2.252445     1.568366
Gh(H)     -0.229253     2.684807     0.350873
Gh(O)     -0.986073    -2.138878    -0.877046
Gh(H)     -0.792585    -1.599887    -1.687093
Gh(H)     -0.537496    -2.949143    -1.090109
Gh(O)     -1.993529     0.705204    -1.045757
Gh(H)     -2.712929     0.142744    -1.464515
Gh(H)     -2.466013     1.376847    -0.624703
Gh(O)      2.026165    -1.165386     0.465272
Gh(H)      2.085392    -1.934949     1.021382
Gh(H)      2.008320    -1.517727    -0.446427

units ang
no_reorient
no_com
symmetry c1
}

set {
basis        aug-cc-pVTZ
scf_type     df
}

energy("mp2")
--------------------------------------------------------------------------

    Molecular point group: c1

    Geometry (in Angstrom), charge = 0, multiplicity = 1:

       Center              X                  Y                   Z               Mass
    ------------   -----------------  -----------------  -----------------  -----------------
      Gh(NA)          0.000000000000     0.000000000000     0.000000000000    22.989769282000
         O            1.661844000000     0.842701000000    -1.497041000000    15.994914619570
         H            2.528080000000     0.377121000000    -1.307093000000     1.007825032230
         H            1.848781000000     1.779490000000    -1.584275000000     1.007825032230
      Gh(O)          -0.087779000000     2.077226000000     1.056665000000    15.994914619570
      Gh(H)           0.723586000000     2.252445000000     1.568366000000     1.007825032230
      Gh(H)          -0.229253000000     2.684807000000     0.350873000000     1.007825032230
      Gh(O)          -0.986073000000    -2.138878000000    -0.877046000000    15.994914619570
      Gh(H)          -0.792585000000    -1.599887000000    -1.687093000000     1.007825032230
      Gh(H)          -0.537496000000    -2.949143000000    -1.090109000000     1.007825032230
      Gh(O)          -1.993529000000     0.705204000000    -1.045757000000    15.994914619570
      Gh(H)          -2.712929000000     0.142744000000    -1.464515000000     1.007825032230
      Gh(H)          -2.466013000000     1.376847000000    -0.624703000000     1.007825032230
      Gh(O)           2.026165000000    -1.165386000000     0.465272000000    15.994914619570
      Gh(H)           2.085392000000    -1.934949000000     1.021382000000     1.007825032230
      Gh(H)           2.008320000000    -1.517727000000    -0.446427000000     1.007825032230

  Charge       = 0
  Multiplicity = 1
  Basis Set: AUG-CC-PVTZ
    Blend: AUG-CC-PVTZ
  Basis Set: (AUG-CC-PVTZ AUX)
    Blend: AUG-CC-PVTZ-JKFIT + DEF2-UNIVERSAL-JKFIT

    Orbital Energies [Eh]
    ---------------------

    Doubly Occupied:

       1A    -20.569454     2A     -1.340111     3A     -0.710959
       4A     -0.574258     5A     -0.507518

  @DF-RHF Final Energy:   -76.05727847166862

   => Energetics <=

    Nuclear Repulsion Energy =              8.9743263212998166
    One-Electron Energy =                -122.6586058387973424
    Two-Electron Energy =                  37.6270010458289050
    Total Energy =                        -76.0572784716686243
 Dipole X            :        -32.7006356           33.3945088            0.6938732
 Dipole Y            :        -16.4976627           16.8151969            0.3175342
 Dipole Z            :         28.1623972          -28.0958736            0.0665237
 Magnitude           :                                                    0.7659722
  Basis Set: (AUG-CC-PVTZ AUX)
    Blend: AUG-CC-PVTZ-RI + DEF2-QZVPP-RI
	 Reference Energy          =     -76.0572784716686243 [Eh]
	 Singles Energy            =      -0.0000000000000000 [Eh]
	 Same-Spin Energy          =      -0.0687651797932550 [Eh]
	 Opposite-Spin Energy      =      -0.2170042462296456 [Eh]
	 Correlation Energy        =      -0.2857694260229006 [Eh]
	 Total Energy              =     -76.3430478976915197 [Eh]

	 ================> DF-SCS-MP2 Energies <==================
	-----------------------------------------------------------
	 SCS Same-Spin Scale       =       0.3333333333333333 [-]
	 SCS Opposite-Spin Scale   =       1.2000000000000000 [-]
	 SCS Same-Spin Energy      =      -0.0229217265977517 [Eh]
	 SCS Opposite-Spin Energy  =      -0.2604050954755747 [Eh]
	 SCS Correlation Energy    =      -0.2833268220733263 [Eh]
	 SCS Total Energy          =     -76.3406052937419446 [Eh]
	-----------------------------------------------------------

*** Psi4 exiting successfully. Buy a developer a beer!
