                               Psi4 1.8.2 release

  ==> Input File <==

--------------------------------------------------------------------------
MEMORY 60 GB

molecule dimer {
1 1
Na         0.000000     0.000000     0.000000
Gh(O)      1.253579     0.063260    -2.196883
Gh(H)      0.530569    -0.042832    -2.850777
Gh(H)      1.564699     0.980568    -2.311182
Gh(O)     -1.425901     1.291559    -1.588414
Gh(H)     -2.039556     2.035442    -1.483596
Gh(H)     -1.231776     1.193012    -2.572110
Gh(O)      1.955432     0.647696     0.920318
Gh(H)      2.748734     0.681493     0.364928
Gh(H)      2.082270     1.398481     1.485384
Gh(O)     -1.171308     1.996727     1.191900
Gh(H)     -0.733170     1.943359     2.043845
Gh(H)     -0.778785     2.688259     0.685134
Gh(O)     -1.590268    -1.637366     0.582324
Gh(H)     -1.565435    -2.598292     0.444562
Gh(H)     -2.397617    -1.328886     0.147644
Gh(O)      1.193429    -2.328553     0.401489
Gh(H)      1.334662    -2.417231     1.342880
Gh(H)      0.959023    -3.262843     0.115842

units ang
no_reorient
no_com
symmetry c1
}

set {
basis        aug-cc-pVTZ
scf_type     df
}

energy("mp2")
--------------------------------------------------------------------------

    Molecular point group: c1

    Geometry (in Angstrom), charge = 1, multiplicity = 1:

       Center              X                  Y                   Z               Mass
    ------------   -----------------  -----------------  -----------------  -----------------
         NA           0.000000000000     0.000000000000     0.000000000000    22.989769282000
      Gh(O)           1.253579000000     0.063260000000    -2.196883000000    15.994914619570
      Gh(H)           0.530569000000    -0.042832000000    -2.850777000000     1.007825032230
      Gh(H)           1.564699000000     0.980568000000    -2.311182000000     1.007825032230
      Gh(O)          -1.425901000000     1.291559000000    -1.588414000000    15.994914619570
      Gh(H)          -2.039556000000     2.035442000000    -1.483596000000     1.007825032230
      Gh(H)          -1.231776000000     1.193012000000    -2.572110000000     1.007825032230
      Gh(O)           1.955432000000     0.647696000000     0.920318000000    15.994914619570
      Gh(H)           2.748734000000     0.681493000000     0.364928000000     1.007825032230
      Gh(H)           2.082270000000     1.398481000000     1.485384000000     1.007825032230
      Gh(O)          -1.171308000000     1.996727000000     1.191900000000    15.994914619570
      Gh(H)          -0.733170000000     1.943359000000     2.043845000000     1.007825032230
      Gh(H)          -0.778785000000     2.688259000000     0.685134000000     1.007825032230
      Gh(O)          -1.590268000000    -1.637366000000     0.582324000000    15.994914619570
      Gh(H)          -1.565435000000    -2.598292000000     0.444562000000     1.007825032230
      Gh(H)          -2.397617000000    -1.328886000000     0.147644000000     1.007825032230
      Gh(O)           1.193429000000    -2.328553000000     0.401489000000    15.994914619570
      Gh(H)           1.334662000000    -2.417231000000     1.342880000000     1.007825032230
      Gh(H)           0.959023000000    -3.262843000000     0.115842000000     1.007825032230

  Charge       = 1
  Multiplicity = 1
  Basis Set: AUG-CC-PVTZ
    Blend: AUG-CC-PVTZ
  Basis Set: (AUG-CC-PVTZ AUX)
    Blend: AUG-CC-PVTZ-JKFIT + DEF2-UNIVERSAL-JKFIT

    Orbital Energies [Eh]
    ---------------------

    Doubly Occupied:

       1A    -40.760400     2A     -3.073777     3A     -1.797143
       4A     -1.797120     5A     -1.797100

  @DF-RHF Final Energy:  -161.67609472038825

   => Energetics <=

    Nuclear Repulsion Energy =              0.0000000000000000
    One-Electron Energy =                -224.9011097060110274
    Two-Electron Energy =                  63.2250149856227850
    Total Energy =                       -161.6760947203882495
 Dipole X            :          0.0000192            0.0000000            0.0000192
 Dipole Y            :          0.0000432            0.0000000            0.0000432
 Dipole Z            :          0.0000069            0.0000000            0.0000069
 Magnitude           :                                                    0.0000477
  Basis Set: (AUG-CC-PVTZ AUX)
    Blend: AUG-CC-PVTZ-RI + DEF2-QZVPP-RI
	 Reference Energy          =    -161.6760947203882495 [Eh]
	 Singles Energy            =      -0.0000000000000000 [Eh]
	 Same-Spin Energy          =      -0.0063821524808525 [Eh]
	 Opposite-Spin Energy      =      -0.0195339440508769 [Eh]
	 Correlation Energy        =      -0.0259160965317295 [Eh]
	 Total Energy              =    -161.7020108169199659 [Eh]

	 ================> DF-SCS-MP2 Energies <==================
	-----------------------------------------------------------
	 SCS Same-Spin Scale       =       0.3333333333333333 [-]
	 SCS Opposite-Spin Scale   =       1.2000000000000000 [-]
	 SCS Same-Spin Energy      =      -0.0021273841602842 [Eh]
	 SCS Opposite-Spin Energy  =      -0.0234407328610523 [Eh]
	 SCS Correlation Energy    =      -0.0255681170213365 [Eh]
	 SCS Total Energy          =    -161.7016628374096001 [Eh]
	-----------------------------------------------------------

*** Psi4 exiting successfully. Buy a developer a beer!
