                               Psi4 1.8.2 release

  ==> Input File <==

--------------------------------------------------------------------------
MEMORY 60 GB

molecule dimer {
0 1
Gh(Na)     0.000000     0.000000     0.000000
O          2.097125    -0.497024     0.761194
H          2.050085    -1.449035     0.873033
H          2.546047    -0.299517     1.556234
Gh(O)      0.694124     2.052469     0.671515
Gh(H)      1.544738     2.338465     0.228031
Gh(H)      0.070848     2.347446    -0.028200
Gh(O)     -1.811270     0.275644    -1.321325
Gh(H)     -2.577804     0.825547    -1.027113
Gh(H)     -1.990529     0.001056    -2.250202
Gh(O)     -2.004597     0.304099     1.444740
Gh(H)     -2.367149     1.218233     1.601480
Gh(H)     -2.783477    -0.189314     1.246767

units ang
no_reorient
no_com
symmetry c1
}

set {
basis        aug-cc-pVTZ
scf_type     df
}

energy("mp2")
--------------------------------------------------------------------------

    Molecular point group: c1

    Geometry (in Angstrom), charge = 0, multiplicity = 1:

       Center              X                  Y                   Z               Mass
    ------------   -----------------  -----------------  -----------------  -----------------
      Gh(NA)          0.000000000000     0.000000000000     0.000000000000    22.989769282000
         O            2.097125000000    -0.497024000000     0.761194000000    15.994914619570
         H            2.050085000000    -1.449035000000     0.873033000000     1.007825032230
         H            2.546047000000    -0.299517000000     1.556234000000     1.007825032230
      Gh(O)           0.694124000000     2.052469000000     0.671515000000    15.994914619570
      Gh(H)           1.544738000000     2.338465000000     0.228031000000     1.007825032230
      Gh(H)           0.070848000000     2.347446000000    -0.028200000000     1.007825032230
      Gh(O)          -1.811270000000     0.275644000000    -1.321325000000    15.994914619570
      Gh(H)          -2.577804000000     0.825547000000    -1.027113000000     1.007825032230
      Gh(H)          -1.990529000000     0.001056000000    -2.250202000000     1.007825032230
      Gh(O)          -2.004597000000     0.304099000000     1.444740000000    15.994914619570
      Gh(H)          -2.367149000000     1.218233000000     1.601480000000     1.007825032230
      Gh(H)          -2.783477000000    -0.189314000000     1.246767000000     1.007825032230

  Charge       = 0
  Multiplicity = 1
  Basis Set: AUG-CC-PVTZ
    Blend: AUG-CC-PVTZ
  Basis Set: (AUG-CC-PVTZ AUX)
    Blend: AUG-CC-PVTZ-JKFIT + DEF2-UNIVERSAL-JKFIT

    Orbital Energies [Eh]
    ---------------------

    Doubly Occupied:

       1A    -20.567852     2A     -1.364289     3A     -0.709347
       4A     -0.600299     5A     -0.513105

  @DF-RHF Final Energy:   -76.05896891966221

   => Energetics <=

    Nuclear Repulsion Energy =              9.3140280951140220
    One-Electron Energy =                -123.2362081375004266
    Two-Electron Energy =                  37.8632111227241879
    Total Energy =                        -76.0589689196622203
 Dipole X            :        -40.1233539           40.3893659            0.2660120
 Dipole Y            :         10.3269425          -10.8181983           -0.4912558
 Dipole Z            :        -15.5002763           16.0982348            0.5979585
 Magnitude           :                                                    0.8183209
  Basis Set: (AUG-CC-PVTZ AUX)
    Blend: AUG-CC-PVTZ-RI + DEF2-QZVPP-RI
	 Reference Energy          =     -76.0589689196622061 [Eh]
	 Singles Energy            =      -0.0000000000000000 [Eh]
	 Same-Spin Energy          =      -0.0684070118290945 [Eh]
	 Opposite-Spin Energy      =      -0.2157187976958913 [Eh]
	 Correlation Energy        =      -0.2841258095249858 [Eh]
	 Total Energy              =     -76.3430947291871860 [Eh]

	 ================> DF-SCS-MP2 Energies <==================
	-----------------------------------------------------------
	 SCS Same-Spin Scale       =       0.3333333333333333 [-]
	 SCS Opposite-Spin Scale   =       1.2000000000000000 [-]
	 SCS Same-Spin Energy      =      -0.0228023372763648 [Eh]
	 SCS Opposite-Spin Energy  =      -0.2588625572350695 [Eh]
	 SCS Correlation Energy    =      -0.2816648945114343 [Eh]
	 SCS Total Energy          =     -76.3406338141736427 [Eh]
	-----------------------------------------------------------

*** Psi4 exiting successfully. Buy a developer a beer!
