                               Psi4 1.8.2 release

  ==> Input File <==

--------------------------------------------------------------------------
MEMORY 60 GB

molecule dimer {
1 1
Na         0.000000     0.000000     0.000000
O          0.056153    -1.593017    -1.588907
H         -0.422819    -1.289136    -2.393865
H         -0.138369    -2.503753    -1.378373
O          1.408983    -1.281787     1.277252
H          0.964298    -1.922010     1.792464
H          1.991702    -0.868205     1.920136
O         -1.809137     1.083746    -1.258510
H         -1.679558     1.887221    -1.716686
H         -2.630287     1.152332    -0.772428
O          1.718985     1.693094    -0.096897
H          2.245607     1.434703     0.635177
H          1.263609     2.472586     0.090106
O         -1.030025     1.048290     2.059206
H         -0.379602     1.376428     2.604273
H         -1.526575     0.492561     2.662498

units ang
no_reorient
no_com
symmetry c1
}

set {
basis        aug-cc-pVTZ
scf_type     df
}

energy("mp2")
--------------------------------------------------------------------------

    Molecular point group: c1

    Geometry (in Angstrom), charge = 1, multiplicity = 1:

       Center              X                  Y                   Z               Mass
    ------------   -----------------  -----------------  -----------------  -----------------
         NA           0.000000000000     0.000000000000     0.000000000000    22.989769282000
         O            0.056153000000    -1.593017000000    -1.588907000000    15.994914619570
         H           -0.422819000000    -1.289136000000    -2.393865000000     1.007825032230
         H           -0.138369000000    -2.503753000000    -1.378373000000     1.007825032230
         O            1.408983000000    -1.281787000000     1.277252000000    15.994914619570
         H            0.964298000000    -1.922010000000     1.792464000000     1.007825032230
         H            1.991702000000    -0.868205000000     1.920136000000     1.007825032230
         O           -1.809137000000     1.083746000000    -1.258510000000    15.994914619570
         H           -1.679558000000     1.887221000000    -1.716686000000     1.007825032230
         H           -2.630287000000     1.152332000000    -0.772428000000     1.007825032230
         O            1.718985000000     1.693094000000    -0.096897000000    15.994914619570
         H            2.245607000000     1.434703000000     0.635177000000     1.007825032230
         H            1.263609000000     2.472586000000     0.090106000000     1.007825032230
         O           -1.030025000000     1.048290000000     2.059206000000    15.994914619570
         H           -0.379602000000     1.376428000000     2.604273000000     1.007825032230
         H           -1.526575000000     0.492561000000     2.662498000000     1.007825032230

  Charge       = 1
  Multiplicity = 1
  Basis Set: AUG-CC-PVTZ
    Blend: AUG-CC-PVTZ
  Basis Set: (AUG-CC-PVTZ AUX)
    Blend: AUG-CC-PVTZ-JKFIT + DEF2-UNIVERSAL-JKFIT

    Orbital Energies [Eh]
    ---------------------

    Doubly Occupied:

       1A    -40.550501     2A    -20.733694     3A    -20.730181
       4A    -20.716517     5A    -20.715796     6A    -20.710843
       7A     -2.874191     8A     -1.599886     9A     -1.599714
      10A     -1.598531    11A     -1.536651    12A     -1.531077
      13A     -1.522676    14A     -1.511927    15A     -1.491481
      16A     -0.904211    17A     -0.892624    18A     -0.888368
      19A     -0.884347    20A     -0.872676    21A     -0.773680
      22A     -0.769408    23A     -0.746008    24A     -0.739610
      25A     -0.726565    26A     -0.695705    27A     -0.677653
      28A     -0.674169    29A     -0.667725    30A     -0.659541

  @DF-RHF Final Energy:  -542.09142261028728

   => Energetics <=

    Nuclear Repulsion Energy =            304.2315686358722928
    One-Electron Energy =               -1350.6540584844599380
    Two-Electron Energy =                 504.3310672383004203
    Total Energy =                       -542.0914226102872817
 Dipole X            :         -5.2930074            4.6254411           -0.6675663
 Dipole Y            :        -18.3068080           18.5860895            0.2792815
 Dipole Z            :        -10.6402046           12.4352558            1.7950513
 Magnitude           :                                                    1.9354204
  Basis Set: (AUG-CC-PVTZ AUX)
    Blend: AUG-CC-PVTZ-RI + DEF2-QZVPP-RI
	 Reference Energy          =    -542.0914226102872817 [Eh]
	 Singles Energy            =      -0.0000000000000000 [Eh]
	 Same-Spin Energy          =      -0.3487207901479931 [Eh]
	 Opposite-Spin Energy      =      -1.0926807281697033 [Eh]
	 Correlation Energy        =      -1.4414015183176963 [Eh]
	 Total Energy              =    -543.5328241286049433 [Eh]

	 ================> DF-SCS-MP2 Energies <==================
	-----------------------------------------------------------
	 SCS Same-Spin Scale       =       0.3333333333333333 [-]
	 SCS Opposite-Spin Scale   =       1.2000000000000000 [-]
	 SCS Same-Spin Energy      =      -0.1162402633826644 [Eh]
	 SCS Opposite-Spin Energy  =      -1.3112168738036438 [Eh]
	 SCS Correlation Energy    =      -1.4274571371863081 [Eh]
	 SCS Total Energy          =    -543.5188797474735338 [Eh]
	-----------------------------------------------------------

*** Psi4 exiting successfully. Buy a developer a beer!
