                               Psi4 1.9 release

  ==> Input File <==

--------------------------------------------------------------------------
MEMORY 60 GB

molecule dimer {
1 1
Na     0.000000     0.000000     0.000000
--
0 1
O     -1.270703     1.958564     0.911769
H     -2.124725     1.551684     0.575181
H     -1.379974     2.228364     1.821269
O      0.587472    -2.201463     0.748927
H     -0.101641    -2.358357     1.431600
H      1.379076    -2.483852     1.213110
O     -2.211830    -1.319853     0.286643
H     -2.899654    -0.680785     0.484013
H     -1.960837    -1.588265     1.197980
O      1.514145     0.926826     1.650245
H      1.294798     1.672359     2.220085
H      2.399115     1.116522     1.261384
O     -0.863562     0.600979    -1.935483
H     -1.872318     0.424331    -1.975920
H     -0.615829     1.523469    -1.858067

units ang
no_reorient
no_com
symmetry c1
}

set {
basis        aug-cc-pVTZ
scf_type     df
}

energy("mp2", bsse_type="cp")
--------------------------------------------------------------------------

                               Psi4 1.9 release
    Molecular point group: c1
  Charge       = 0
  Multiplicity = 1
  Basis Set: AUG-CC-PVTZ
    Blend: AUG-CC-PVTZ
  Basis Set: (AUG-CC-PVTZ AUX)
    Blend: AUG-CC-PVTZ-JKFIT + DEF2-UNIVERSAL-JKFIT
  @DF-RHF Final Energy:  -380.25951680958718
    Total Energy =                       -380.2595168095871827
 Dipole X            :         44.2907947          -45.0469380           -0.7561433
 Dipole Y            :         -1.1808661            2.1276313            0.9467652
 Dipole Z            :        -35.2908900           37.1660809            1.8751909
 Magnitude           :                                                    2.2325900
  Basis Set: (AUG-CC-PVTZ AUX)
    Blend: AUG-CC-PVTZ-RI + DEF2-QZVPP-RI
	 Reference Energy          =    -380.2595168095871827 [Eh]
	 Singles Energy            =      -0.0000000000000000 [Eh]
	 Same-Spin Energy          =      -0.3473753569885162 [Eh]
	 Opposite-Spin Energy      =      -1.0894417703910111 [Eh]
	 Correlation Energy        =      -1.4368171273795274 [Eh]
	 Total Energy              =    -381.6963339369667096 [Eh]
	 SCS Total Energy          =    -381.6826387197192503 [Eh]
                               Psi4 1.9 release
    Molecular point group: c1
  Multiplicity = 1
  Basis Set: AUG-CC-PVTZ
    Blend: AUG-CC-PVTZ
  Basis Set: (AUG-CC-PVTZ AUX)
    Blend: AUG-CC-PVTZ-JKFIT + DEF2-UNIVERSAL-JKFIT
  @DF-RHF Final Energy:  -161.67609039232414
    Total Energy =                       -161.6760903923241699
  Basis Set: (AUG-CC-PVTZ AUX)
	 Singles Energy            =      -0.0000000000000000 [Eh]
	 Same-Spin Energy          =      -0.0058622238097748 [Eh]
	 Opposite-Spin Energy      =      -0.0182265974320902 [Eh]
	 Correlation Energy        =      -0.0240888212418650 [Eh]
	 Total Energy              =    -161.7001792135660025 [Eh]
	 SCS Total Energy          =    -161.6999163838459026 [Eh]
                               Psi4 1.9 release
    Molecular point group: c1

    Geometry (in Bohr), charge = 1, multiplicity = 1:

       Center              X                  Y                   Z               Mass
    ------------   -----------------  -----------------  -----------------  -----------------
         NA           0.000000000000     0.000000000000     0.000000000000    22.989769282000
         O           -2.401280656798     3.701149559181     1.722993699683    15.994914619570
         H           -4.015148341913     2.932257793255     1.086934562567     1.007825032230
         H           -2.607772920253     4.210997667830     3.441699610786     1.007825032230
         O            1.110161186375    -4.160162145329     1.415266917961    15.994914619570
         H           -0.192073653118    -4.456648836056     2.705331921205     1.007825032230
         H            2.606075946192    -4.693800016171     2.292445660054     1.007825032230
         O           -4.179752936071    -2.494160695864     0.541676765780    15.994914619570
         H           -5.479551918588    -1.286497200320     0.914652011161     1.007825032230
         H           -3.705444906664    -3.001385864650     2.263854103776     1.007825032230
         O            2.861319364231     1.751447305954     3.118511089906    15.994914619570
         H            2.446813607791     3.160300493445     4.195352625237     1.007825032230
         H            4.533670293478     2.109920793048     2.383670299034     1.007825032230
         O           -1.631895672353     1.135685717152    -3.657532790479    15.994914619570
         H           -3.538168239765     0.801869376542    -3.733947645815     1.007825032230
         H           -1.163748150115     2.878939170625    -3.511237752751     1.007825032230

  Charge       = 1
  Multiplicity = 1
  Basis Set: AUG-CC-PVTZ
    Blend: AUG-CC-PVTZ
  Basis Set: (AUG-CC-PVTZ AUX)
    Blend: AUG-CC-PVTZ-JKFIT + DEF2-UNIVERSAL-JKFIT

    Orbital Energies [Eh]
    ---------------------

    Doubly Occupied:

       1A    -40.569135     2A    -20.743962     3A    -20.743202
       4A    -20.730172     5A    -20.729730     6A    -20.728093
       7A     -2.892215     8A     -1.618426     9A     -1.617163
      10A     -1.615597    11A     -1.525783    12A     -1.517469
      13A     -1.508638    14A     -1.506934    15A     -1.499099
      16A     -0.895688    17A     -0.887537    18A     -0.882281
      19A     -0.875428    20A     -0.854277    21A     -0.768522
      22A     -0.756809    23A     -0.753912    24A     -0.748324
      25A     -0.732238    26A     -0.697074    27A     -0.684350
      28A     -0.675502    29A     -0.672862    30A     -0.670803

  @DF-RHF Final Energy:  -542.05693046423551

   => Energetics <=

    Nuclear Repulsion Energy =            305.6156734489626388
    One-Electron Energy =               -1353.1427433938358718
    Two-Electron Energy =                 505.4701394806378971
    Total Energy =                       -542.0569304642353927
 Dipole X            :         44.0313073          -45.0469380           -1.0156307
 Dipole Y            :         -1.1279863            2.1276313            0.9996450
 Dipole Z            :        -35.0670766           37.1660809            2.0990042
 Magnitude           :                                                    2.5370484
  Basis Set: (AUG-CC-PVTZ AUX)
    Blend: AUG-CC-PVTZ-RI + DEF2-QZVPP-RI
	 Reference Energy          =    -542.0569304642355064 [Eh]
	 Singles Energy            =      -0.0000000000000000 [Eh]
	 Same-Spin Energy          =      -0.3524806441464320 [Eh]
	 Opposite-Spin Energy      =      -1.1025391278420484 [Eh]
	 Correlation Energy        =      -1.4550197719884803 [Eh]
	 Total Energy              =    -543.5119502362240382 [Eh]

	 ================> DF-SCS-MP2 Energies <==================
	-----------------------------------------------------------
	 SCS Same-Spin Scale       =       0.3333333333333333 [-]
	 SCS Opposite-Spin Scale   =       1.2000000000000000 [-]
	 SCS Same-Spin Energy      =      -0.1174935480488107 [Eh]
	 SCS Opposite-Spin Energy  =      -1.3230469534104581 [Eh]
	 SCS Correlation Energy    =      -1.4405405014592687 [Eh]
	 SCS Total Energy          =    -543.4974709656947880 [Eh]
	-----------------------------------------------------------

*** Psi4 exiting successfully. Buy a developer a beer!
