                               Psi4 1.8.2 release

  ==> Input File <==

--------------------------------------------------------------------------
MEMORY 60 GB

molecule dimer {
1 1
Na         0.000000     0.000000     0.000000
O         -2.215330    -1.211537    -0.435171
H         -2.946479    -1.040175     0.184638
H         -2.480537    -0.897294    -1.285925
O         -1.377703     1.646645     0.851564
H         -0.838544     2.401427     0.750035
H         -2.139544     1.659704     0.318542
O          2.135687     1.382859    -0.640918
H          2.124534     2.024732    -1.423235
H          3.036809     1.045545    -0.627099
O          0.991615    -1.503469    -1.538780
H          0.523070    -2.328162    -1.765905
H          1.872728    -1.692798    -1.836695
O          0.609934    -0.580290     2.198415
H          1.329489    -1.199807     2.453223
H          0.835592     0.356422     2.441611

units ang
no_reorient
no_com
symmetry c1
}

set {
basis        aug-cc-pVTZ
scf_type     df
}

energy("mp2")
--------------------------------------------------------------------------

    Molecular point group: c1

    Geometry (in Angstrom), charge = 1, multiplicity = 1:

       Center              X                  Y                   Z               Mass
    ------------   -----------------  -----------------  -----------------  -----------------
         NA           0.000000000000     0.000000000000     0.000000000000    22.989769282000
         O           -2.215330000000    -1.211537000000    -0.435171000000    15.994914619570
         H           -2.946479000000    -1.040175000000     0.184638000000     1.007825032230
         H           -2.480537000000    -0.897294000000    -1.285925000000     1.007825032230
         O           -1.377703000000     1.646645000000     0.851564000000    15.994914619570
         H           -0.838544000000     2.401427000000     0.750035000000     1.007825032230
         H           -2.139544000000     1.659704000000     0.318542000000     1.007825032230
         O            2.135687000000     1.382859000000    -0.640918000000    15.994914619570
         H            2.124534000000     2.024732000000    -1.423235000000     1.007825032230
         H            3.036809000000     1.045545000000    -0.627099000000     1.007825032230
         O            0.991615000000    -1.503469000000    -1.538780000000    15.994914619570
         H            0.523070000000    -2.328162000000    -1.765905000000     1.007825032230
         H            1.872728000000    -1.692798000000    -1.836695000000     1.007825032230
         O            0.609934000000    -0.580290000000     2.198415000000    15.994914619570
         H            1.329489000000    -1.199807000000     2.453223000000     1.007825032230
         H            0.835592000000     0.356422000000     2.441611000000     1.007825032230

  Charge       = 1
  Multiplicity = 1
  Basis Set: AUG-CC-PVTZ
    Blend: AUG-CC-PVTZ
  Basis Set: (AUG-CC-PVTZ AUX)
    Blend: AUG-CC-PVTZ-JKFIT + DEF2-UNIVERSAL-JKFIT

    Orbital Energies [Eh]
    ---------------------

    Doubly Occupied:

       1A    -40.560162     2A    -20.726633     3A    -20.723292
       4A    -20.721397     5A    -20.717165     6A    -20.714032
       7A     -2.882025     8A     -1.607588     9A     -1.607070
      10A     -1.605347    11A     -1.528763    12A     -1.508103
      13A     -1.503474    14A     -1.495897    15A     -1.481743
      16A     -0.916772    17A     -0.874411    18A     -0.864022
      19A     -0.860178    20A     -0.856920    21A     -0.760572
      22A     -0.746244    23A     -0.744356    24A     -0.735626
      25A     -0.719094    26A     -0.686021    27A     -0.669061
      28A     -0.665857    29A     -0.663429    30A     -0.657117

  @DF-RHF Final Energy:  -542.08630727369268

   => Energetics <=

    Nuclear Repulsion Energy =            297.3081730446069741
    One-Electron Energy =               -1337.1842156465356766
    Two-Electron Energy =                 497.7897353282360200
    Total Energy =                       -542.0863072736926824
 Dipole X            :         -3.9795139            4.6690257            0.6895118
 Dipole Y            :          3.9318973           -3.3953503            0.5365470
 Dipole Z            :         -6.1483903            5.0834956           -1.0648948
 Magnitude           :                                                    1.3774288
  Basis Set: (AUG-CC-PVTZ AUX)
    Blend: AUG-CC-PVTZ-RI + DEF2-QZVPP-RI
	 Reference Energy          =    -542.0863072736926824 [Eh]
	 Singles Energy            =      -0.0000000000000000 [Eh]
	 Same-Spin Energy          =      -0.3498964019138890 [Eh]
	 Opposite-Spin Energy      =      -1.0964695484781728 [Eh]
	 Correlation Energy        =      -1.4463659503920618 [Eh]
	 Total Energy              =    -543.5326732240847605 [Eh]

	 ================> DF-SCS-MP2 Energies <==================
	-----------------------------------------------------------
	 SCS Same-Spin Scale       =       0.3333333333333333 [-]
	 SCS Opposite-Spin Scale   =       1.2000000000000000 [-]
	 SCS Same-Spin Energy      =      -0.1166321339712963 [Eh]
	 SCS Opposite-Spin Energy  =      -1.3157634581738074 [Eh]
	 SCS Correlation Energy    =      -1.4323955921451037 [Eh]
	 SCS Total Energy          =    -543.5187028658377812 [Eh]
	-----------------------------------------------------------

*** Psi4 exiting successfully. Buy a developer a beer!
