                               Psi4 1.8.2 release

  ==> Input File <==

--------------------------------------------------------------------------
MEMORY 60 GB

molecule dimer {
1 1
Na         0.000000     0.000000     0.000000
O          1.626028     1.034922     1.580623
H          1.378579     0.724001     2.502033
H          2.064630     1.955065     1.635979
O         -1.372352    -2.180406    -0.667887
H         -1.156517    -2.493550     0.245784
H         -1.510414    -2.963832    -1.183852
O         -1.339998     1.807402     0.199177
H         -1.582903     2.201952    -0.688290
H         -1.288117     2.504336     0.887083
O         -1.123329    -0.697031     2.020695
H         -0.556554    -0.315841     2.727097
H         -1.512463    -1.540032     2.286606
O         -0.325095     0.344770    -2.289885
H         -0.904628    -0.206831    -2.834921
H          0.583007     0.391315    -2.704986

units ang
no_reorient
no_com
symmetry c1
}

set {
basis        aug-cc-pVTZ
scf_type     df
}

energy("mp2")
--------------------------------------------------------------------------

    Molecular point group: c1

    Geometry (in Angstrom), charge = 1, multiplicity = 1:

       Center              X                  Y                   Z               Mass
    ------------   -----------------  -----------------  -----------------  -----------------
         NA           0.000000000000     0.000000000000     0.000000000000    22.989769282000
         O            1.626028000000     1.034922000000     1.580623000000    15.994914619570
         H            1.378579000000     0.724001000000     2.502033000000     1.007825032230
         H            2.064630000000     1.955065000000     1.635979000000     1.007825032230
         O           -1.372352000000    -2.180406000000    -0.667887000000    15.994914619570
         H           -1.156517000000    -2.493550000000     0.245784000000     1.007825032230
         H           -1.510414000000    -2.963832000000    -1.183852000000     1.007825032230
         O           -1.339998000000     1.807402000000     0.199177000000    15.994914619570
         H           -1.582903000000     2.201952000000    -0.688290000000     1.007825032230
         H           -1.288117000000     2.504336000000     0.887083000000     1.007825032230
         O           -1.123329000000    -0.697031000000     2.020695000000    15.994914619570
         H           -0.556554000000    -0.315841000000     2.727097000000     1.007825032230
         H           -1.512463000000    -1.540032000000     2.286606000000     1.007825032230
         O           -0.325095000000     0.344770000000    -2.289885000000    15.994914619570
         H           -0.904628000000    -0.206831000000    -2.834921000000     1.007825032230
         H            0.583007000000     0.391315000000    -2.704986000000     1.007825032230

  Charge       = 1
  Multiplicity = 1
  Basis Set: AUG-CC-PVTZ
    Blend: AUG-CC-PVTZ
  Basis Set: (AUG-CC-PVTZ AUX)
    Blend: AUG-CC-PVTZ-JKFIT + DEF2-UNIVERSAL-JKFIT

    Orbital Energies [Eh]
    ---------------------

    Doubly Occupied:

       1A    -40.558626     2A    -20.736325     3A    -20.730839
       4A    -20.719373     5A    -20.710832     6A    -20.706208
       7A     -2.880592     8A     -1.605770     9A     -1.605405
      10A     -1.604102    11A     -1.508001    12A     -1.492297
      13A     -1.490389    14A     -1.489355    15A     -1.474075
      16A     -0.893579    17A     -0.865891    18A     -0.861814
      19A     -0.856779    20A     -0.851274    21A     -0.748291
      22A     -0.738165    23A     -0.735002    24A     -0.728135
      25A     -0.715129    26A     -0.676729    27A     -0.671852
      28A     -0.666039    29A     -0.652301    30A     -0.647548

  @DF-RHF Final Energy:  -542.06754959972022

   => Energetics <=

    Nuclear Repulsion Energy =            302.2323784985165958
    One-Electron Energy =               -1347.3584123700215969
    Two-Electron Energy =                 503.0584842717849483
    Total Energy =                       -542.0675495997202233
 Dipole X            :         46.9472656          -46.7959457            0.1513199
 Dipole Y            :         -5.3154319            5.1662070           -0.1492249
 Dipole Z            :        -17.3779364           18.1684260            0.7904896
 Magnitude           :                                                    0.8185595
  Basis Set: (AUG-CC-PVTZ AUX)
    Blend: AUG-CC-PVTZ-RI + DEF2-QZVPP-RI
	 Reference Energy          =    -542.0675495997202233 [Eh]
	 Singles Energy            =      -0.0000000000000000 [Eh]
	 Same-Spin Energy          =      -0.3527326679953516 [Eh]
	 Opposite-Spin Energy      =      -1.1030987709901869 [Eh]
	 Correlation Energy        =      -1.4558314389855385 [Eh]
	 Total Energy              =    -543.5233810387057929 [Eh]

	 ================> DF-SCS-MP2 Energies <==================
	-----------------------------------------------------------
	 SCS Same-Spin Scale       =       0.3333333333333333 [-]
	 SCS Opposite-Spin Scale   =       1.2000000000000000 [-]
	 SCS Same-Spin Energy      =      -0.1175775559984505 [Eh]
	 SCS Opposite-Spin Energy  =      -1.3237185251882242 [Eh]
	 SCS Correlation Energy    =      -1.4412960811866746 [Eh]
	 SCS Total Energy          =    -543.5088456809069157 [Eh]
	-----------------------------------------------------------

*** Psi4 exiting successfully. Buy a developer a beer!
