                               Psi4 1.8.2 release

  ==> Input File <==

--------------------------------------------------------------------------
MEMORY 60 GB

molecule dimer {
0 1
Gh(Na)     0.000000     0.000000     0.000000
Gh(O)      1.295992    -1.038055    -1.666929
Gh(H)      1.199472    -0.914486    -2.588127
Gh(H)      2.215709    -0.827473    -1.487559
Gh(O)      0.945093    -1.880558     0.968601
Gh(H)      1.449261    -2.195584     0.246835
Gh(H)      0.398653    -2.523314     1.421842
Gh(O)     -1.899954     0.291284     1.327143
Gh(H)     -1.989905     1.254936     1.673416
Gh(H)     -1.881234    -0.239655     2.109490
O          2.210054     0.959882     0.855124
H          2.866527     0.324916     0.526095
H          2.208158     0.741535     1.764241
Gh(O)     -1.049559     1.773634    -1.401658
Gh(H)     -0.352216     2.144695    -1.977073
Gh(H)     -1.638655     1.166318    -1.764810

units ang
no_reorient
no_com
symmetry c1
}

set {
basis        aug-cc-pVTZ
scf_type     df
}

energy("mp2")
--------------------------------------------------------------------------

    Molecular point group: c1

    Geometry (in Angstrom), charge = 0, multiplicity = 1:

       Center              X                  Y                   Z               Mass
    ------------   -----------------  -----------------  -----------------  -----------------
      Gh(NA)          0.000000000000     0.000000000000     0.000000000000    22.989769282000
      Gh(O)           1.295992000000    -1.038055000000    -1.666929000000    15.994914619570
      Gh(H)           1.199472000000    -0.914486000000    -2.588127000000     1.007825032230
      Gh(H)           2.215709000000    -0.827473000000    -1.487559000000     1.007825032230
      Gh(O)           0.945093000000    -1.880558000000     0.968601000000    15.994914619570
      Gh(H)           1.449261000000    -2.195584000000     0.246835000000     1.007825032230
      Gh(H)           0.398653000000    -2.523314000000     1.421842000000     1.007825032230
      Gh(O)          -1.899954000000     0.291284000000     1.327143000000    15.994914619570
      Gh(H)          -1.989905000000     1.254936000000     1.673416000000     1.007825032230
      Gh(H)          -1.881234000000    -0.239655000000     2.109490000000     1.007825032230
         O            2.210054000000     0.959882000000     0.855124000000    15.994914619570
         H            2.866527000000     0.324916000000     0.526095000000     1.007825032230
         H            2.208158000000     0.741535000000     1.764241000000     1.007825032230
      Gh(O)          -1.049559000000     1.773634000000    -1.401658000000    15.994914619570
      Gh(H)          -0.352216000000     2.144695000000    -1.977073000000     1.007825032230
      Gh(H)          -1.638655000000     1.166318000000    -1.764810000000     1.007825032230

  Charge       = 0
  Multiplicity = 1
  Basis Set: AUG-CC-PVTZ
    Blend: AUG-CC-PVTZ
  Basis Set: (AUG-CC-PVTZ AUX)
    Blend: AUG-CC-PVTZ-JKFIT + DEF2-UNIVERSAL-JKFIT

    Orbital Energies [Eh]
    ---------------------

    Doubly Occupied:

       1A    -20.567911     2A     -1.359238     3A     -0.711667
       4A     -0.593939     5A     -0.511943

  @DF-RHF Final Energy:   -76.05951574717108

   => Energetics <=

    Nuclear Repulsion Energy =              9.2504670825217783
    One-Electron Energy =                -123.1305672143496963
    Two-Electron Energy =                  37.8205843846568541
    Total Energy =                        -76.0595157471710621
 Dipole X            :        -42.5725739           43.0009391            0.4283652
 Dipole Y            :        -17.0866625           16.5266131           -0.5600494
 Dipole Z            :        -16.8675931           17.2557091            0.3881160
 Magnitude           :                                                    0.8048516
  Basis Set: (AUG-CC-PVTZ AUX)
    Blend: AUG-CC-PVTZ-RI + DEF2-QZVPP-RI
	 Reference Energy          =     -76.0595157471710763 [Eh]
	 Singles Energy            =      -0.0000000000000000 [Eh]
	 Same-Spin Energy          =      -0.0684319032732811 [Eh]
	 Opposite-Spin Energy      =      -0.2159052794728734 [Eh]
	 Correlation Energy        =      -0.2843371827461545 [Eh]
	 Total Energy              =     -76.3438529299172330 [Eh]

	 ================> DF-SCS-MP2 Energies <==================
	-----------------------------------------------------------
	 SCS Same-Spin Scale       =       0.3333333333333333 [-]
	 SCS Opposite-Spin Scale   =       1.2000000000000000 [-]
	 SCS Same-Spin Energy      =      -0.0228106344244270 [Eh]
	 SCS Opposite-Spin Energy  =      -0.2590863353674481 [Eh]
	 SCS Correlation Energy    =      -0.2818969697918751 [Eh]
	 SCS Total Energy          =     -76.3414127169629495 [Eh]
	-----------------------------------------------------------

*** Psi4 exiting successfully. Buy a developer a beer!
