                               Psi4 1.8.2 release

  ==> Input File <==

--------------------------------------------------------------------------
MEMORY 60 GB

molecule dimer {
1 1
Na         0.000000     0.000000     0.000000
O         -2.517737    -0.044737    -0.085663
H         -3.125824    -0.331550     0.584585
H         -3.129699     0.377416    -0.724333
O          2.465683     0.516957    -0.150294
H          2.739106     0.958987    -0.927177
H          2.451782     1.135025     0.576683
O         -0.121149    -0.310658    -2.292460
H         -0.296325    -1.265691    -2.370924
H          0.649829    -0.216062    -2.847853
O          0.358147     0.856708     2.301374
H          0.939411     1.103103     2.980068
H         -0.519149     1.038533     2.680292
O          0.057029    -2.251503     0.686124
H          0.872420    -2.539387     0.293641
H         -0.333279    -3.125313     0.756646

units ang
no_reorient
no_com
symmetry c1
}

set {
basis        aug-cc-pVTZ
scf_type     df
}

energy("mp2")
--------------------------------------------------------------------------

    Molecular point group: c1

    Geometry (in Angstrom), charge = 1, multiplicity = 1:

       Center              X                  Y                   Z               Mass
    ------------   -----------------  -----------------  -----------------  -----------------
         NA           0.000000000000     0.000000000000     0.000000000000    22.989769282000
         O           -2.517737000000    -0.044737000000    -0.085663000000    15.994914619570
         H           -3.125824000000    -0.331550000000     0.584585000000     1.007825032230
         H           -3.129699000000     0.377416000000    -0.724333000000     1.007825032230
         O            2.465683000000     0.516957000000    -0.150294000000    15.994914619570
         H            2.739106000000     0.958987000000    -0.927177000000     1.007825032230
         H            2.451782000000     1.135025000000     0.576683000000     1.007825032230
         O           -0.121149000000    -0.310658000000    -2.292460000000    15.994914619570
         H           -0.296325000000    -1.265691000000    -2.370924000000     1.007825032230
         H            0.649829000000    -0.216062000000    -2.847853000000     1.007825032230
         O            0.358147000000     0.856708000000     2.301374000000    15.994914619570
         H            0.939411000000     1.103103000000     2.980068000000     1.007825032230
         H           -0.519149000000     1.038533000000     2.680292000000     1.007825032230
         O            0.057029000000    -2.251503000000     0.686124000000    15.994914619570
         H            0.872420000000    -2.539387000000     0.293641000000     1.007825032230
         H           -0.333279000000    -3.125313000000     0.756646000000     1.007825032230

  Charge       = 1
  Multiplicity = 1
  Basis Set: AUG-CC-PVTZ
    Blend: AUG-CC-PVTZ
  Basis Set: (AUG-CC-PVTZ AUX)
    Blend: AUG-CC-PVTZ-JKFIT + DEF2-UNIVERSAL-JKFIT

    Orbital Energies [Eh]
    ---------------------

    Doubly Occupied:

       1A    -40.562310     2A    -20.725424     3A    -20.720464
       4A    -20.719354     5A    -20.715444     6A    -20.713148
       7A     -2.883308     8A     -1.608650     9A     -1.607945
      10A     -1.606885    11A     -1.515362    12A     -1.514205
      13A     -1.511252    14A     -1.508815    15A     -1.499819
      16A     -0.886621    17A     -0.874832    18A     -0.865845
      19A     -0.855367    20A     -0.853021    21A     -0.769481
      22A     -0.758772    23A     -0.754494    24A     -0.745877
      25A     -0.734901    26A     -0.679230    27A     -0.669578
      28A     -0.667590    29A     -0.662721    30A     -0.659575

  @DF-RHF Final Energy:  -542.09570272765995

   => Energetics <=

    Nuclear Repulsion Energy =            298.2538469004473427
    One-Electron Energy =               -1338.9985114679363960
    Two-Electron Energy =                 498.6489618398290986
    Total Energy =                       -542.0957027276599547
 Dipole X            :         -4.3055139            4.1272677           -0.1782462
 Dipole Y            :         23.6843534          -24.0577310           -0.3733777
 Dipole Z            :         -8.6973650            8.8331015            0.1357364
 Magnitude           :                                                    0.4354388
  Basis Set: (AUG-CC-PVTZ AUX)
    Blend: AUG-CC-PVTZ-RI + DEF2-QZVPP-RI
	 Reference Energy          =    -542.0957027276599547 [Eh]
	 Singles Energy            =      -0.0000000000000000 [Eh]
	 Same-Spin Energy          =      -0.3499277005380295 [Eh]
	 Opposite-Spin Energy      =      -1.0961646521511030 [Eh]
	 Correlation Energy        =      -1.4460923526891325 [Eh]
	 Total Energy              =    -543.5417950803490612 [Eh]

	 ================> DF-SCS-MP2 Energies <==================
	-----------------------------------------------------------
	 SCS Same-Spin Scale       =       0.3333333333333333 [-]
	 SCS Opposite-Spin Scale   =       1.2000000000000000 [-]
	 SCS Same-Spin Energy      =      -0.1166425668460098 [Eh]
	 SCS Opposite-Spin Energy  =      -1.3153975825813236 [Eh]
	 SCS Correlation Energy    =      -1.4320401494273334 [Eh]
	 SCS Total Energy          =    -543.5277428770872348 [Eh]
	-----------------------------------------------------------

*** Psi4 exiting successfully. Buy a developer a beer!
