                               Psi4 1.8.2 release

  ==> Input File <==

--------------------------------------------------------------------------
MEMORY 60 GB

molecule dimer {
0 1
Gh(Na)     0.000000     0.000000     0.000000
Gh(O)     -0.835240     0.473484     2.119495
Gh(H)     -0.454693     1.245275     2.586267
Gh(H)     -1.132360    -0.183285     2.785897
O          0.033539    -2.290098    -0.664363
H         -0.004054    -2.576443     0.261397
H          0.855844    -2.546782    -1.166561
Gh(O)      1.583864     1.928752    -0.019939
Gh(H)      1.499354     1.829133    -1.014737
Gh(H)      1.387146     2.888641     0.263931

units ang
no_reorient
no_com
symmetry c1
}

set {
basis        aug-cc-pVTZ
scf_type     df
}

energy("mp2")
--------------------------------------------------------------------------

    Molecular point group: c1

    Geometry (in Angstrom), charge = 0, multiplicity = 1:

       Center              X                  Y                   Z               Mass
    ------------   -----------------  -----------------  -----------------  -----------------
      Gh(NA)          0.000000000000     0.000000000000     0.000000000000    22.989769282000
      Gh(O)          -0.835240000000     0.473484000000     2.119495000000    15.994914619570
      Gh(H)          -0.454693000000     1.245275000000     2.586267000000     1.007825032230
      Gh(H)          -1.132360000000    -0.183285000000     2.785897000000     1.007825032230
         O            0.033539000000    -2.290098000000    -0.664363000000    15.994914619570
         H           -0.004054000000    -2.576443000000     0.261397000000     1.007825032230
         H            0.855844000000    -2.546782000000    -1.166561000000     1.007825032230
      Gh(O)           1.583864000000     1.928752000000    -0.019939000000    15.994914619570
      Gh(H)           1.499354000000     1.829133000000    -1.014737000000     1.007825032230
      Gh(H)           1.387146000000     2.888641000000     0.263931000000     1.007825032230

  Charge       = 0
  Multiplicity = 1
  Basis Set: AUG-CC-PVTZ
    Blend: AUG-CC-PVTZ
  Basis Set: (AUG-CC-PVTZ AUX)
    Blend: AUG-CC-PVTZ-JKFIT + DEF2-UNIVERSAL-JKFIT

    Orbital Energies [Eh]
    ---------------------

    Doubly Occupied:

       1A    -20.565822     2A     -1.333088     3A     -0.722882
       4A     -0.558203     5A     -0.504538

  @DF-RHF Final Energy:   -76.05440975102923

   => Energetics <=

    Nuclear Repulsion Energy =              8.9284229284068584
    One-Electron Energy =                -122.5965978455574543
    Two-Electron Energy =                  37.6137651661213610
    Total Energy =                        -76.0544097510292261
 Dipole X            :         -1.5860346            2.1166860            0.5306514
 Dipole Y            :         43.9342230          -44.3027563           -0.3685333
 Dipole Z            :         12.0439453          -11.7542250            0.2897203
 Magnitude           :                                                    0.7080576
  Basis Set: (AUG-CC-PVTZ AUX)
    Blend: AUG-CC-PVTZ-RI + DEF2-QZVPP-RI
	 Reference Energy          =     -76.0544097510292261 [Eh]
	 Singles Energy            =      -0.0000000000000000 [Eh]
	 Same-Spin Energy          =      -0.0687717779322150 [Eh]
	 Opposite-Spin Energy      =      -0.2165951665434820 [Eh]
	 Correlation Energy        =      -0.2853669444756970 [Eh]
	 Total Energy              =     -76.3397766955049235 [Eh]

	 ================> DF-SCS-MP2 Energies <==================
	-----------------------------------------------------------
	 SCS Same-Spin Scale       =       0.3333333333333333 [-]
	 SCS Opposite-Spin Scale   =       1.2000000000000000 [-]
	 SCS Same-Spin Energy      =      -0.0229239259774050 [Eh]
	 SCS Opposite-Spin Energy  =      -0.2599141998521785 [Eh]
	 SCS Correlation Energy    =      -0.2828381258295835 [Eh]
	 SCS Total Energy          =     -76.3372478768588110 [Eh]
	-----------------------------------------------------------

*** Psi4 exiting successfully. Buy a developer a beer!
