                               Psi4 1.8.2 release

  ==> Input File <==

--------------------------------------------------------------------------
MEMORY 60 GB

molecule dimer {
1 1
Na         0.000000     0.000000     0.000000
Gh(O)     -0.451034    -1.697463     1.269793
Gh(H)     -1.299480    -1.713730     1.650871
Gh(H)      0.116268    -2.326969     1.787042
Gh(O)      2.181291     0.802292     0.600639
Gh(H)      2.001660     1.202889    -0.254796
Gh(H)      1.826088     1.341891     1.245008
Gh(O)     -2.020617     0.591528    -1.382805
Gh(H)     -2.011262     0.924934    -2.259301
Gh(H)     -2.600586     1.147604    -0.907925
Gh(O)      1.106793     1.662868    -1.598105
Gh(H)      0.664469     2.524075    -1.599745
Gh(H)      1.116358     1.388905    -2.523674
Gh(O)     -1.021770     1.888638     1.155341
Gh(H)     -1.838470     1.688382     1.662850
Gh(H)     -1.163799     2.645063     0.665315

units ang
no_reorient
no_com
symmetry c1
}

set {
basis        aug-cc-pVTZ
scf_type     df
}

energy("mp2")
--------------------------------------------------------------------------

    Molecular point group: c1

    Geometry (in Angstrom), charge = 1, multiplicity = 1:

       Center              X                  Y                   Z               Mass
    ------------   -----------------  -----------------  -----------------  -----------------
         NA           0.000000000000     0.000000000000     0.000000000000    22.989769282000
      Gh(O)          -0.451034000000    -1.697463000000     1.269793000000    15.994914619570
      Gh(H)          -1.299480000000    -1.713730000000     1.650871000000     1.007825032230
      Gh(H)           0.116268000000    -2.326969000000     1.787042000000     1.007825032230
      Gh(O)           2.181291000000     0.802292000000     0.600639000000    15.994914619570
      Gh(H)           2.001660000000     1.202889000000    -0.254796000000     1.007825032230
      Gh(H)           1.826088000000     1.341891000000     1.245008000000     1.007825032230
      Gh(O)          -2.020617000000     0.591528000000    -1.382805000000    15.994914619570
      Gh(H)          -2.011262000000     0.924934000000    -2.259301000000     1.007825032230
      Gh(H)          -2.600586000000     1.147604000000    -0.907925000000     1.007825032230
      Gh(O)           1.106793000000     1.662868000000    -1.598105000000    15.994914619570
      Gh(H)           0.664469000000     2.524075000000    -1.599745000000     1.007825032230
      Gh(H)           1.116358000000     1.388905000000    -2.523674000000     1.007825032230
      Gh(O)          -1.021770000000     1.888638000000     1.155341000000    15.994914619570
      Gh(H)          -1.838470000000     1.688382000000     1.662850000000     1.007825032230
      Gh(H)          -1.163799000000     2.645063000000     0.665315000000     1.007825032230

  Charge       = 1
  Multiplicity = 1
  Basis Set: AUG-CC-PVTZ
    Blend: AUG-CC-PVTZ
  Basis Set: (AUG-CC-PVTZ AUX)
    Blend: AUG-CC-PVTZ-JKFIT + DEF2-UNIVERSAL-JKFIT

    Orbital Energies [Eh]
    ---------------------

    Doubly Occupied:

       1A    -40.760539     2A     -3.073848     3A     -1.797224
       4A     -1.797166     5A     -1.797161

  @DF-RHF Final Energy:  -161.67609100398204

   => Energetics <=

    Nuclear Repulsion Energy =              0.0000000000000000
    One-Electron Energy =                -224.9003076229265901
    Two-Electron Energy =                  63.2242166189445669
    Total Energy =                       -161.6760910039820374
 Dipole X            :         -0.0000668            0.0000000           -0.0000668
 Dipole Y            :          0.0001378            0.0000000            0.0001378
 Dipole Z            :         -0.0000236            0.0000000           -0.0000236
 Magnitude           :                                                    0.0001549
  Basis Set: (AUG-CC-PVTZ AUX)
    Blend: AUG-CC-PVTZ-RI + DEF2-QZVPP-RI
	 Reference Energy          =    -161.6760910039820374 [Eh]
	 Singles Energy            =      -0.0000000000000000 [Eh]
	 Same-Spin Energy          =      -0.0062114101144084 [Eh]
	 Opposite-Spin Energy      =      -0.0191713672342039 [Eh]
	 Correlation Energy        =      -0.0253827773486122 [Eh]
	 Total Energy              =    -161.7014737813306624 [Eh]

	 ================> DF-SCS-MP2 Energies <==================
	-----------------------------------------------------------
	 SCS Same-Spin Scale       =       0.3333333333333333 [-]
	 SCS Opposite-Spin Scale   =       1.2000000000000000 [-]
	 SCS Same-Spin Energy      =      -0.0020704700381361 [Eh]
	 SCS Opposite-Spin Energy  =      -0.0230056406810447 [Eh]
	 SCS Correlation Energy    =      -0.0250761107191808 [Eh]
	 SCS Total Energy          =    -161.7011671147012066 [Eh]
	-----------------------------------------------------------

*** Psi4 exiting successfully. Buy a developer a beer!
