                               Psi4 1.8.2 release

  ==> Input File <==

--------------------------------------------------------------------------
MEMORY 60 GB

molecule dimer {
1 1
Na         0.000000     0.000000     0.000000
Gh(O)     -0.180563    -2.182435    -1.037186
Gh(H)     -0.065729    -2.790783    -0.341971
Gh(H)      0.562536    -2.355411    -1.643452
Gh(O)     -2.000451     0.701464     1.294659
Gh(H)     -2.079251     1.430673     1.914902
Gh(H)     -2.917867     0.429247     1.133965
Gh(O)      2.097239    -0.812440     1.323753
Gh(H)      2.024424    -0.994505     2.233103
Gh(H)      2.996688    -0.460673     1.257813
Gh(O)     -1.974202     0.884704    -1.534663
Gh(H)     -1.703341     1.810095    -1.514027
Gh(H)     -2.843633     0.881741    -1.122339
Gh(O)      1.776401     0.618314    -1.270304
Gh(H)      1.704603     0.388928    -2.211294
Gh(H)      1.922183     1.547468    -1.244006

units ang
no_reorient
no_com
symmetry c1
}

set {
basis        aug-cc-pVTZ
scf_type     df
}

energy("mp2")
--------------------------------------------------------------------------

    Molecular point group: c1

    Geometry (in Angstrom), charge = 1, multiplicity = 1:

       Center              X                  Y                   Z               Mass
    ------------   -----------------  -----------------  -----------------  -----------------
         NA           0.000000000000     0.000000000000     0.000000000000    22.989769282000
      Gh(O)          -0.180563000000    -2.182435000000    -1.037186000000    15.994914619570
      Gh(H)          -0.065729000000    -2.790783000000    -0.341971000000     1.007825032230
      Gh(H)           0.562536000000    -2.355411000000    -1.643452000000     1.007825032230
      Gh(O)          -2.000451000000     0.701464000000     1.294659000000    15.994914619570
      Gh(H)          -2.079251000000     1.430673000000     1.914902000000     1.007825032230
      Gh(H)          -2.917867000000     0.429247000000     1.133965000000     1.007825032230
      Gh(O)           2.097239000000    -0.812440000000     1.323753000000    15.994914619570
      Gh(H)           2.024424000000    -0.994505000000     2.233103000000     1.007825032230
      Gh(H)           2.996688000000    -0.460673000000     1.257813000000     1.007825032230
      Gh(O)          -1.974202000000     0.884704000000    -1.534663000000    15.994914619570
      Gh(H)          -1.703341000000     1.810095000000    -1.514027000000     1.007825032230
      Gh(H)          -2.843633000000     0.881741000000    -1.122339000000     1.007825032230
      Gh(O)           1.776401000000     0.618314000000    -1.270304000000    15.994914619570
      Gh(H)           1.704603000000     0.388928000000    -2.211294000000     1.007825032230
      Gh(H)           1.922183000000     1.547468000000    -1.244006000000     1.007825032230

  Charge       = 1
  Multiplicity = 1
  Basis Set: AUG-CC-PVTZ
    Blend: AUG-CC-PVTZ
  Basis Set: (AUG-CC-PVTZ AUX)
    Blend: AUG-CC-PVTZ-JKFIT + DEF2-UNIVERSAL-JKFIT

    Orbital Energies [Eh]
    ---------------------

    Doubly Occupied:

       1A    -40.760493     2A     -3.073821     3A     -1.797168
       4A     -1.797166     5A     -1.797136

  @DF-RHF Final Energy:  -161.67608800872415

   => Energetics <=

    Nuclear Repulsion Energy =              0.0000000000000000
    One-Electron Energy =                -224.9006071338370987
    Two-Electron Energy =                  63.2245191251129626
    Total Energy =                       -161.6760880087241503
 Dipole X            :          0.0000228            0.0000000            0.0000228
 Dipole Y            :          0.0000970            0.0000000            0.0000970
 Dipole Z            :         -0.0000859            0.0000000           -0.0000859
 Magnitude           :                                                    0.0001315
  Basis Set: (AUG-CC-PVTZ AUX)
    Blend: AUG-CC-PVTZ-RI + DEF2-QZVPP-RI
	 Reference Energy          =    -161.6760880087241503 [Eh]
	 Singles Energy            =      -0.0000000000000000 [Eh]
	 Same-Spin Energy          =      -0.0058392440135120 [Eh]
	 Opposite-Spin Energy      =      -0.0181300846608395 [Eh]
	 Correlation Energy        =      -0.0239693286743515 [Eh]
	 Total Energy              =    -161.7000573373985048 [Eh]

	 ================> DF-SCS-MP2 Energies <==================
	-----------------------------------------------------------
	 SCS Same-Spin Scale       =       0.3333333333333333 [-]
	 SCS Opposite-Spin Scale   =       1.2000000000000000 [-]
	 SCS Same-Spin Energy      =      -0.0019464146711707 [Eh]
	 SCS Opposite-Spin Energy  =      -0.0217561015930074 [Eh]
	 SCS Correlation Energy    =      -0.0237025162641781 [Eh]
	 SCS Total Energy          =    -161.6997905249883161 [Eh]
	-----------------------------------------------------------

*** Psi4 exiting successfully. Buy a developer a beer!
