                               Psi4 1.9 release

  ==> Input File <==

--------------------------------------------------------------------------
MEMORY 60 GB

molecule dimer {
1 1
Na     0.000000     0.000000     0.000000
--
0 1
O     -1.476289     1.000580    -1.680201
H     -1.347957     0.330310    -2.372440
H     -2.429876     1.119469    -1.591365
O      2.003211     0.161049    -1.174825
H      2.679153     0.338854    -0.470757
H      1.973185     0.976483    -1.680248
O     -0.163112     1.557536     1.551695
H      0.623683     2.047554     1.538014
H     -0.465897     1.324097     2.431350
O     -1.395492    -1.854519    -0.938929
H     -1.529696    -2.656867    -0.415875
H     -1.708751    -2.067533    -1.827479
O      1.140018    -1.255107     1.603180
H      2.012796    -1.642493     1.425109
H      1.148354    -1.258433     2.534760

units ang
no_reorient
no_com
symmetry c1
}

set {
basis        aug-cc-pVTZ
scf_type     df
}

energy("mp2", bsse_type="cp")
--------------------------------------------------------------------------

                               Psi4 1.9 release
    Molecular point group: c1
  Charge       = 0
  Multiplicity = 1
  Basis Set: AUG-CC-PVTZ
    Blend: AUG-CC-PVTZ
  Basis Set: (AUG-CC-PVTZ AUX)
    Blend: AUG-CC-PVTZ-JKFIT + DEF2-UNIVERSAL-JKFIT
  @DF-RHF Final Energy:  -380.27360712713846
    Total Energy =                       -380.2736071271384617
 Dipole X            :         -2.9979753            3.4424801            0.4445047
 Dipole Y            :          8.2209016           -8.7158837           -0.4949820
 Dipole Z            :         11.0885593          -10.4720515            0.6165078
 Magnitude           :                                                    0.9070135
  Basis Set: (AUG-CC-PVTZ AUX)
    Blend: AUG-CC-PVTZ-RI + DEF2-QZVPP-RI
	 Reference Energy          =    -380.2736071271384617 [Eh]
	 Singles Energy            =      -0.0000000000000000 [Eh]
	 Same-Spin Energy          =      -0.3454223845529607 [Eh]
	 Opposite-Spin Energy      =      -1.0841442663093890 [Eh]
	 Correlation Energy        =      -1.4295666508623497 [Eh]
	 Total Energy              =    -381.7031737780008029 [Eh]
	 SCS Total Energy          =    -381.6897210415606878 [Eh]
                               Psi4 1.9 release
    Molecular point group: c1
  Multiplicity = 1
  Basis Set: AUG-CC-PVTZ
    Blend: AUG-CC-PVTZ
  Basis Set: (AUG-CC-PVTZ AUX)
    Blend: AUG-CC-PVTZ-JKFIT + DEF2-UNIVERSAL-JKFIT
  @DF-RHF Final Energy:  -161.67609269117636
    Total Energy =                       -161.6760926911763647
  Basis Set: (AUG-CC-PVTZ AUX)
	 Singles Energy            =      -0.0000000000000000 [Eh]
	 Same-Spin Energy          =      -0.0063279009472012 [Eh]
	 Opposite-Spin Energy      =      -0.0194018343826404 [Eh]
	 Correlation Energy        =      -0.0257297353298416 [Eh]
	 Total Energy              =    -161.7018224265061974 [Eh]
	 SCS Total Energy          =    -161.7014841927512805 [Eh]
                               Psi4 1.9 release
    Molecular point group: c1

    Geometry (in Bohr), charge = 1, multiplicity = 1:

       Center              X                  Y                   Z               Mass
    ------------   -----------------  -----------------  -----------------  -----------------
         NA           0.000000000000     0.000000000000     0.000000000000    22.989769282000
         O           -2.789781892026     1.890822166611    -3.175119725720    15.994914619570
         H           -2.547269558894     0.624195436500    -4.483261849081     1.007825032230
         H           -4.591800158823     2.115489815940    -3.007244015639     1.007825032230
         O            3.785520161505     0.304338502779    -2.220097495341    15.994914619570
         H            5.062865418199     0.640341256516    -0.889601801642     1.007825032230
         H            3.728779244862     1.845285436165    -3.175208542848     1.007825032230
         O           -0.308237007776     2.943316470541     2.932278580242    15.994914619570
         H            1.178590059104     3.869316287086     2.906425237120     1.007825032230
         H           -0.880417732672     2.502180693540     4.594585615132     1.007825032230
         O           -2.637097690267    -3.504533004458    -1.774318661250    15.994914619570
         H           -2.890706495208    -5.020750981767    -0.785889852425     1.007825032230
         H           -3.229071406602    -3.907071125346    -3.453434810026     1.007825032230
         O            2.154321798092    -2.371808488145     3.029571129811    15.994914619570
         H            3.803633186417    -3.103861932982     2.693065708925     1.007825032230
         H            2.170074555074    -2.378093717238     4.790002193765     1.007825032230

  Charge       = 1
  Multiplicity = 1
  Basis Set: AUG-CC-PVTZ
    Blend: AUG-CC-PVTZ
  Basis Set: (AUG-CC-PVTZ AUX)
    Blend: AUG-CC-PVTZ-JKFIT + DEF2-UNIVERSAL-JKFIT

    Orbital Energies [Eh]
    ---------------------

    Doubly Occupied:

       1A    -40.543881     2A    -20.730624     3A    -20.730417
       4A    -20.719954     5A    -20.716600     6A    -20.707741
       7A     -2.868284     8A     -1.594851     9A     -1.593708
      10A     -1.592965    11A     -1.526149    12A     -1.518083
      13A     -1.508161    14A     -1.499849    15A     -1.488712
      16A     -0.907668    17A     -0.879481    18A     -0.869017
      19A     -0.867441    20A     -0.854780    21A     -0.775835
      22A     -0.751020    23A     -0.745963    24A     -0.743802
      25A     -0.727295    26A     -0.690168    27A     -0.676565
      28A     -0.669540    29A     -0.664433    30A     -0.650443

  @DF-RHF Final Energy:  -542.08985788151210

   => Energetics <=

    Nuclear Repulsion Energy =            305.4532906152629153
    One-Electron Energy =               -1353.4594325172790832
    Two-Electron Energy =                 505.9162840205041789
    Total Energy =                       -542.0898578815119890
 Dipole X            :         -2.9309435            3.4424801            0.5115366
 Dipole Y            :          8.1896976           -8.7158837           -0.5261861
 Dipole Z            :         11.0911961          -10.4720515            0.6191446
 Magnitude           :                                                    0.9601467
  Basis Set: (AUG-CC-PVTZ AUX)
    Blend: AUG-CC-PVTZ-RI + DEF2-QZVPP-RI
	 Reference Energy          =    -542.0898578815121027 [Eh]
	 Singles Energy            =      -0.0000000000000000 [Eh]
	 Same-Spin Energy          =      -0.3504200557473978 [Eh]
	 Opposite-Spin Energy      =      -1.0969141058726555 [Eh]
	 Correlation Energy        =      -1.4473341616200532 [Eh]
	 Total Energy              =    -543.5371920431321087 [Eh]

	 ================> DF-SCS-MP2 Energies <==================
	-----------------------------------------------------------
	 SCS Same-Spin Scale       =       0.3333333333333333 [-]
	 SCS Opposite-Spin Scale   =       1.2000000000000000 [-]
	 SCS Same-Spin Energy      =      -0.1168066852491326 [Eh]
	 SCS Opposite-Spin Energy  =      -1.3162969270471865 [Eh]
	 SCS Correlation Energy    =      -1.4331036122963190 [Eh]
	 SCS Total Energy          =    -543.5229614938084524 [Eh]
	-----------------------------------------------------------

*** Psi4 exiting successfully. Buy a developer a beer!
