                               Psi4 1.9 release

  ==> Input File <==

--------------------------------------------------------------------------
MEMORY 60 GB

molecule dimer {
1 1
Na     0.000000     0.000000     0.000000
--
0 1
O     -2.058645     0.434487     1.171922
H     -2.658565     1.121252     0.841320
H     -2.557630    -0.382890     0.953784
O      1.051296     1.338895     2.009781
H      2.035858     1.255881     2.040475
H      0.850641     1.874788     2.758326
O     -0.639434    -1.764377    -1.349866
H     -1.458636    -1.683678    -1.767648
H     -0.058484    -1.996889    -2.070390
O      1.802084     1.145751    -1.009113
H      2.499224     1.024550    -1.661574
H      1.730347     2.091370    -0.837185

units ang
no_reorient
no_com
symmetry c1
}

set {
basis        aug-cc-pVTZ
scf_type     df
}

energy("mp2", bsse_type="cp")
--------------------------------------------------------------------------

                               Psi4 1.9 release
    Molecular point group: c1
  Charge       = 0
  Multiplicity = 1
  Basis Set: AUG-CC-PVTZ
    Blend: AUG-CC-PVTZ
  Basis Set: (AUG-CC-PVTZ AUX)
    Blend: AUG-CC-PVTZ-JKFIT + DEF2-UNIVERSAL-JKFIT
  @DF-RHF Final Energy:  -304.22745237088998
    Total Energy =                       -304.2274523708899778
 Dipole X            :         -3.0131061            3.0711130            0.0580069
 Dipole Y            :        -23.0699722           23.7017614            0.6317892
 Dipole Z            :        -13.8228868           12.9236480           -0.8992388
 Magnitude           :                                                    1.1005239
  Basis Set: (AUG-CC-PVTZ AUX)
    Blend: AUG-CC-PVTZ-RI + DEF2-QZVPP-RI
	 Reference Energy          =    -304.2274523708899778 [Eh]
	 Singles Energy            =      -0.0000000000000000 [Eh]
	 Same-Spin Energy          =      -0.2754816421607706 [Eh]
	 Opposite-Spin Energy      =      -0.8659834877831725 [Eh]
	 Correlation Energy        =      -1.1414651299439431 [Eh]
	 Total Energy              =    -305.3689175008339021 [Eh]
	 SCS Total Energy          =    -305.3584597702833889 [Eh]
                               Psi4 1.9 release
    Molecular point group: c1
  Multiplicity = 1
  Basis Set: AUG-CC-PVTZ
    Blend: AUG-CC-PVTZ
  Basis Set: (AUG-CC-PVTZ AUX)
    Blend: AUG-CC-PVTZ-JKFIT + DEF2-UNIVERSAL-JKFIT
  @DF-RHF Final Energy:  -161.67608103277897
    Total Energy =                       -161.6760810327789670
  Basis Set: (AUG-CC-PVTZ AUX)
	 Singles Energy            =      -0.0000000000000000 [Eh]
	 Same-Spin Energy          =      -0.0050934086646444 [Eh]
	 Opposite-Spin Energy      =      -0.0162842692519371 [Eh]
	 Correlation Energy        =      -0.0213776779165815 [Eh]
	 Total Energy              =    -161.6974587106955425 [Eh]
	 SCS Total Energy          =    -161.6973199587694978 [Eh]
                               Psi4 1.9 release
    Molecular point group: c1

    Geometry (in Bohr), charge = 1, multiplicity = 1:

       Center              X                  Y                   Z               Mass
    ------------   -----------------  -----------------  -----------------  -----------------
         NA           0.000000000000     0.000000000000     0.000000000000    22.989769282000
         O           -3.890275239543     0.821061435072     2.214611620399    15.994914619570
         H           -5.023959736728     2.118859197622     1.589864383870     1.007825032230
         H           -4.833220230255    -0.723557236177     1.802390542844     1.007825032230
         O            1.986661516789     2.530144860745     3.797935662149    15.994914619570
         H            3.847214050322     2.373271136166     3.855938915844     1.007825032230
         H            1.607478521086     3.542835863295     5.212480704730     1.007825032230
         O           -1.208355135306    -3.334189312057    -2.550877046067    15.994914619570
         H           -2.756422556733    -3.181690303459    -3.340370606213     1.007825032230
         H           -0.110518742721    -3.773573312939    -3.912470072887     1.007825032230
         O            3.405445215070     2.165155597969    -1.906947199639    15.994914619570
         H            4.722848886171     1.936118901838    -3.139919797181     1.007825032230
         H            3.269881932008     3.952116526999    -1.582050366341     1.007825032230

  Charge       = 1
  Multiplicity = 1
  Basis Set: AUG-CC-PVTZ
    Blend: AUG-CC-PVTZ
  Basis Set: (AUG-CC-PVTZ AUX)
    Blend: AUG-CC-PVTZ-JKFIT + DEF2-UNIVERSAL-JKFIT

    Orbital Energies [Eh]
    ---------------------

    Doubly Occupied:

       1A    -40.587352     2A    -20.739567     3A    -20.733447
       4A    -20.733134     5A    -20.710817     6A     -2.908047
       7A     -1.632901     8A     -1.632513     9A     -1.631720
      10A     -1.542629    11A     -1.518023    12A     -1.510299
      13A     -1.493929    14A     -0.901376    15A     -0.888713
      16A     -0.864551    17A     -0.854738    18A     -0.781762
      19A     -0.763553    20A     -0.757664    21A     -0.735262
      22A     -0.695598    23A     -0.681191    24A     -0.677964
      25A     -0.654829

  @DF-RHF Final Energy:  -466.02186272862127

   => Energetics <=

    Nuclear Repulsion Energy =            209.6720727380285894
    One-Electron Energy =               -1058.1247141557601026
    Two-Electron Energy =                 382.4307786891101841
    Total Energy =                       -466.0218627286212723
 Dipole X            :         -3.0114166            3.0711130            0.0596964
 Dipole Y            :        -22.9449099           23.7017614            0.7568515
 Dipole Z            :        -13.8374519           12.9236480           -0.9138039
 Magnitude           :                                                    1.1880343
  Basis Set: (AUG-CC-PVTZ AUX)
    Blend: AUG-CC-PVTZ-RI + DEF2-QZVPP-RI
	 Reference Energy          =    -466.0218627286212723 [Eh]
	 Singles Energy            =      -0.0000000000000000 [Eh]
	 Same-Spin Energy          =      -0.2795219306174269 [Eh]
	 Opposite-Spin Energy      =      -0.8772335939565575 [Eh]
	 Correlation Energy        =      -1.1567555245739845 [Eh]
	 Total Energy              =    -467.1786182531952818 [Eh]

	 ================> DF-SCS-MP2 Energies <==================
	-----------------------------------------------------------
	 SCS Same-Spin Scale       =       0.3333333333333333 [-]
	 SCS Opposite-Spin Scale   =       1.2000000000000000 [-]
	 SCS Same-Spin Energy      =      -0.0931739768724756 [Eh]
	 SCS Opposite-Spin Energy  =      -1.0526803127478690 [Eh]
	 SCS Correlation Energy    =      -1.1458542896203445 [Eh]
	 SCS Total Energy          =    -467.1677170182416035 [Eh]
	-----------------------------------------------------------

*** Psi4 exiting successfully. Buy a developer a beer!
