                               Psi4 1.8.2 release

  ==> Input File <==

--------------------------------------------------------------------------
MEMORY 60 GB

molecule dimer {
0 1
Gh(Na)     0.000000     0.000000     0.000000
Gh(O)     -1.409074     0.355305    -1.934811
Gh(H)     -2.018915    -0.084566    -2.517439
Gh(H)     -1.713316     1.279090    -1.866761
Gh(O)      1.794911    -0.561345    -1.460683
Gh(H)      1.593494    -0.314377    -2.353811
Gh(H)      2.372591     0.005118    -0.936876
O         -0.435838    -2.352717    -0.436670
H         -1.222788    -2.285827    -0.914371
H          0.251402    -2.259475    -1.069210
Gh(O)      1.104550    -0.175403     2.295834
Gh(H)      0.876549    -0.816756     2.946310
Gh(H)      1.979536    -0.369264     1.912482
Gh(O)     -1.853595     0.756497     1.640902
Gh(H)     -1.903286     0.033801     2.281206
Gh(H)     -2.592475     0.565838     1.026460
Gh(O)      1.194547     2.122144    -0.067927
Gh(H)      1.308253     2.491892    -0.928783
Gh(H)      0.775169     2.856759     0.408660

units ang
no_reorient
no_com
symmetry c1
}

set {
basis        aug-cc-pVTZ
scf_type     df
}

energy("mp2")
--------------------------------------------------------------------------

    Molecular point group: c1

    Geometry (in Angstrom), charge = 0, multiplicity = 1:

       Center              X                  Y                   Z               Mass
    ------------   -----------------  -----------------  -----------------  -----------------
      Gh(NA)          0.000000000000     0.000000000000     0.000000000000    22.989769282000
      Gh(O)          -1.409074000000     0.355305000000    -1.934811000000    15.994914619570
      Gh(H)          -2.018915000000    -0.084566000000    -2.517439000000     1.007825032230
      Gh(H)          -1.713316000000     1.279090000000    -1.866761000000     1.007825032230
      Gh(O)           1.794911000000    -0.561345000000    -1.460683000000    15.994914619570
      Gh(H)           1.593494000000    -0.314377000000    -2.353811000000     1.007825032230
      Gh(H)           2.372591000000     0.005118000000    -0.936876000000     1.007825032230
         O           -0.435838000000    -2.352717000000    -0.436670000000    15.994914619570
         H           -1.222788000000    -2.285827000000    -0.914371000000     1.007825032230
         H            0.251402000000    -2.259475000000    -1.069210000000     1.007825032230
      Gh(O)           1.104550000000    -0.175403000000     2.295834000000    15.994914619570
      Gh(H)           0.876549000000    -0.816756000000     2.946310000000     1.007825032230
      Gh(H)           1.979536000000    -0.369264000000     1.912482000000     1.007825032230
      Gh(O)          -1.853595000000     0.756497000000     1.640902000000    15.994914619570
      Gh(H)          -1.903286000000     0.033801000000     2.281206000000     1.007825032230
      Gh(H)          -2.592475000000     0.565838000000     1.026460000000     1.007825032230
      Gh(O)           1.194547000000     2.122144000000    -0.067927000000    15.994914619570
      Gh(H)           1.308253000000     2.491892000000    -0.928783000000     1.007825032230
      Gh(H)           0.775169000000     2.856759000000     0.408660000000     1.007825032230

  Charge       = 0
  Multiplicity = 1
  Basis Set: AUG-CC-PVTZ
    Blend: AUG-CC-PVTZ
  Basis Set: (AUG-CC-PVTZ AUX)
    Blend: AUG-CC-PVTZ-JKFIT + DEF2-UNIVERSAL-JKFIT

    Orbital Energies [Eh]
    ---------------------

    Doubly Occupied:

       1A    -20.561716     2A     -1.366865     3A     -0.734645
       4A     -0.587774     5A     -0.512333

  @DF-RHF Final Energy:   -76.06093075219798

   => Energetics <=

    Nuclear Repulsion Energy =              9.4534560093662687
    One-Electron Energy =                -123.5021071259475605
    Two-Electron Energy =                  37.9877203643833212
    Total Energy =                        -76.0609307521979758
 Dipole X            :          8.3542846           -8.4245691           -0.0702846
 Dipole Y            :         44.2656242          -44.1573022            0.1083220
 Dipole Z            :          9.5969762          -10.3499185           -0.7529423
 Magnitude           :                                                    0.7639344
  Basis Set: (AUG-CC-PVTZ AUX)
    Blend: AUG-CC-PVTZ-RI + DEF2-QZVPP-RI
	 Reference Energy          =     -76.0609307521979758 [Eh]
	 Singles Energy            =      -0.0000000000000000 [Eh]
	 Same-Spin Energy          =      -0.0679607235798625 [Eh]
	 Opposite-Spin Energy      =      -0.2146544321531516 [Eh]
	 Correlation Energy        =      -0.2826151557330141 [Eh]
	 Total Energy              =     -76.3435459079309879 [Eh]

	 ================> DF-SCS-MP2 Energies <==================
	-----------------------------------------------------------
	 SCS Same-Spin Scale       =       0.3333333333333333 [-]
	 SCS Opposite-Spin Scale   =       1.2000000000000000 [-]
	 SCS Same-Spin Energy      =      -0.0226535745266208 [Eh]
	 SCS Opposite-Spin Energy  =      -0.2575853185837820 [Eh]
	 SCS Correlation Energy    =      -0.2802388931104028 [Eh]
	 SCS Total Energy          =     -76.3411696453083835 [Eh]
	-----------------------------------------------------------

*** Psi4 exiting successfully. Buy a developer a beer!
