                               Psi4 1.8.2 release

  ==> Input File <==

--------------------------------------------------------------------------
MEMORY 60 GB

molecule dimer {
0 1
Gh(Na)     0.000000     0.000000     0.000000
Gh(O)     -0.034535     1.231489    -2.218136
Gh(H)      0.606959     1.824112    -2.604967
Gh(H)     -0.908760     1.375753    -2.636306
Gh(O)      2.509633    -0.358357    -0.458430
Gh(H)      2.814224    -0.209112     0.444792
Gh(H)      2.813634     0.361272    -1.001100
Gh(O)     -2.323793     0.459139     0.520834
Gh(H)     -3.041218     0.076369     0.031045
Gh(H)     -2.786487     1.059008     1.202974
Gh(O)     -0.225495    -2.522497     0.781078
Gh(H)     -0.490119    -2.643515     1.700931
Gh(H)      0.498305    -3.103075     0.692877
O          0.964521     0.894478     1.841733
H          1.926174     0.986879     2.103443
H          0.445700     0.435486     2.501790

units ang
no_reorient
no_com
symmetry c1
}

set {
basis        aug-cc-pVTZ
scf_type     df
}

energy("mp2")
--------------------------------------------------------------------------

    Molecular point group: c1

    Geometry (in Angstrom), charge = 0, multiplicity = 1:

       Center              X                  Y                   Z               Mass
    ------------   -----------------  -----------------  -----------------  -----------------
      Gh(NA)          0.000000000000     0.000000000000     0.000000000000    22.989769282000
      Gh(O)          -0.034535000000     1.231489000000    -2.218136000000    15.994914619570
      Gh(H)           0.606959000000     1.824112000000    -2.604967000000     1.007825032230
      Gh(H)          -0.908760000000     1.375753000000    -2.636306000000     1.007825032230
      Gh(O)           2.509633000000    -0.358357000000    -0.458430000000    15.994914619570
      Gh(H)           2.814224000000    -0.209112000000     0.444792000000     1.007825032230
      Gh(H)           2.813634000000     0.361272000000    -1.001100000000     1.007825032230
      Gh(O)          -2.323793000000     0.459139000000     0.520834000000    15.994914619570
      Gh(H)          -3.041218000000     0.076369000000     0.031045000000     1.007825032230
      Gh(H)          -2.786487000000     1.059008000000     1.202974000000     1.007825032230
      Gh(O)          -0.225495000000    -2.522497000000     0.781078000000    15.994914619570
      Gh(H)          -0.490119000000    -2.643515000000     1.700931000000     1.007825032230
      Gh(H)           0.498305000000    -3.103075000000     0.692877000000     1.007825032230
         O            0.964521000000     0.894478000000     1.841733000000    15.994914619570
         H            1.926174000000     0.986879000000     2.103443000000     1.007825032230
         H            0.445700000000     0.435486000000     2.501790000000     1.007825032230

  Charge       = 0
  Multiplicity = 1
  Basis Set: AUG-CC-PVTZ
    Blend: AUG-CC-PVTZ
  Basis Set: (AUG-CC-PVTZ AUX)
    Blend: AUG-CC-PVTZ-JKFIT + DEF2-UNIVERSAL-JKFIT

    Orbital Energies [Eh]
    ---------------------

    Doubly Occupied:

       1A    -20.566708     2A     -1.337608     3A     -0.720372
       4A     -0.565043     5A     -0.506020

  @DF-RHF Final Energy:   -76.05614304483350

   => Energetics <=

    Nuclear Repulsion Energy =              8.9788118581565968
    One-Electron Energy =                -122.6784046529828061
    Two-Electron Energy =                  37.6434497499926906
    Total Energy =                        -76.0561430448335045
 Dipole X            :        -18.7706813           19.0636365            0.2929552
 Dipole Y            :        -16.4588159           16.2104279           -0.2483880
 Dipole Z            :        -35.9237102           36.5455968            0.6218867
 Magnitude           :                                                    0.7309325
  Basis Set: (AUG-CC-PVTZ AUX)
    Blend: AUG-CC-PVTZ-RI + DEF2-QZVPP-RI
	 Reference Energy          =     -76.0561430448335045 [Eh]
	 Singles Energy            =      -0.0000000000000000 [Eh]
	 Same-Spin Energy          =      -0.0687083592733829 [Eh]
	 Opposite-Spin Energy      =      -0.2167274477240828 [Eh]
	 Correlation Energy        =      -0.2854358069974657 [Eh]
	 Total Energy              =     -76.3415788518309739 [Eh]

	 ================> DF-SCS-MP2 Energies <==================
	-----------------------------------------------------------
	 SCS Same-Spin Scale       =       0.3333333333333333 [-]
	 SCS Opposite-Spin Scale   =       1.2000000000000000 [-]
	 SCS Same-Spin Energy      =      -0.0229027864244610 [Eh]
	 SCS Opposite-Spin Energy  =      -0.2600729372688994 [Eh]
	 SCS Correlation Energy    =      -0.2829757236933604 [Eh]
	 SCS Total Energy          =     -76.3391187685268591 [Eh]
	-----------------------------------------------------------

*** Psi4 exiting successfully. Buy a developer a beer!
