                               Psi4 1.8.2 release

  ==> Input File <==

--------------------------------------------------------------------------
MEMORY 60 GB

molecule dimer {
1 1
Na         0.000000     0.000000     0.000000
Gh(O)     -0.846206     1.202595     1.854346
Gh(H)     -1.394373     1.995479     2.024959
Gh(H)     -0.648149     0.790331     2.691139
Gh(O)     -1.309742     1.323778    -1.628410
Gh(H)     -1.163522     2.267977    -1.422263
Gh(H)     -1.147540     1.263131    -2.577035
Gh(O)      1.237480    -1.823391     0.446021
Gh(H)      0.963790    -2.734554     0.597322
Gh(H)      2.174011    -1.658736     0.605497
Gh(O)     -1.574568    -1.883367    -0.384367
Gh(H)     -1.498784    -2.289933    -1.277612
Gh(H)     -2.507560    -1.716692    -0.387422

units ang
no_reorient
no_com
symmetry c1
}

set {
basis        aug-cc-pVTZ
scf_type     df
}

energy("mp2")
--------------------------------------------------------------------------

    Molecular point group: c1

    Geometry (in Angstrom), charge = 1, multiplicity = 1:

       Center              X                  Y                   Z               Mass
    ------------   -----------------  -----------------  -----------------  -----------------
         NA           0.000000000000     0.000000000000     0.000000000000    22.989769282000
      Gh(O)          -0.846206000000     1.202595000000     1.854346000000    15.994914619570
      Gh(H)          -1.394373000000     1.995479000000     2.024959000000     1.007825032230
      Gh(H)          -0.648149000000     0.790331000000     2.691139000000     1.007825032230
      Gh(O)          -1.309742000000     1.323778000000    -1.628410000000    15.994914619570
      Gh(H)          -1.163522000000     2.267977000000    -1.422263000000     1.007825032230
      Gh(H)          -1.147540000000     1.263131000000    -2.577035000000     1.007825032230
      Gh(O)           1.237480000000    -1.823391000000     0.446021000000    15.994914619570
      Gh(H)           0.963790000000    -2.734554000000     0.597322000000     1.007825032230
      Gh(H)           2.174011000000    -1.658736000000     0.605497000000     1.007825032230
      Gh(O)          -1.574568000000    -1.883367000000    -0.384367000000    15.994914619570
      Gh(H)          -1.498784000000    -2.289933000000    -1.277612000000     1.007825032230
      Gh(H)          -2.507560000000    -1.716692000000    -0.387422000000     1.007825032230

  Charge       = 1
  Multiplicity = 1
  Basis Set: AUG-CC-PVTZ
    Blend: AUG-CC-PVTZ
  Basis Set: (AUG-CC-PVTZ AUX)
    Blend: AUG-CC-PVTZ-JKFIT + DEF2-UNIVERSAL-JKFIT

    Orbital Energies [Eh]
    ---------------------

    Doubly Occupied:

       1A    -40.760741     2A     -3.073942     3A     -1.797313
       4A     -1.797254     5A     -1.797222

  @DF-RHF Final Energy:  -161.67608403216460

   => Energetics <=

    Nuclear Repulsion Energy =              0.0000000000000000
    One-Electron Energy =                -224.8992228725208236
    Two-Electron Energy =                  63.2231388403562278
    Total Energy =                       -161.6760840321645958
 Dipole X            :         -0.0000863            0.0000000           -0.0000863
 Dipole Y            :         -0.0000626            0.0000000           -0.0000626
 Dipole Z            :         -0.0000332            0.0000000           -0.0000332
 Magnitude           :                                                    0.0001116
  Basis Set: (AUG-CC-PVTZ AUX)
    Blend: AUG-CC-PVTZ-RI + DEF2-QZVPP-RI
	 Reference Energy          =    -161.6760840321645958 [Eh]
	 Singles Energy            =      -0.0000000000000000 [Eh]
	 Same-Spin Energy          =      -0.0050220777675984 [Eh]
	 Opposite-Spin Energy      =      -0.0160462474077838 [Eh]
	 Correlation Energy        =      -0.0210683251753823 [Eh]
	 Total Energy              =    -161.6971523573399736 [Eh]

	 ================> DF-SCS-MP2 Energies <==================
	-----------------------------------------------------------
	 SCS Same-Spin Scale       =       0.3333333333333333 [-]
	 SCS Opposite-Spin Scale   =       1.2000000000000000 [-]
	 SCS Same-Spin Energy      =      -0.0016740259225328 [Eh]
	 SCS Opposite-Spin Energy  =      -0.0192554968893406 [Eh]
	 SCS Correlation Energy    =      -0.0209295228118734 [Eh]
	 SCS Total Energy          =    -161.6970135549764791 [Eh]
	-----------------------------------------------------------

*** Psi4 exiting successfully. Buy a developer a beer!
