                               Psi4 1.8.2 release

  ==> Input File <==

--------------------------------------------------------------------------
MEMORY 60 GB

molecule dimer {
1 1
Na         0.000000     0.000000     0.000000
Gh(O)      1.404702    -0.485518    -1.896445
Gh(H)      1.038745    -1.321937    -2.102680
Gh(H)      1.307717     0.036148    -2.685769
Gh(O)     -1.779006    -0.081116    -1.451137
Gh(H)     -1.861816     0.166913    -2.371670
Gh(H)     -2.628732     0.137084    -0.991427
Gh(O)     -0.705629    -1.885287     0.969773
Gh(H)     -1.640917    -1.977294     0.921356
Gh(H)     -0.341296    -2.802783     1.169197
Gh(O)     -0.020124     2.263140    -0.701517
Gh(H)      0.750889     2.324265    -1.265418
Gh(H)     -0.815691     2.319251    -1.249151

units ang
no_reorient
no_com
symmetry c1
}

set {
basis        aug-cc-pVTZ
scf_type     df
}

energy("mp2")
--------------------------------------------------------------------------

    Molecular point group: c1

    Geometry (in Angstrom), charge = 1, multiplicity = 1:

       Center              X                  Y                   Z               Mass
    ------------   -----------------  -----------------  -----------------  -----------------
         NA           0.000000000000     0.000000000000     0.000000000000    22.989769282000
      Gh(O)           1.404702000000    -0.485518000000    -1.896445000000    15.994914619570
      Gh(H)           1.038745000000    -1.321937000000    -2.102680000000     1.007825032230
      Gh(H)           1.307717000000     0.036148000000    -2.685769000000     1.007825032230
      Gh(O)          -1.779006000000    -0.081116000000    -1.451137000000    15.994914619570
      Gh(H)          -1.861816000000     0.166913000000    -2.371670000000     1.007825032230
      Gh(H)          -2.628732000000     0.137084000000    -0.991427000000     1.007825032230
      Gh(O)          -0.705629000000    -1.885287000000     0.969773000000    15.994914619570
      Gh(H)          -1.640917000000    -1.977294000000     0.921356000000     1.007825032230
      Gh(H)          -0.341296000000    -2.802783000000     1.169197000000     1.007825032230
      Gh(O)          -0.020124000000     2.263140000000    -0.701517000000    15.994914619570
      Gh(H)           0.750889000000     2.324265000000    -1.265418000000     1.007825032230
      Gh(H)          -0.815691000000     2.319251000000    -1.249151000000     1.007825032230

  Charge       = 1
  Multiplicity = 1
  Basis Set: AUG-CC-PVTZ
    Blend: AUG-CC-PVTZ
  Basis Set: (AUG-CC-PVTZ AUX)
    Blend: AUG-CC-PVTZ-JKFIT + DEF2-UNIVERSAL-JKFIT

    Orbital Energies [Eh]
    ---------------------

    Doubly Occupied:

       1A    -40.760567     2A     -3.073871     3A     -1.797244
       4A     -1.797184     5A     -1.797176

  @DF-RHF Final Energy:  -161.67608560427450

   => Energetics <=

    Nuclear Repulsion Energy =              0.0000000000000000
    One-Electron Energy =                -224.9000871050703836
    Two-Electron Energy =                  63.2240015007958647
    Total Energy =                       -161.6760856042745331
 Dipole X            :         -0.0001153            0.0000000           -0.0001153
 Dipole Y            :         -0.0000012            0.0000000           -0.0000012
 Dipole Z            :         -0.0002061            0.0000000           -0.0002061
 Magnitude           :                                                    0.0002362
  Basis Set: (AUG-CC-PVTZ AUX)
    Blend: AUG-CC-PVTZ-RI + DEF2-QZVPP-RI
	 Reference Energy          =    -161.6760856042745047 [Eh]
	 Singles Energy            =      -0.0000000000000000 [Eh]
	 Same-Spin Energy          =      -0.0056746603804496 [Eh]
	 Opposite-Spin Energy      =      -0.0176910300320393 [Eh]
	 Correlation Energy        =      -0.0233656904124889 [Eh]
	 Total Energy              =    -161.6994512946869804 [Eh]

	 ================> DF-SCS-MP2 Energies <==================
	-----------------------------------------------------------
	 SCS Same-Spin Scale       =       0.3333333333333333 [-]
	 SCS Opposite-Spin Scale   =       1.2000000000000000 [-]
	 SCS Same-Spin Energy      =      -0.0018915534601499 [Eh]
	 SCS Opposite-Spin Energy  =      -0.0212292360384472 [Eh]
	 SCS Correlation Energy    =      -0.0231207894985970 [Eh]
	 SCS Total Energy          =    -161.6992063937730961 [Eh]
	-----------------------------------------------------------

*** Psi4 exiting successfully. Buy a developer a beer!
