                               Psi4 1.9 release

  ==> Input File <==

--------------------------------------------------------------------------
MEMORY 60 GB

molecule dimer {
1 1
Na     0.000000     0.000000     0.000000
--
0 1
O     -0.180563    -2.182435    -1.037186
H     -0.065729    -2.790783    -0.341971
H      0.562536    -2.355411    -1.643452
O     -2.000451     0.701464     1.294659
H     -2.079251     1.430673     1.914902
H     -2.917867     0.429247     1.133965
O      2.097239    -0.812440     1.323753
H      2.024424    -0.994505     2.233103
H      2.996688    -0.460673     1.257813
O     -1.974202     0.884704    -1.534663
H     -1.703341     1.810095    -1.514027
H     -2.843633     0.881741    -1.122339
O      1.776401     0.618314    -1.270304
H      1.704603     0.388928    -2.211294
H      1.922183     1.547468    -1.244006

units ang
no_reorient
no_com
symmetry c1
}

set {
basis        aug-cc-pVTZ
scf_type     df
}

energy("mp2", bsse_type="cp")
--------------------------------------------------------------------------

                               Psi4 1.9 release
    Molecular point group: c1
  Charge       = 0
  Multiplicity = 1
  Basis Set: AUG-CC-PVTZ
    Blend: AUG-CC-PVTZ
  Basis Set: (AUG-CC-PVTZ AUX)
    Blend: AUG-CC-PVTZ-JKFIT + DEF2-UNIVERSAL-JKFIT
  @DF-RHF Final Energy:  -380.27777689821011
    Total Energy =                       -380.2777768982101065
 Dipole X            :          5.1578018           -5.0115442            0.1462576
 Dipole Y            :         13.1166119          -12.1629652            0.9536467
 Dipole Z            :         22.0725640          -21.4053700            0.6671940
 Magnitude           :                                                    1.1730222
  Basis Set: (AUG-CC-PVTZ AUX)
    Blend: AUG-CC-PVTZ-RI + DEF2-QZVPP-RI
	 Reference Energy          =    -380.2777768982101065 [Eh]
	 Singles Energy            =      -0.0000000000000000 [Eh]
	 Same-Spin Energy          =      -0.3449660551804264 [Eh]
	 Opposite-Spin Energy      =      -1.0828768383435714 [Eh]
	 Correlation Energy        =      -1.4278428935239977 [Eh]
	 Total Energy              =    -381.7056197917340796 [Eh]
	 SCS Total Energy          =    -381.6922177892825516 [Eh]
                               Psi4 1.9 release
    Molecular point group: c1
  Multiplicity = 1
  Basis Set: AUG-CC-PVTZ
    Blend: AUG-CC-PVTZ
  Basis Set: (AUG-CC-PVTZ AUX)
    Blend: AUG-CC-PVTZ-JKFIT + DEF2-UNIVERSAL-JKFIT
  @DF-RHF Final Energy:  -161.67608800876451
    Total Energy =                       -161.6760880087645091
  Basis Set: (AUG-CC-PVTZ AUX)
	 Singles Energy            =      -0.0000000000000000 [Eh]
	 Same-Spin Energy          =      -0.0058392440135148 [Eh]
	 Opposite-Spin Energy      =      -0.0181300846608913 [Eh]
	 Correlation Energy        =      -0.0239693286744061 [Eh]
	 Total Energy              =    -161.7000573374389205 [Eh]
	 SCS Total Energy          =    -161.6997905250287602 [Eh]
                               Psi4 1.9 release
    Molecular point group: c1

    Geometry (in Bohr), charge = 1, multiplicity = 1:

       Center              X                  Y                   Z               Mass
    ------------   -----------------  -----------------  -----------------  -----------------
         NA           0.000000000000     0.000000000000     0.000000000000    22.989769282000
         O           -0.341214618391    -4.124204436614    -1.959997481159    15.994914619570
         H           -0.124209808500    -5.273815545584    -0.646231532849     1.007825032230
         H            1.063038975711    -4.451081702891    -3.105674180336     1.007825032230
         O           -3.780304517398     1.325574846868     2.446550935859    15.994914619570
         H           -3.929214936084     2.703580145087     3.618640337091     1.007825032230
         H           -5.513969500511     0.811159270174     2.142883285855     1.007825032230
         O            3.963207329629    -1.535289093367     2.501530627753    15.994914619570
         H            3.825606921804    -1.879342080398     4.219953079938     1.007825032230
         H            5.662919603446    -0.870545803393     2.376922087040     1.007825032230
         O           -3.730701096331     1.671848262097    -2.900092764873    15.994914619570
         H           -3.218847988263     3.420583811061    -2.861096376549     1.007825032230
         H           -5.373687571314     1.666249003587    -2.120913329920     1.007825032230
         O            3.356911378989     1.168444119536    -2.400526656074    15.994914619570
         H            3.221232822634     0.734967402522    -4.178740042868     1.007825032230
         H            3.632399433011     2.924290707910    -2.350830638426     1.007825032230

  Charge       = 1
  Multiplicity = 1
  Basis Set: AUG-CC-PVTZ
    Blend: AUG-CC-PVTZ
  Basis Set: (AUG-CC-PVTZ AUX)
    Blend: AUG-CC-PVTZ-JKFIT + DEF2-UNIVERSAL-JKFIT

    Orbital Energies [Eh]
    ---------------------

    Doubly Occupied:

       1A    -40.567514     2A    -20.729972     3A    -20.729067
       4A    -20.709566     5A    -20.707940     6A    -20.705283
       7A     -2.888420     8A     -1.614117     9A     -1.612826
      10A     -1.611452    11A     -1.521477    12A     -1.514172
      13A     -1.504235    14A     -1.500622    15A     -1.489999
      16A     -0.888087    17A     -0.877629    18A     -0.864293
      19A     -0.861164    20A     -0.852080    21A     -0.765697
      22A     -0.760644    23A     -0.739185    24A     -0.736947
      25A     -0.725200    26A     -0.685279    27A     -0.682222
      28A     -0.660848    29A     -0.656991    30A     -0.642526

  @DF-RHF Final Energy:  -542.08758182506620

   => Energetics <=

    Nuclear Repulsion Energy =            296.3061317877407532
    One-Electron Energy =               -1335.1765134889856199
    Two-Electron Energy =                 496.7827998761787285
    Total Energy =                       -542.0875818250661951
 Dipole X            :          5.1693446           -5.0115442            0.1578003
 Dipole Y            :         13.0669834          -12.1629652            0.9040182
 Dipole Z            :         21.9346827          -21.4053700            0.5293127
 Magnitude           :                                                    1.0593969
  Basis Set: (AUG-CC-PVTZ AUX)
    Blend: AUG-CC-PVTZ-RI + DEF2-QZVPP-RI
	 Reference Energy          =    -542.0875818250661951 [Eh]
	 Singles Energy            =      -0.0000000000000000 [Eh]
	 Same-Spin Energy          =      -0.3497336923152420 [Eh]
	 Opposite-Spin Energy      =      -1.0955492121991477 [Eh]
	 Correlation Energy        =      -1.4452829045143898 [Eh]
	 Total Energy              =    -543.5328647295806377 [Eh]

	 ================> DF-SCS-MP2 Energies <==================
	-----------------------------------------------------------
	 SCS Same-Spin Scale       =       0.3333333333333333 [-]
	 SCS Opposite-Spin Scale   =       1.2000000000000000 [-]
	 SCS Same-Spin Energy      =      -0.1165778974384140 [Eh]
	 SCS Opposite-Spin Energy  =      -1.3146590546389771 [Eh]
	 SCS Correlation Energy    =      -1.4312369520773911 [Eh]
	 SCS Total Energy          =    -543.5188187771435651 [Eh]
	-----------------------------------------------------------

*** Psi4 exiting successfully. Buy a developer a beer!
