                               Psi4 1.8.2 release

  ==> Input File <==

--------------------------------------------------------------------------
MEMORY 60 GB

molecule dimer {
0 1
Gh(Na)     0.000000     0.000000     0.000000
Gh(O)     -1.476289     1.000580    -1.680201
Gh(H)     -1.347957     0.330310    -2.372440
Gh(H)     -2.429876     1.119469    -1.591365
O          2.003211     0.161049    -1.174825
H          2.679153     0.338854    -0.470757
H          1.973185     0.976483    -1.680248
Gh(O)     -0.163112     1.557536     1.551695
Gh(H)      0.623683     2.047554     1.538014
Gh(H)     -0.465897     1.324097     2.431350
Gh(O)     -1.395492    -1.854519    -0.938929
Gh(H)     -1.529696    -2.656867    -0.415875
Gh(H)     -1.708751    -2.067533    -1.827479
Gh(O)      1.140018    -1.255107     1.603180
Gh(H)      2.012796    -1.642493     1.425109
Gh(H)      1.148354    -1.258433     2.534760

units ang
no_reorient
no_com
symmetry c1
}

set {
basis        aug-cc-pVTZ
scf_type     df
}

energy("mp2")
--------------------------------------------------------------------------

    Molecular point group: c1

    Geometry (in Angstrom), charge = 0, multiplicity = 1:

       Center              X                  Y                   Z               Mass
    ------------   -----------------  -----------------  -----------------  -----------------
      Gh(NA)          0.000000000000     0.000000000000     0.000000000000    22.989769282000
      Gh(O)          -1.476289000000     1.000580000000    -1.680201000000    15.994914619570
      Gh(H)          -1.347957000000     0.330310000000    -2.372440000000     1.007825032230
      Gh(H)          -2.429876000000     1.119469000000    -1.591365000000     1.007825032230
         O            2.003211000000     0.161049000000    -1.174825000000    15.994914619570
         H            2.679153000000     0.338854000000    -0.470757000000     1.007825032230
         H            1.973185000000     0.976483000000    -1.680248000000     1.007825032230
      Gh(O)          -0.163112000000     1.557536000000     1.551695000000    15.994914619570
      Gh(H)           0.623683000000     2.047554000000     1.538014000000     1.007825032230
      Gh(H)          -0.465897000000     1.324097000000     2.431350000000     1.007825032230
      Gh(O)          -1.395492000000    -1.854519000000    -0.938929000000    15.994914619570
      Gh(H)          -1.529696000000    -2.656867000000    -0.415875000000     1.007825032230
      Gh(H)          -1.708751000000    -2.067533000000    -1.827479000000     1.007825032230
      Gh(O)           1.140018000000    -1.255107000000     1.603180000000    15.994914619570
      Gh(H)           2.012796000000    -1.642493000000     1.425109000000     1.007825032230
      Gh(H)           1.148354000000    -1.258433000000     2.534760000000     1.007825032230

  Charge       = 0
  Multiplicity = 1
  Basis Set: AUG-CC-PVTZ
    Blend: AUG-CC-PVTZ
  Basis Set: (AUG-CC-PVTZ AUX)
    Blend: AUG-CC-PVTZ-JKFIT + DEF2-UNIVERSAL-JKFIT

    Orbital Energies [Eh]
    ---------------------

    Doubly Occupied:

       1A    -20.570392     2A     -1.344564     3A     -0.706792
       4A     -0.582040     5A     -0.508977

  @DF-RHF Final Energy:   -76.05837588278132

   => Energetics <=

    Nuclear Repulsion Energy =              9.0216665005084327
    One-Electron Energy =                -122.7345517221892806
    Two-Electron Energy =                  37.6545093388995440
    Total Energy =                        -76.0583758827813057
 Dipole X            :        -38.6541988           39.0758060            0.4216071
 Dipole Y            :         -4.2661106            4.9203347            0.6542241
 Dipole Z            :         21.9514016          -21.8255903            0.1258113
 Magnitude           :                                                    0.7884099
  Basis Set: (AUG-CC-PVTZ AUX)
    Blend: AUG-CC-PVTZ-RI + DEF2-QZVPP-RI
	 Reference Energy          =     -76.0583758827813199 [Eh]
	 Singles Energy            =      -0.0000000000000000 [Eh]
	 Same-Spin Energy          =      -0.0687521543159010 [Eh]
	 Opposite-Spin Energy      =      -0.2169221050561517 [Eh]
	 Correlation Energy        =      -0.2856742593720527 [Eh]
	 Total Energy              =     -76.3440501421533781 [Eh]

	 ================> DF-SCS-MP2 Energies <==================
	-----------------------------------------------------------
	 SCS Same-Spin Scale       =       0.3333333333333333 [-]
	 SCS Opposite-Spin Scale   =       1.2000000000000000 [-]
	 SCS Same-Spin Energy      =      -0.0229173847719670 [Eh]
	 SCS Opposite-Spin Energy  =      -0.2603065260673821 [Eh]
	 SCS Correlation Energy    =      -0.2832239108393491 [Eh]
	 SCS Total Energy          =     -76.3415997936206736 [Eh]
	-----------------------------------------------------------

*** Psi4 exiting successfully. Buy a developer a beer!
