                               Psi4 1.8.2 release

  ==> Input File <==

--------------------------------------------------------------------------
MEMORY 60 GB

molecule dimer {
0 1
Gh(Na)     0.000000     0.000000     0.000000
O          1.442910    -1.615519    -0.724539
H          2.256766    -1.142850    -0.890378
H          1.587192    -2.224263     0.048492
Gh(O)     -0.953321     0.932193    -1.763865
Gh(H)     -1.633057     1.511012    -1.396330
Gh(H)     -0.910682     1.229146    -2.659653
Gh(O)     -0.002406     0.246926     2.384799
Gh(H)      0.732056    -0.107898     2.849308
Gh(H)      0.173253     1.192445     2.308746
Gh(O)      2.128873     1.405530     0.211056
Gh(H)      2.986769     1.017955     0.261027
Gh(H)      2.073410     1.856766    -0.680462
Gh(O)     -2.115569    -0.327278     0.500773
Gh(H)     -2.586886    -0.082643    -0.302497
Gh(H)     -2.583910     0.063951     1.259491

units ang
no_reorient
no_com
symmetry c1
}

set {
basis        aug-cc-pVTZ
scf_type     df
}

energy("mp2")
--------------------------------------------------------------------------

    Molecular point group: c1

    Geometry (in Angstrom), charge = 0, multiplicity = 1:

       Center              X                  Y                   Z               Mass
    ------------   -----------------  -----------------  -----------------  -----------------
      Gh(NA)          0.000000000000     0.000000000000     0.000000000000    22.989769282000
         O            1.442910000000    -1.615519000000    -0.724539000000    15.994914619570
         H            2.256766000000    -1.142850000000    -0.890378000000     1.007825032230
         H            1.587192000000    -2.224263000000     0.048492000000     1.007825032230
      Gh(O)          -0.953321000000     0.932193000000    -1.763865000000    15.994914619570
      Gh(H)          -1.633057000000     1.511012000000    -1.396330000000     1.007825032230
      Gh(H)          -0.910682000000     1.229146000000    -2.659653000000     1.007825032230
      Gh(O)          -0.002406000000     0.246926000000     2.384799000000    15.994914619570
      Gh(H)           0.732056000000    -0.107898000000     2.849308000000     1.007825032230
      Gh(H)           0.173253000000     1.192445000000     2.308746000000     1.007825032230
      Gh(O)           2.128873000000     1.405530000000     0.211056000000    15.994914619570
      Gh(H)           2.986769000000     1.017955000000     0.261027000000     1.007825032230
      Gh(H)           2.073410000000     1.856766000000    -0.680462000000     1.007825032230
      Gh(O)          -2.115569000000    -0.327278000000     0.500773000000    15.994914619570
      Gh(H)          -2.586886000000    -0.082643000000    -0.302497000000     1.007825032230
      Gh(H)          -2.583910000000     0.063951000000     1.259491000000     1.007825032230

  Charge       = 0
  Multiplicity = 1
  Basis Set: AUG-CC-PVTZ
    Blend: AUG-CC-PVTZ
  Basis Set: (AUG-CC-PVTZ AUX)
    Blend: AUG-CC-PVTZ-JKFIT + DEF2-UNIVERSAL-JKFIT

    Orbital Energies [Eh]
    ---------------------

    Doubly Occupied:

       1A    -20.568227     2A     -1.342199     3A     -0.715078
       4A     -0.573972     5A     -0.507738

  @DF-RHF Final Energy:   -76.05805322513633

   => Energetics <=

    Nuclear Repulsion Energy =              9.0215554530380153
    One-Electron Energy =                -122.7447875695657586
    Two-Electron Energy =                  37.6651788913914132
    Total Energy =                        -76.0580532251363195
 Dipole X            :        -28.4375801           29.0776656            0.6400856
 Dipole Y            :         30.6993620          -30.7860291           -0.0866671
 Dipole Z            :         12.9447082          -12.5443762            0.4003320
 Magnitude           :                                                    0.7599253
  Basis Set: (AUG-CC-PVTZ AUX)
    Blend: AUG-CC-PVTZ-RI + DEF2-QZVPP-RI
	 Reference Energy          =     -76.0580532251363337 [Eh]
	 Singles Energy            =      -0.0000000000000000 [Eh]
	 Same-Spin Energy          =      -0.0686721992996221 [Eh]
	 Opposite-Spin Energy      =      -0.2166954099763920 [Eh]
	 Correlation Energy        =      -0.2853676092760142 [Eh]
	 Total Energy              =     -76.3434208344123419 [Eh]

	 ================> DF-SCS-MP2 Energies <==================
	-----------------------------------------------------------
	 SCS Same-Spin Scale       =       0.3333333333333333 [-]
	 SCS Opposite-Spin Scale   =       1.2000000000000000 [-]
	 SCS Same-Spin Energy      =      -0.0228907330998740 [Eh]
	 SCS Opposite-Spin Energy  =      -0.2600344919716704 [Eh]
	 SCS Correlation Energy    =      -0.2829252250715445 [Eh]
	 SCS Total Energy          =     -76.3409784502078850 [Eh]
	-----------------------------------------------------------

*** Psi4 exiting successfully. Buy a developer a beer!
