                               Psi4 1.9 release

  ==> Input File <==

--------------------------------------------------------------------------
MEMORY 60 GB

molecule dimer {
1 1
Na     0.000000     0.000000     0.000000
--
0 1
O      0.696918    -1.921312     0.995276
H      0.017441    -2.540067     1.231161
H      1.089320    -1.653426     1.863350
O     -0.113164     1.265055     1.982920
H     -0.330778     2.212308     2.012355
H      0.411205     1.113647     2.756034
O     -0.095172     2.270223    -1.051898
H      0.755125     2.726212    -0.865472
H     -0.442846     2.607254    -1.863955
O     -0.540610    -1.206576    -2.092771
H     -0.009866    -2.038275    -1.946300
H     -1.328298    -1.540327    -2.427343

units ang
no_reorient
no_com
symmetry c1
}

set {
basis        aug-cc-pVTZ
scf_type     df
}

energy("mp2", bsse_type="cp")
--------------------------------------------------------------------------

                               Psi4 1.9 release
    Molecular point group: c1
  Charge       = 0
  Multiplicity = 1
  Basis Set: AUG-CC-PVTZ
    Blend: AUG-CC-PVTZ
  Basis Set: (AUG-CC-PVTZ AUX)
    Blend: AUG-CC-PVTZ-JKFIT + DEF2-UNIVERSAL-JKFIT
  @DF-RHF Final Energy:  -304.22551525162089
    Total Energy =                       -304.2255152516208909
 Dipole X            :          0.6185458           -0.4817309            0.1368149
 Dipole Y            :         -7.7682127            7.8356473            0.0674346
 Dipole Z            :          1.7607406           -1.0808364            0.6799042
 Magnitude           :                                                    0.6968037
  Basis Set: (AUG-CC-PVTZ AUX)
    Blend: AUG-CC-PVTZ-RI + DEF2-QZVPP-RI
	 Reference Energy          =    -304.2255152516208909 [Eh]
	 Singles Energy            =      -0.0000000000000000 [Eh]
	 Same-Spin Energy          =      -0.2754821473890021 [Eh]
	 Opposite-Spin Energy      =      -0.8660851954307334 [Eh]
	 Correlation Energy        =      -1.1415673428197355 [Eh]
	 Total Energy              =    -305.3670825944406033 [Eh]
	 SCS Total Energy          =    -305.3566448686007675 [Eh]
                               Psi4 1.9 release
    Molecular point group: c1
  Multiplicity = 1
  Basis Set: AUG-CC-PVTZ
    Blend: AUG-CC-PVTZ
  Basis Set: (AUG-CC-PVTZ AUX)
    Blend: AUG-CC-PVTZ-JKFIT + DEF2-UNIVERSAL-JKFIT
  @DF-RHF Final Energy:  -161.67608054048020
    Total Energy =                       -161.6760805404801999
  Basis Set: (AUG-CC-PVTZ AUX)
	 Singles Energy            =      -0.0000000000000000 [Eh]
	 Same-Spin Energy          =      -0.0052874882340935 [Eh]
	 Opposite-Spin Energy      =      -0.0168299061820729 [Eh]
	 Correlation Energy        =      -0.0221173944161664 [Eh]
	 Total Energy              =    -161.6981979348963705 [Eh]
	 SCS Total Energy          =    -161.6980389239767248 [Eh]
                               Psi4 1.9 release
    Molecular point group: c1

    Geometry (in Bohr), charge = 1, multiplicity = 1:

       Center              X                  Y                   Z               Mass
    ------------   -----------------  -----------------  -----------------  -----------------
         NA           0.000000000000     0.000000000000     0.000000000000    22.989769282000
         O            1.316984151902    -3.630753481556     1.880799059241    15.994914619570
         H            0.032958713354    -4.800030970313     2.326557106345     1.007825032230
         H            2.058516462984    -3.124522308711     3.521221175872     1.007825032230
         O           -0.213848967261     2.390607483641     3.747175728693    15.994914619570
         H           -0.625079828327     4.180656225159     3.802799817196     1.007825032230
         H            0.777064831419     2.104487830438     5.208149452450     1.007825032230
         O           -0.179849014812     4.290099713715    -1.987799131917    15.994914619570
         H            1.426979440486     5.151794039937    -1.635505049252     1.007825032230
         H           -0.836857655754     4.926995999504    -3.522364460178     1.007825032230
         O           -1.021604840684    -2.280098189550    -3.954764033301    15.994914619570
         H           -0.018644037954    -3.851781518368    -3.677973957979     1.007825032230
         H           -2.510119432993    -2.910796173648    -4.587013482547     1.007825032230

  Charge       = 1
  Multiplicity = 1
  Basis Set: AUG-CC-PVTZ
    Blend: AUG-CC-PVTZ
  Basis Set: (AUG-CC-PVTZ AUX)
    Blend: AUG-CC-PVTZ-JKFIT + DEF2-UNIVERSAL-JKFIT

    Orbital Energies [Eh]
    ---------------------

    Doubly Occupied:

       1A    -40.584411     2A    -20.746465     3A    -20.736200
       4A    -20.722878     5A    -20.721207     6A     -2.905658
       7A     -1.630582     8A     -1.630206     9A     -1.629522
      10A     -1.529436    11A     -1.524021    12A     -1.513239
      13A     -1.504220    14A     -0.892186    15A     -0.887255
      16A     -0.876835    17A     -0.869576    18A     -0.774412
      19A     -0.770650    20A     -0.754229    21A     -0.741404
      22A     -0.696256    23A     -0.684593    24A     -0.671209
      25A     -0.667684

  @DF-RHF Final Energy:  -466.02013429013255

   => Energetics <=

    Nuclear Repulsion Energy =            211.1752684713829922
    One-Electron Energy =               -1061.0621291913018922
    Two-Electron Energy =                 383.8667264297863539
    Total Energy =                       -466.0201342901325461
 Dipole X            :          0.6314688           -0.4817309            0.1497380
 Dipole Y            :         -7.7415070            7.8356473            0.0941403
 Dipole Z            :          1.8193984           -1.0808364            0.7385620
 Magnitude           :                                                    0.7594456
  Basis Set: (AUG-CC-PVTZ AUX)
    Blend: AUG-CC-PVTZ-RI + DEF2-QZVPP-RI
	 Reference Energy          =    -466.0201342901325461 [Eh]
	 Singles Energy            =      -0.0000000000000000 [Eh]
	 Same-Spin Energy          =      -0.2797048951965326 [Eh]
	 Opposite-Spin Energy      =      -0.8778261827970947 [Eh]
	 Correlation Energy        =      -1.1575310779936272 [Eh]
	 Total Energy              =    -467.1776653681261564 [Eh]

	 ================> DF-SCS-MP2 Energies <==================
	-----------------------------------------------------------
	 SCS Same-Spin Scale       =       0.3333333333333333 [-]
	 SCS Opposite-Spin Scale   =       1.2000000000000000 [-]
	 SCS Same-Spin Energy      =      -0.0932349650655109 [Eh]
	 SCS Opposite-Spin Energy  =      -1.0533914193565135 [Eh]
	 SCS Correlation Energy    =      -1.1466263844220244 [Eh]
	 SCS Total Energy          =    -467.1667606745545527 [Eh]
	-----------------------------------------------------------

*** Psi4 exiting successfully. Buy a developer a beer!
