                               Psi4 1.8.2 release

  ==> Input File <==

--------------------------------------------------------------------------
MEMORY 60 GB

molecule dimer {
1 1
Na         0.000000     0.000000     0.000000
O         -0.177744    -2.178850    -0.553539
H         -0.869295    -2.621709    -0.135058
H         -0.313895    -2.582009    -1.441257
O          2.093826     0.024601     0.755933
H          2.129969     0.591241     1.585698
H          3.029505     0.110000     0.406142
O          0.203324     2.325177     0.292567
H          0.391095     2.453879     1.209027
H         -0.303688     3.155131     0.044815
O          0.320390     0.773751    -2.164870
H          0.455080     1.775417    -2.130367
H          0.649183     0.464819    -3.037165
O         -1.390357     0.611765     2.061121
H         -1.634301     1.509377     2.361661
H         -2.142878     0.044850     2.278362

units ang
no_reorient
no_com
symmetry c1
}

set {
basis        aug-cc-pVTZ
scf_type     df
}

energy("mp2")
--------------------------------------------------------------------------

    Molecular point group: c1

    Geometry (in Angstrom), charge = 1, multiplicity = 1:

       Center              X                  Y                   Z               Mass
    ------------   -----------------  -----------------  -----------------  -----------------
         NA           0.000000000000     0.000000000000     0.000000000000    22.989769282000
         O           -0.177744000000    -2.178850000000    -0.553539000000    15.994914619570
         H           -0.869295000000    -2.621709000000    -0.135058000000     1.007825032230
         H           -0.313895000000    -2.582009000000    -1.441257000000     1.007825032230
         O            2.093826000000     0.024601000000     0.755933000000    15.994914619570
         H            2.129969000000     0.591241000000     1.585698000000     1.007825032230
         H            3.029505000000     0.110000000000     0.406142000000     1.007825032230
         O            0.203324000000     2.325177000000     0.292567000000    15.994914619570
         H            0.391095000000     2.453879000000     1.209027000000     1.007825032230
         H           -0.303688000000     3.155131000000     0.044815000000     1.007825032230
         O            0.320390000000     0.773751000000    -2.164870000000    15.994914619570
         H            0.455080000000     1.775417000000    -2.130367000000     1.007825032230
         H            0.649183000000     0.464819000000    -3.037165000000     1.007825032230
         O           -1.390357000000     0.611765000000     2.061121000000    15.994914619570
         H           -1.634301000000     1.509377000000     2.361661000000     1.007825032230
         H           -2.142878000000     0.044850000000     2.278362000000     1.007825032230

  Charge       = 1
  Multiplicity = 1
  Basis Set: AUG-CC-PVTZ
    Blend: AUG-CC-PVTZ
  Basis Set: (AUG-CC-PVTZ AUX)
    Blend: AUG-CC-PVTZ-JKFIT + DEF2-UNIVERSAL-JKFIT

    Orbital Energies [Eh]
    ---------------------

    Doubly Occupied:

       1A    -40.535800     2A    -20.728553     3A    -20.723468
       4A    -20.718363     5A    -20.718264     6A    -20.712080
       7A     -2.860236     8A     -1.587082     9A     -1.585728
      10A     -1.584440    11A     -1.515484    12A     -1.510930
      13A     -1.501253    14A     -1.479878    15A     -1.476050
      16A     -0.876974    17A     -0.865929    18A     -0.855522
      19A     -0.845099    20A     -0.834939    21A     -0.768357
      22A     -0.757543    23A     -0.745441    24A     -0.738677
      25A     -0.727087    26A     -0.680388    27A     -0.669630
      28A     -0.663161    29A     -0.656188    30A     -0.650020

  @DF-RHF Final Energy:  -542.07701497057155

   => Energetics <=

    Nuclear Repulsion Energy =            308.2146988318435774
    One-Electron Energy =               -1359.4382931623183595
    Two-Electron Energy =                 509.1465793599031144
    Total Energy =                       -542.0770149705715539
 Dipole X            :        -18.8557734           18.4934022           -0.3623712
 Dipole Y            :        -31.5370967           32.7915633            1.2544666
 Dipole Z            :         -7.8394552            8.0720672            0.2326120
 Magnitude           :                                                    1.3263136
  Basis Set: (AUG-CC-PVTZ AUX)
    Blend: AUG-CC-PVTZ-RI + DEF2-QZVPP-RI
	 Reference Energy          =    -542.0770149705715539 [Eh]
	 Singles Energy            =      -0.0000000000000000 [Eh]
	 Same-Spin Energy          =      -0.3529996086858875 [Eh]
	 Opposite-Spin Energy      =      -1.1034870528877403 [Eh]
	 Correlation Energy        =      -1.4564866615736278 [Eh]
	 Total Energy              =    -543.5335016321452031 [Eh]

	 ================> DF-SCS-MP2 Energies <==================
	-----------------------------------------------------------
	 SCS Same-Spin Scale       =       0.3333333333333333 [-]
	 SCS Opposite-Spin Scale   =       1.2000000000000000 [-]
	 SCS Same-Spin Energy      =      -0.1176665362286292 [Eh]
	 SCS Opposite-Spin Energy  =      -1.3241844634652884 [Eh]
	 SCS Correlation Energy    =      -1.4418509996939175 [Eh]
	 SCS Total Energy          =    -543.5188659702654377 [Eh]
	-----------------------------------------------------------

*** Psi4 exiting successfully. Buy a developer a beer!
