                               Psi4 1.8.2 release

  ==> Input File <==

--------------------------------------------------------------------------
MEMORY 60 GB

molecule dimer {
1 1
Na         0.000000     0.000000     0.000000
Gh(O)     -0.033562     0.651864    -2.283036
Gh(H)      0.894796     0.893756    -2.460802
Gh(H)     -0.574548     1.432965    -2.476385
Gh(O)      2.159584    -0.736393     0.244526
Gh(H)      2.484224    -0.797737    -0.668585
Gh(H)      2.769476    -0.050577     0.618321
Gh(O)      1.010079     1.997128     0.381980
Gh(H)      1.335088     1.941477     1.298553
Gh(H)      1.836526     2.246424    -0.124748
Gh(O)     -0.693443    -2.201180    -0.087038
Gh(H)     -1.384165    -2.200407     0.626177
Gh(H)     -1.159158    -2.555826    -0.870984
Gh(O)     -0.562174    -0.147253     2.221974
Gh(H)      0.059516    -0.569628     2.892423
Gh(H)     -0.988942     0.664075     2.631446
Gh(O)     -2.540820     0.600282    -0.110639
Gh(H)     -2.964940    -0.234719     0.142310
Gh(H)     -2.996517     1.319936     0.377222

units ang
no_reorient
no_com
symmetry c1
}

set {
basis        aug-cc-pVTZ
scf_type     df
}

energy("mp2")
--------------------------------------------------------------------------

    Molecular point group: c1

    Geometry (in Angstrom), charge = 1, multiplicity = 1:

       Center              X                  Y                   Z               Mass
    ------------   -----------------  -----------------  -----------------  -----------------
         NA           0.000000000000     0.000000000000     0.000000000000    22.989769282000
      Gh(O)          -0.033562000000     0.651864000000    -2.283036000000    15.994914619570
      Gh(H)           0.894796000000     0.893756000000    -2.460802000000     1.007825032230
      Gh(H)          -0.574548000000     1.432965000000    -2.476385000000     1.007825032230
      Gh(O)           2.159584000000    -0.736393000000     0.244526000000    15.994914619570
      Gh(H)           2.484224000000    -0.797737000000    -0.668585000000     1.007825032230
      Gh(H)           2.769476000000    -0.050577000000     0.618321000000     1.007825032230
      Gh(O)           1.010079000000     1.997128000000     0.381980000000    15.994914619570
      Gh(H)           1.335088000000     1.941477000000     1.298553000000     1.007825032230
      Gh(H)           1.836526000000     2.246424000000    -0.124748000000     1.007825032230
      Gh(O)          -0.693443000000    -2.201180000000    -0.087038000000    15.994914619570
      Gh(H)          -1.384165000000    -2.200407000000     0.626177000000     1.007825032230
      Gh(H)          -1.159158000000    -2.555826000000    -0.870984000000     1.007825032230
      Gh(O)          -0.562174000000    -0.147253000000     2.221974000000    15.994914619570
      Gh(H)           0.059516000000    -0.569628000000     2.892423000000     1.007825032230
      Gh(H)          -0.988942000000     0.664075000000     2.631446000000     1.007825032230
      Gh(O)          -2.540820000000     0.600282000000    -0.110639000000    15.994914619570
      Gh(H)          -2.964940000000    -0.234719000000     0.142310000000     1.007825032230
      Gh(H)          -2.996517000000     1.319936000000     0.377222000000     1.007825032230

  Charge       = 1
  Multiplicity = 1
  Basis Set: AUG-CC-PVTZ
    Blend: AUG-CC-PVTZ
  Basis Set: (AUG-CC-PVTZ AUX)
    Blend: AUG-CC-PVTZ-JKFIT + DEF2-UNIVERSAL-JKFIT

    Orbital Energies [Eh]
    ---------------------

    Doubly Occupied:

       1A    -40.760332     2A     -3.073750     3A     -1.797109
       4A     -1.797100     5A     -1.797089

  @DF-RHF Final Energy:  -161.67609858855690

   => Energetics <=

    Nuclear Repulsion Energy =              0.0000000000000000
    One-Electron Energy =                -224.9014379295807373
    Two-Electron Energy =                  63.2253393410238331
    Total Energy =                       -161.6760985885568971
 Dipole X            :         -0.0000568            0.0000000           -0.0000568
 Dipole Y            :          0.0000325            0.0000000            0.0000325
 Dipole Z            :          0.0000192            0.0000000            0.0000192
 Magnitude           :                                                    0.0000682
  Basis Set: (AUG-CC-PVTZ AUX)
    Blend: AUG-CC-PVTZ-RI + DEF2-QZVPP-RI
	 Reference Energy          =    -161.6760985885568971 [Eh]
	 Singles Energy            =      -0.0000000000000000 [Eh]
	 Same-Spin Energy          =      -0.0075096663977547 [Eh]
	 Opposite-Spin Energy      =      -0.0223943417159828 [Eh]
	 Correlation Energy        =      -0.0299040081137375 [Eh]
	 Total Energy              =    -161.7060025966706291 [Eh]

	 ================> DF-SCS-MP2 Energies <==================
	-----------------------------------------------------------
	 SCS Same-Spin Scale       =       0.3333333333333333 [-]
	 SCS Opposite-Spin Scale   =       1.2000000000000000 [-]
	 SCS Same-Spin Energy      =      -0.0025032221325849 [Eh]
	 SCS Opposite-Spin Energy  =      -0.0268732100591794 [Eh]
	 SCS Correlation Energy    =      -0.0293764321917643 [Eh]
	 SCS Total Energy          =    -161.7054750207486506 [Eh]
	-----------------------------------------------------------

*** Psi4 exiting successfully. Buy a developer a beer!
