                               Psi4 1.8.2 release

  ==> Input File <==

--------------------------------------------------------------------------
MEMORY 60 GB

molecule dimer {
1 1
Na         0.000000     0.000000     0.000000
O          1.253579     0.063260    -2.196883
H          0.530569    -0.042832    -2.850777
H          1.564699     0.980568    -2.311182
O         -1.425901     1.291559    -1.588414
H         -2.039556     2.035442    -1.483596
H         -1.231776     1.193012    -2.572110
O          1.955432     0.647696     0.920318
H          2.748734     0.681493     0.364928
H          2.082270     1.398481     1.485384
O         -1.171308     1.996727     1.191900
H         -0.733170     1.943359     2.043845
H         -0.778785     2.688259     0.685134
O         -1.590268    -1.637366     0.582324
H         -1.565435    -2.598292     0.444562
H         -2.397617    -1.328886     0.147644
O          1.193429    -2.328553     0.401489
H          1.334662    -2.417231     1.342880
H          0.959023    -3.262843     0.115842

units ang
no_reorient
no_com
symmetry c1
}

set {
basis        aug-cc-pVTZ
scf_type     df
}

energy("mp2")
--------------------------------------------------------------------------

    Molecular point group: c1

    Geometry (in Angstrom), charge = 1, multiplicity = 1:

       Center              X                  Y                   Z               Mass
    ------------   -----------------  -----------------  -----------------  -----------------
         NA           0.000000000000     0.000000000000     0.000000000000    22.989769282000
         O            1.253579000000     0.063260000000    -2.196883000000    15.994914619570
         H            0.530569000000    -0.042832000000    -2.850777000000     1.007825032230
         H            1.564699000000     0.980568000000    -2.311182000000     1.007825032230
         O           -1.425901000000     1.291559000000    -1.588414000000    15.994914619570
         H           -2.039556000000     2.035442000000    -1.483596000000     1.007825032230
         H           -1.231776000000     1.193012000000    -2.572110000000     1.007825032230
         O            1.955432000000     0.647696000000     0.920318000000    15.994914619570
         H            2.748734000000     0.681493000000     0.364928000000     1.007825032230
         H            2.082270000000     1.398481000000     1.485384000000     1.007825032230
         O           -1.171308000000     1.996727000000     1.191900000000    15.994914619570
         H           -0.733170000000     1.943359000000     2.043845000000     1.007825032230
         H           -0.778785000000     2.688259000000     0.685134000000     1.007825032230
         O           -1.590268000000    -1.637366000000     0.582324000000    15.994914619570
         H           -1.565435000000    -2.598292000000     0.444562000000     1.007825032230
         H           -2.397617000000    -1.328886000000     0.147644000000     1.007825032230
         O            1.193429000000    -2.328553000000     0.401489000000    15.994914619570
         H            1.334662000000    -2.417231000000     1.342880000000     1.007825032230
         H            0.959023000000    -3.262843000000     0.115842000000     1.007825032230

  Charge       = 1
  Multiplicity = 1
  Basis Set: AUG-CC-PVTZ
    Blend: AUG-CC-PVTZ
  Basis Set: (AUG-CC-PVTZ AUX)
    Blend: AUG-CC-PVTZ-JKFIT + DEF2-UNIVERSAL-JKFIT

    Orbital Energies [Eh]
    ---------------------

    Doubly Occupied:

       1A    -40.540269     2A    -20.728110     3A    -20.723391
       4A    -20.718470     5A    -20.707959     6A    -20.705877
       7A    -20.693643     8A     -2.862170     9A     -1.588571
      10A     -1.586779    11A     -1.585665    12A     -1.513507
      13A     -1.501525    14A     -1.496853    15A     -1.491806
      16A     -1.487717    17A     -1.468173    18A     -0.880064
      19A     -0.870210    20A     -0.866710    21A     -0.854521
      22A     -0.853454    23A     -0.827506    24A     -0.763067
      25A     -0.746758    26A     -0.733548    27A     -0.731353
      28A     -0.721404    29A     -0.711081    30A     -0.678227
      31A     -0.670850    32A     -0.659844    33A     -0.656542
      34A     -0.653647    35A     -0.630572

  @DF-RHF Final Energy:  -618.14708461321993

   => Energetics <=

    Nuclear Repulsion Energy =            400.5542463738572678
    One-Electron Energy =               -1647.5829710141429132
    Two-Electron Energy =                 628.8816400270657141
    Total Energy =                       -618.1470846132199313
 Dipole X            :         -4.0612078            4.1447779            0.0835701
 Dipole Y            :         -2.0785526            2.9047245            0.8261719
 Dipole Z            :         14.5055896          -15.3097560           -0.8041665
 Magnitude           :                                                    1.1559532
  Basis Set: (AUG-CC-PVTZ AUX)
    Blend: AUG-CC-PVTZ-RI + DEF2-QZVPP-RI
	 Reference Energy          =    -618.1470846132199313 [Eh]
	 Singles Energy            =      -0.0000000000000000 [Eh]
	 Same-Spin Energy          =      -0.4221435000819584 [Eh]
	 Opposite-Spin Energy      =      -1.3194753987148460 [Eh]
	 Correlation Energy        =      -1.7416188987968044 [Eh]
	 Total Energy              =    -619.8887035120167184 [Eh]

	 ================> DF-SCS-MP2 Energies <==================
	-----------------------------------------------------------
	 SCS Same-Spin Scale       =       0.3333333333333333 [-]
	 SCS Opposite-Spin Scale   =       1.2000000000000000 [-]
	 SCS Same-Spin Energy      =      -0.1407145000273195 [Eh]
	 SCS Opposite-Spin Energy  =      -1.5833704784578151 [Eh]
	 SCS Correlation Energy    =      -1.7240849784851346 [Eh]
	 SCS Total Energy          =    -619.8711695917050974 [Eh]
	-----------------------------------------------------------

*** Psi4 exiting successfully. Buy a developer a beer!
