                               Psi4 1.8.2 release

  ==> Input File <==

--------------------------------------------------------------------------
MEMORY 60 GB

molecule dimer {
0 1
Gh(Na)     0.000000     0.000000     0.000000
Gh(O)     -1.365784     1.888773     0.128336
Gh(H)     -1.127056     2.523638    -0.548341
Gh(H)     -2.084338     1.268663    -0.087383
Gh(O)      1.933277     1.190155     1.145330
Gh(H)      2.694356     1.300756     0.519806
Gh(H)      1.814910     2.060976     1.520495
Gh(O)     -0.418772    -0.363065    -2.238699
Gh(H)     -1.093240     0.117831    -2.640346
Gh(H)      0.385868    -0.155367    -2.718085
O         -1.360209    -0.721731     1.772667
H         -0.830785    -1.124783     2.509665
H         -1.649374     0.155797     2.059176
Gh(O)      1.649637    -1.718358    -0.019721
Gh(H)      1.060619    -2.517490    -0.072430
Gh(H)      2.004692    -1.689554    -0.966746

units ang
no_reorient
no_com
symmetry c1
}

set {
basis        aug-cc-pVTZ
scf_type     df
}

energy("mp2")
--------------------------------------------------------------------------

    Molecular point group: c1

    Geometry (in Angstrom), charge = 0, multiplicity = 1:

       Center              X                  Y                   Z               Mass
    ------------   -----------------  -----------------  -----------------  -----------------
      Gh(NA)          0.000000000000     0.000000000000     0.000000000000    22.989769282000
      Gh(O)          -1.365784000000     1.888773000000     0.128336000000    15.994914619570
      Gh(H)          -1.127056000000     2.523638000000    -0.548341000000     1.007825032230
      Gh(H)          -2.084338000000     1.268663000000    -0.087383000000     1.007825032230
      Gh(O)           1.933277000000     1.190155000000     1.145330000000    15.994914619570
      Gh(H)           2.694356000000     1.300756000000     0.519806000000     1.007825032230
      Gh(H)           1.814910000000     2.060976000000     1.520495000000     1.007825032230
      Gh(O)          -0.418772000000    -0.363065000000    -2.238699000000    15.994914619570
      Gh(H)          -1.093240000000     0.117831000000    -2.640346000000     1.007825032230
      Gh(H)           0.385868000000    -0.155367000000    -2.718085000000     1.007825032230
         O           -1.360209000000    -0.721731000000     1.772667000000    15.994914619570
         H           -0.830785000000    -1.124783000000     2.509665000000     1.007825032230
         H           -1.649374000000     0.155797000000     2.059176000000     1.007825032230
      Gh(O)           1.649637000000    -1.718358000000    -0.019721000000    15.994914619570
      Gh(H)           1.060619000000    -2.517490000000    -0.072430000000     1.007825032230
      Gh(H)           2.004692000000    -1.689554000000    -0.966746000000     1.007825032230

  Charge       = 0
  Multiplicity = 1
  Basis Set: AUG-CC-PVTZ
    Blend: AUG-CC-PVTZ
  Basis Set: (AUG-CC-PVTZ AUX)
    Blend: AUG-CC-PVTZ-JKFIT + DEF2-UNIVERSAL-JKFIT

    Orbital Energies [Eh]
    ---------------------

    Doubly Occupied:

       1A    -20.569313     2A     -1.339782     3A     -0.711561
       4A     -0.573810     5A     -0.507435

  @DF-RHF Final Energy:   -76.05776481746457

   => Energetics <=

    Nuclear Repulsion Energy =              8.9737080707014183
    One-Electron Energy =                -122.6591423486197669
    Two-Electron Energy =                  37.6276694604537596
    Total Energy =                        -76.0577648174645873
 Dipole X            :         25.4070638          -25.2502011            0.1568627
 Dipole Y            :         13.0594230          -12.7421096            0.3173134
 Dipole Z            :        -34.7558646           35.4326993            0.6768347
 Magnitude           :                                                    0.7638056
  Basis Set: (AUG-CC-PVTZ AUX)
    Blend: AUG-CC-PVTZ-RI + DEF2-QZVPP-RI
	 Reference Energy          =     -76.0577648174645731 [Eh]
	 Singles Energy            =      -0.0000000000000000 [Eh]
	 Same-Spin Energy          =      -0.0687682529721266 [Eh]
	 Opposite-Spin Energy      =      -0.2170230154525890 [Eh]
	 Correlation Energy        =      -0.2857912684247157 [Eh]
	 Total Energy              =     -76.3435560858892899 [Eh]

	 ================> DF-SCS-MP2 Energies <==================
	-----------------------------------------------------------
	 SCS Same-Spin Scale       =       0.3333333333333333 [-]
	 SCS Opposite-Spin Scale   =       1.2000000000000000 [-]
	 SCS Same-Spin Energy      =      -0.0229227509907089 [Eh]
	 SCS Opposite-Spin Energy  =      -0.2604276185431068 [Eh]
	 SCS Correlation Energy    =      -0.2833503695338157 [Eh]
	 SCS Total Energy          =     -76.3411151869983939 [Eh]
	-----------------------------------------------------------

*** Psi4 exiting successfully. Buy a developer a beer!
