                               Psi4 1.8.2 release

  ==> Input File <==

--------------------------------------------------------------------------
MEMORY 60 GB

molecule dimer {
0 1
Gh(Na)     0.000000     0.000000     0.000000
Gh(O)      1.692917     1.592615     0.480622
Gh(H)      2.586663     1.486171     0.100037
Gh(H)      1.727856     2.356221     1.061969
O         -1.389429    -1.947879    -0.873259
H         -0.995256    -2.536833    -1.500073
H         -2.243648    -1.766646    -1.123488
Gh(O)      2.076813    -1.377446     0.020620
Gh(H)      2.625603    -2.126282    -0.266841
Gh(H)      2.516735    -1.045054     0.792393
Gh(O)     -0.594482     1.641239    -1.699071
Gh(H)      0.125257     2.036144    -2.302619
Gh(H)     -1.490431     1.945166    -1.907436
Gh(O)     -1.394789     1.438669     1.679367
Gh(H)     -2.318786     1.491294     1.965205
Gh(H)     -1.357392     2.233936     1.154702

units ang
no_reorient
no_com
symmetry c1
}

set {
basis        aug-cc-pVTZ
scf_type     df
}

energy("mp2")
--------------------------------------------------------------------------

    Molecular point group: c1

    Geometry (in Angstrom), charge = 0, multiplicity = 1:

       Center              X                  Y                   Z               Mass
    ------------   -----------------  -----------------  -----------------  -----------------
      Gh(NA)          0.000000000000     0.000000000000     0.000000000000    22.989769282000
      Gh(O)           1.692917000000     1.592615000000     0.480622000000    15.994914619570
      Gh(H)           2.586663000000     1.486171000000     0.100037000000     1.007825032230
      Gh(H)           1.727856000000     2.356221000000     1.061969000000     1.007825032230
         O           -1.389429000000    -1.947879000000    -0.873259000000    15.994914619570
         H           -0.995256000000    -2.536833000000    -1.500073000000     1.007825032230
         H           -2.243648000000    -1.766646000000    -1.123488000000     1.007825032230
      Gh(O)           2.076813000000    -1.377446000000     0.020620000000    15.994914619570
      Gh(H)           2.625603000000    -2.126282000000    -0.266841000000     1.007825032230
      Gh(H)           2.516735000000    -1.045054000000     0.792393000000     1.007825032230
      Gh(O)          -0.594482000000     1.641239000000    -1.699071000000    15.994914619570
      Gh(H)           0.125257000000     2.036144000000    -2.302619000000     1.007825032230
      Gh(H)          -1.490431000000     1.945166000000    -1.907436000000     1.007825032230
      Gh(O)          -1.394789000000     1.438669000000     1.679367000000    15.994914619570
      Gh(H)          -2.318786000000     1.491294000000     1.965205000000     1.007825032230
      Gh(H)          -1.357392000000     2.233936000000     1.154702000000     1.007825032230

  Charge       = 0
  Multiplicity = 1
  Basis Set: AUG-CC-PVTZ
    Blend: AUG-CC-PVTZ
  Basis Set: (AUG-CC-PVTZ AUX)
    Blend: AUG-CC-PVTZ-JKFIT + DEF2-UNIVERSAL-JKFIT

    Orbital Energies [Eh]
    ---------------------

    Doubly Occupied:

       1A    -20.559376     2A     -1.366271     3A     -0.744584
       4A     -0.580698     5A     -0.511589

  @DF-RHF Final Energy:   -76.05980832152129

   => Energetics <=

    Nuclear Repulsion Energy =              9.4843640832005764
    One-Electron Energy =                -123.5633064009414568
    Two-Electron Energy =                  38.0191339962195940
    Total Energy =                        -76.0598083215212881
 Dipole X            :         26.8041258          -27.1257638           -0.3216380
 Dipole Y            :         37.3019719          -37.5800594           -0.2780875
 Dipole Z            :         17.5572068          -18.1595745           -0.6023677
 Magnitude           :                                                    0.7373130
  Basis Set: (AUG-CC-PVTZ AUX)
    Blend: AUG-CC-PVTZ-RI + DEF2-QZVPP-RI
	 Reference Energy          =     -76.0598083215212881 [Eh]
	 Singles Energy            =      -0.0000000000000000 [Eh]
	 Same-Spin Energy          =      -0.0678080480708978 [Eh]
	 Opposite-Spin Energy      =      -0.2138781195399681 [Eh]
	 Correlation Energy        =      -0.2816861676108658 [Eh]
	 Total Energy              =     -76.3414944891321596 [Eh]

	 ================> DF-SCS-MP2 Energies <==================
	-----------------------------------------------------------
	 SCS Same-Spin Scale       =       0.3333333333333333 [-]
	 SCS Opposite-Spin Scale   =       1.2000000000000000 [-]
	 SCS Same-Spin Energy      =      -0.0226026826902993 [Eh]
	 SCS Opposite-Spin Energy  =      -0.2566537434479617 [Eh]
	 SCS Correlation Energy    =      -0.2792564261382609 [Eh]
	 SCS Total Energy          =     -76.3390647476595490 [Eh]
	-----------------------------------------------------------

*** Psi4 exiting successfully. Buy a developer a beer!
