                               Psi4 1.8.2 release

  ==> Input File <==

--------------------------------------------------------------------------
MEMORY 60 GB

molecule dimer {
0 1
Gh(Na)     0.000000     0.000000     0.000000
Gh(O)      2.205971     0.635159     0.728373
Gh(H)      3.053339     0.255335     0.378257
Gh(H)      2.077247     0.411983     1.671787
O         -2.285012    -0.545726    -1.025332
H         -1.993376    -0.558243    -1.924281
H         -2.614469    -1.469788    -0.906414
Gh(O)      0.374764     0.481414    -2.151325
Gh(H)     -0.097932    -0.007771    -2.837168
Gh(H)      0.086886     1.404508    -2.205016
Gh(O)     -1.072663     0.652617     2.238731
Gh(H)     -0.201901     0.519877     2.729850
Gh(H)     -1.247442     1.590189     2.428781

units ang
no_reorient
no_com
symmetry c1
}

set {
basis        aug-cc-pVTZ
scf_type     df
}

energy("mp2")
--------------------------------------------------------------------------

    Molecular point group: c1

    Geometry (in Angstrom), charge = 0, multiplicity = 1:

       Center              X                  Y                   Z               Mass
    ------------   -----------------  -----------------  -----------------  -----------------
      Gh(NA)          0.000000000000     0.000000000000     0.000000000000    22.989769282000
      Gh(O)           2.205971000000     0.635159000000     0.728373000000    15.994914619570
      Gh(H)           3.053339000000     0.255335000000     0.378257000000     1.007825032230
      Gh(H)           2.077247000000     0.411983000000     1.671787000000     1.007825032230
         O           -2.285012000000    -0.545726000000    -1.025332000000    15.994914619570
         H           -1.993376000000    -0.558243000000    -1.924281000000     1.007825032230
         H           -2.614469000000    -1.469788000000    -0.906414000000     1.007825032230
      Gh(O)           0.374764000000     0.481414000000    -2.151325000000    15.994914619570
      Gh(H)          -0.097932000000    -0.007771000000    -2.837168000000     1.007825032230
      Gh(H)           0.086886000000     1.404508000000    -2.205016000000     1.007825032230
      Gh(O)          -1.072663000000     0.652617000000     2.238731000000    15.994914619570
      Gh(H)          -0.201901000000     0.519877000000     2.729850000000     1.007825032230
      Gh(H)          -1.247442000000     1.590189000000     2.428781000000     1.007825032230

  Charge       = 0
  Multiplicity = 1
  Basis Set: AUG-CC-PVTZ
    Blend: AUG-CC-PVTZ
  Basis Set: (AUG-CC-PVTZ AUX)
    Blend: AUG-CC-PVTZ-JKFIT + DEF2-UNIVERSAL-JKFIT

    Orbital Energies [Eh]
    ---------------------

    Doubly Occupied:

       1A    -20.569718     2A     -1.351006     3A     -0.707526
       4A     -0.588095     5A     -0.510395

  @DF-RHF Final Energy:   -76.05874776759920

   => Energetics <=

    Nuclear Repulsion Energy =              9.1155372586318482
    One-Electron Energy =                -122.8950868117686639
    Two-Electron Energy =                  37.7208017855376170
    Total Energy =                        -76.0587477675992005
 Dipole X            :         43.2301677          -43.2519401           -0.0217724
 Dipole Y            :         11.4731228          -12.0826046           -0.6094818
 Dipole Z            :         20.3325818          -20.8500116           -0.5174299
 Magnitude           :                                                    0.7997974
  Basis Set: (AUG-CC-PVTZ AUX)
    Blend: AUG-CC-PVTZ-RI + DEF2-QZVPP-RI
	 Reference Energy          =     -76.0587477675992005 [Eh]
	 Singles Energy            =      -0.0000000000000000 [Eh]
	 Same-Spin Energy          =      -0.0686254316216799 [Eh]
	 Opposite-Spin Energy      =      -0.2164456649634981 [Eh]
	 Correlation Energy        =      -0.2850710965851780 [Eh]
	 Total Energy              =     -76.3438188641843851 [Eh]

	 ================> DF-SCS-MP2 Energies <==================
	-----------------------------------------------------------
	 SCS Same-Spin Scale       =       0.3333333333333333 [-]
	 SCS Opposite-Spin Scale   =       1.2000000000000000 [-]
	 SCS Same-Spin Energy      =      -0.0228751438738933 [Eh]
	 SCS Opposite-Spin Energy  =      -0.2597347979561977 [Eh]
	 SCS Correlation Energy    =      -0.2826099418300910 [Eh]
	 SCS Total Energy          =     -76.3413577094292890 [Eh]
	-----------------------------------------------------------

*** Psi4 exiting successfully. Buy a developer a beer!
