                               Psi4 1.8.2 release

  ==> Input File <==

--------------------------------------------------------------------------
MEMORY 60 GB

molecule dimer {
1 1
Na         0.000000     0.000000     0.000000
O          1.953031     0.831091     0.860219
H          2.066769     1.791772     0.968498
H          2.719642     0.442245     0.453626
O          0.997390    -1.806691    -0.823923
H          0.719927    -2.694832    -0.590439
H          1.062663    -1.693952    -1.760597
O         -2.359813    -0.522401    -0.218748
H         -3.107352    -1.043213     0.090344
H         -2.840960     0.185888    -0.550284
O         -1.307455     1.999734     0.923894
H         -2.152987     2.044750     1.490236
H         -1.483833     2.732670     0.295877
O         -0.718067     0.947143    -2.169991
H         -1.389460     1.635350    -2.029136
H          0.120162     1.348159    -2.406870
O         -0.441223    -1.492378     2.010603
H          0.380909    -1.895708     2.175635
H         -0.383827    -0.728813     2.596321

units ang
no_reorient
no_com
symmetry c1
}

set {
basis        aug-cc-pVTZ
scf_type     df
}

energy("mp2")
--------------------------------------------------------------------------

    Molecular point group: c1

    Geometry (in Angstrom), charge = 1, multiplicity = 1:

       Center              X                  Y                   Z               Mass
    ------------   -----------------  -----------------  -----------------  -----------------
         NA           0.000000000000     0.000000000000     0.000000000000    22.989769282000
         O            1.953031000000     0.831091000000     0.860219000000    15.994914619570
         H            2.066769000000     1.791772000000     0.968498000000     1.007825032230
         H            2.719642000000     0.442245000000     0.453626000000     1.007825032230
         O            0.997390000000    -1.806691000000    -0.823923000000    15.994914619570
         H            0.719927000000    -2.694832000000    -0.590439000000     1.007825032230
         H            1.062663000000    -1.693952000000    -1.760597000000     1.007825032230
         O           -2.359813000000    -0.522401000000    -0.218748000000    15.994914619570
         H           -3.107352000000    -1.043213000000     0.090344000000     1.007825032230
         H           -2.840960000000     0.185888000000    -0.550284000000     1.007825032230
         O           -1.307455000000     1.999734000000     0.923894000000    15.994914619570
         H           -2.152987000000     2.044750000000     1.490236000000     1.007825032230
         H           -1.483833000000     2.732670000000     0.295877000000     1.007825032230
         O           -0.718067000000     0.947143000000    -2.169991000000    15.994914619570
         H           -1.389460000000     1.635350000000    -2.029136000000     1.007825032230
         H            0.120162000000     1.348159000000    -2.406870000000     1.007825032230
         O           -0.441223000000    -1.492378000000     2.010603000000    15.994914619570
         H            0.380909000000    -1.895708000000     2.175635000000     1.007825032230
         H           -0.383827000000    -0.728813000000     2.596321000000     1.007825032230

  Charge       = 1
  Multiplicity = 1
  Basis Set: AUG-CC-PVTZ
    Blend: AUG-CC-PVTZ
  Basis Set: (AUG-CC-PVTZ AUX)
    Blend: AUG-CC-PVTZ-JKFIT + DEF2-UNIVERSAL-JKFIT

    Orbital Energies [Eh]
    ---------------------

    Doubly Occupied:

       1A    -40.529982     2A    -20.728556     3A    -20.722177
       4A    -20.719556     5A    -20.710745     6A    -20.694682
       7A    -20.693874     8A     -2.854008     9A     -1.580358
      10A     -1.579278    11A     -1.578925    12A     -1.506688
      13A     -1.504064    14A     -1.502334    15A     -1.499742
      16A     -1.491511    17A     -1.491363    18A     -0.887012
      19A     -0.883379    20A     -0.882773    21A     -0.845020
      22A     -0.843869    23A     -0.840437    24A     -0.756234
      25A     -0.746341    26A     -0.742093    27A     -0.733311
      28A     -0.731130    29A     -0.721824    30A     -0.676354
      31A     -0.670602    32A     -0.667039    33A     -0.664121
      34A     -0.645417    35A     -0.639026

  @DF-RHF Final Energy:  -618.14860032519550

   => Energetics <=

    Nuclear Repulsion Energy =            409.2538855371948898
    One-Electron Energy =               -1664.8773142829127210
    Two-Electron Energy =                 637.4748284205222717
    Total Energy =                       -618.1486003251955026
 Dipole X            :         36.0612220          -36.4668822           -0.4056602
 Dipole Y            :         -1.9701923            3.3567205            1.3865282
 Dipole Z            :        -10.4558646           10.1849492           -0.2709154
 Magnitude           :                                                    1.4698353
  Basis Set: (AUG-CC-PVTZ AUX)
    Blend: AUG-CC-PVTZ-RI + DEF2-QZVPP-RI
	 Reference Energy          =    -618.1486003251955026 [Eh]
	 Singles Energy            =      -0.0000000000000000 [Eh]
	 Same-Spin Energy          =      -0.4222909145271850 [Eh]
	 Opposite-Spin Energy      =      -1.3191332023045939 [Eh]
	 Correlation Energy        =      -1.7414241168317788 [Eh]
	 Total Energy              =    -619.8900244420273111 [Eh]

	 ================> DF-SCS-MP2 Energies <==================
	-----------------------------------------------------------
	 SCS Same-Spin Scale       =       0.3333333333333333 [-]
	 SCS Opposite-Spin Scale   =       1.2000000000000000 [-]
	 SCS Same-Spin Energy      =      -0.1407636381757283 [Eh]
	 SCS Opposite-Spin Energy  =      -1.5829598427655125 [Eh]
	 SCS Correlation Energy    =      -1.7237234809412407 [Eh]
	 SCS Total Energy          =    -619.8723238061367056 [Eh]
	-----------------------------------------------------------

*** Psi4 exiting successfully. Buy a developer a beer!
