                               Psi4 1.8.2 release

  ==> Input File <==

--------------------------------------------------------------------------
MEMORY 60 GB

molecule dimer {
0 1
Gh(Na)     0.000000     0.000000     0.000000
Gh(O)     -1.550334     1.816641    -0.647719
Gh(H)     -1.763595     2.148064    -1.549173
Gh(H)     -2.345886     1.993166    -0.095342
O          1.776229    -0.620344    -1.543284
H          1.957125    -1.432281    -2.104550
H          2.456253     0.027568    -1.657251
Gh(O)     -0.110460    -0.599504     2.332443
Gh(H)     -0.274930    -0.167045     3.165026
Gh(H)     -0.837619    -1.226720     2.297426
Gh(O)     -1.487710    -1.471897    -1.190235
Gh(H)     -2.323235    -1.734375    -0.749536
Gh(H)     -1.811237    -1.091178    -2.013706

units ang
no_reorient
no_com
symmetry c1
}

set {
basis        aug-cc-pVTZ
scf_type     df
}

energy("mp2")
--------------------------------------------------------------------------

    Molecular point group: c1

    Geometry (in Angstrom), charge = 0, multiplicity = 1:

       Center              X                  Y                   Z               Mass
    ------------   -----------------  -----------------  -----------------  -----------------
      Gh(NA)          0.000000000000     0.000000000000     0.000000000000    22.989769282000
      Gh(O)          -1.550334000000     1.816641000000    -0.647719000000    15.994914619570
      Gh(H)          -1.763595000000     2.148064000000    -1.549173000000     1.007825032230
      Gh(H)          -2.345886000000     1.993166000000    -0.095342000000     1.007825032230
         O            1.776229000000    -0.620344000000    -1.543284000000    15.994914619570
         H            1.957125000000    -1.432281000000    -2.104550000000     1.007825032230
         H            2.456253000000     0.027568000000    -1.657251000000     1.007825032230
      Gh(O)          -0.110460000000    -0.599504000000     2.332443000000    15.994914619570
      Gh(H)          -0.274930000000    -0.167045000000     3.165026000000     1.007825032230
      Gh(H)          -0.837619000000    -1.226720000000     2.297426000000     1.007825032230
      Gh(O)          -1.487710000000    -1.471897000000    -1.190235000000    15.994914619570
      Gh(H)          -2.323235000000    -1.734375000000    -0.749536000000     1.007825032230
      Gh(H)          -1.811237000000    -1.091178000000    -2.013706000000     1.007825032230

  Charge       = 0
  Multiplicity = 1
  Basis Set: AUG-CC-PVTZ
    Blend: AUG-CC-PVTZ
  Basis Set: (AUG-CC-PVTZ AUX)
    Blend: AUG-CC-PVTZ-JKFIT + DEF2-UNIVERSAL-JKFIT

    Orbital Energies [Eh]
    ---------------------

    Doubly Occupied:

       1A    -20.566900     2A     -1.341036     3A     -0.719914
       4A     -0.568971     5A     -0.506932

  @DF-RHF Final Energy:   -76.05664617444417

   => Energetics <=

    Nuclear Repulsion Energy =              9.0224724104747764
    One-Electron Energy =                -122.7507253591366947
    Two-Electron Energy =                  37.6716067742177430
    Total Energy =                        -76.0566461744441824
 Dipole X            :        -34.6125861           35.1927665            0.5801804
 Dipole Y            :         11.9298828          -12.0327650           -0.1028821
 Dipole Z            :         29.9889253          -30.4398464           -0.4509211
 Magnitude           :                                                    0.7419729
  Basis Set: (AUG-CC-PVTZ AUX)
    Blend: AUG-CC-PVTZ-RI + DEF2-QZVPP-RI
	 Reference Energy          =     -76.0566461744441682 [Eh]
	 Singles Energy            =      -0.0000000000000000 [Eh]
	 Same-Spin Energy          =      -0.0686038965707131 [Eh]
	 Opposite-Spin Energy      =      -0.2162856908324816 [Eh]
	 Correlation Energy        =      -0.2848895874031947 [Eh]
	 Total Energy              =     -76.3415357618473678 [Eh]

	 ================> DF-SCS-MP2 Energies <==================
	-----------------------------------------------------------
	 SCS Same-Spin Scale       =       0.3333333333333333 [-]
	 SCS Opposite-Spin Scale   =       1.2000000000000000 [-]
	 SCS Same-Spin Energy      =      -0.0228679655235710 [Eh]
	 SCS Opposite-Spin Energy  =      -0.2595428289989779 [Eh]
	 SCS Correlation Energy    =      -0.2824107945225489 [Eh]
	 SCS Total Energy          =     -76.3390569689667160 [Eh]
	-----------------------------------------------------------

*** Psi4 exiting successfully. Buy a developer a beer!
