                               Psi4 1.8.2 release

  ==> Input File <==

--------------------------------------------------------------------------
MEMORY 60 GB

molecule dimer {
0 1
Gh(Na)     0.000000     0.000000     0.000000
Gh(O)     -1.276190    -1.895462    -0.040608
Gh(H)     -2.127558    -2.381803    -0.032716
Gh(H)     -0.649478    -2.617925    -0.097285
Gh(O)      1.279520    -0.856733     1.908127
Gh(H)      1.429020    -1.725810     1.617383
Gh(H)      2.152061    -0.516055     2.066464
O          1.299180    -0.930748    -1.795194
H          1.895986    -0.426229    -2.417540
H          1.773401    -1.700742    -1.666497
Gh(O)     -1.150366     1.204114    -1.632613
Gh(H)     -0.622560     1.212033    -2.467742
Gh(H)     -1.635570     2.032036    -1.478611
Gh(O)      1.957058     1.448042    -0.052295
Gh(H)      2.006511     1.818263     0.762342
Gh(H)      2.834060     1.269535    -0.454297

units ang
no_reorient
no_com
symmetry c1
}

set {
basis        aug-cc-pVTZ
scf_type     df
}

energy("mp2")
--------------------------------------------------------------------------

    Molecular point group: c1

    Geometry (in Angstrom), charge = 0, multiplicity = 1:

       Center              X                  Y                   Z               Mass
    ------------   -----------------  -----------------  -----------------  -----------------
      Gh(NA)          0.000000000000     0.000000000000     0.000000000000    22.989769282000
      Gh(O)          -1.276190000000    -1.895462000000    -0.040608000000    15.994914619570
      Gh(H)          -2.127558000000    -2.381803000000    -0.032716000000     1.007825032230
      Gh(H)          -0.649478000000    -2.617925000000    -0.097285000000     1.007825032230
      Gh(O)           1.279520000000    -0.856733000000     1.908127000000    15.994914619570
      Gh(H)           1.429020000000    -1.725810000000     1.617383000000     1.007825032230
      Gh(H)           2.152061000000    -0.516055000000     2.066464000000     1.007825032230
         O            1.299180000000    -0.930748000000    -1.795194000000    15.994914619570
         H            1.895986000000    -0.426229000000    -2.417540000000     1.007825032230
         H            1.773401000000    -1.700742000000    -1.666497000000     1.007825032230
      Gh(O)          -1.150366000000     1.204114000000    -1.632613000000    15.994914619570
      Gh(H)          -0.622560000000     1.212033000000    -2.467742000000     1.007825032230
      Gh(H)          -1.635570000000     2.032036000000    -1.478611000000     1.007825032230
      Gh(O)           1.957058000000     1.448042000000    -0.052295000000    15.994914619570
      Gh(H)           2.006511000000     1.818263000000     0.762342000000     1.007825032230
      Gh(H)           2.834060000000     1.269535000000    -0.454297000000     1.007825032230

  Charge       = 0
  Multiplicity = 1
  Basis Set: AUG-CC-PVTZ
    Blend: AUG-CC-PVTZ
  Basis Set: (AUG-CC-PVTZ AUX)
    Blend: AUG-CC-PVTZ-JKFIT + DEF2-UNIVERSAL-JKFIT

    Orbital Energies [Eh]
    ---------------------

    Doubly Occupied:

       1A    -20.567576     2A     -1.357831     3A     -0.713437
       4A     -0.589816     5A     -0.511355

  @DF-RHF Final Energy:   -76.05669726694579

   => Energetics <=

    Nuclear Repulsion Energy =              9.2287609018831223
    One-Electron Energy =                -123.0908839289600820
    Two-Electron Energy =                  37.8054257601311718
    Total Energy =                        -76.0566972669457897
 Dipole X            :        -25.8687605           26.5748916            0.7061311
 Dipole Y            :         17.9009771          -18.0902632           -0.1892861
 Dipole Z            :         34.5389289          -34.8571114           -0.3181825
 Magnitude           :                                                    0.7973020
  Basis Set: (AUG-CC-PVTZ AUX)
    Blend: AUG-CC-PVTZ-RI + DEF2-QZVPP-RI
	 Reference Energy          =     -76.0566972669457897 [Eh]
	 Singles Energy            =      -0.0000000000000000 [Eh]
	 Same-Spin Energy          =      -0.0684290872760662 [Eh]
	 Opposite-Spin Energy      =      -0.2160032684472736 [Eh]
	 Correlation Energy        =      -0.2844323557233398 [Eh]
	 Total Energy              =     -76.3411296226691292 [Eh]

	 ================> DF-SCS-MP2 Energies <==================
	-----------------------------------------------------------
	 SCS Same-Spin Scale       =       0.3333333333333333 [-]
	 SCS Opposite-Spin Scale   =       1.2000000000000000 [-]
	 SCS Same-Spin Energy      =      -0.0228096957586887 [Eh]
	 SCS Opposite-Spin Energy  =      -0.2592039221367283 [Eh]
	 SCS Correlation Energy    =      -0.2820136178954171 [Eh]
	 SCS Total Energy          =     -76.3387108848412055 [Eh]
	-----------------------------------------------------------

*** Psi4 exiting successfully. Buy a developer a beer!
