                               Psi4 1.8.2 release

  ==> Input File <==

--------------------------------------------------------------------------
MEMORY 60 GB

molecule dimer {
0 1
Gh(Na)     0.000000     0.000000     0.000000
Gh(O)     -1.303188     1.664866     1.104595
Gh(H)     -0.470288     2.199361     1.156535
Gh(H)     -1.573108     1.918059     0.254875
Gh(O)      0.729354    -2.356522     0.687908
Gh(H)      1.312049    -1.877683     1.251734
Gh(H)      0.115995    -2.750276     1.273369
Gh(O)      0.100788    -0.239392    -2.295890
Gh(H)     -0.074582     0.302705    -3.084869
Gh(H)     -0.313292    -1.090884    -2.589965
O          2.035040     1.209218     0.044939
H          2.826981     0.709029     0.335038
H          2.348264     1.657480    -0.765905

units ang
no_reorient
no_com
symmetry c1
}

set {
basis        aug-cc-pVTZ
scf_type     df
}

energy("mp2")
--------------------------------------------------------------------------

    Molecular point group: c1

    Geometry (in Angstrom), charge = 0, multiplicity = 1:

       Center              X                  Y                   Z               Mass
    ------------   -----------------  -----------------  -----------------  -----------------
      Gh(NA)          0.000000000000     0.000000000000     0.000000000000    22.989769282000
      Gh(O)          -1.303188000000     1.664866000000     1.104595000000    15.994914619570
      Gh(H)          -0.470288000000     2.199361000000     1.156535000000     1.007825032230
      Gh(H)          -1.573108000000     1.918059000000     0.254875000000     1.007825032230
      Gh(O)           0.729354000000    -2.356522000000     0.687908000000    15.994914619570
      Gh(H)           1.312049000000    -1.877683000000     1.251734000000     1.007825032230
      Gh(H)           0.115995000000    -2.750276000000     1.273369000000     1.007825032230
      Gh(O)           0.100788000000    -0.239392000000    -2.295890000000    15.994914619570
      Gh(H)          -0.074582000000     0.302705000000    -3.084869000000     1.007825032230
      Gh(H)          -0.313292000000    -1.090884000000    -2.589965000000     1.007825032230
         O            2.035040000000     1.209218000000     0.044939000000    15.994914619570
         H            2.826981000000     0.709029000000     0.335038000000     1.007825032230
         H            2.348264000000     1.657480000000    -0.765905000000     1.007825032230

  Charge       = 0
  Multiplicity = 1
  Basis Set: AUG-CC-PVTZ
    Blend: AUG-CC-PVTZ
  Basis Set: (AUG-CC-PVTZ AUX)
    Blend: AUG-CC-PVTZ-JKFIT + DEF2-UNIVERSAL-JKFIT

    Orbital Energies [Eh]
    ---------------------

    Doubly Occupied:

       1A    -20.571615     2A     -1.343593     3A     -0.702434
       4A     -0.584057     5A     -0.509082

  @DF-RHF Final Energy:   -76.05825032403706

   => Energetics <=

    Nuclear Repulsion Energy =              8.9917538592800543
    One-Electron Energy =                -122.6784424320200060
    Two-Electron Energy =                  37.6284382487028850
    Total Energy =                        -76.0582503240370613
 Dipole X            :        -39.8241391           40.5451417            0.7210027
 Dipole Y            :        -22.7861784           22.7527807           -0.0333977
 Dipole Z            :         -0.2051132           -0.1348414           -0.3399546
 Magnitude           :                                                    0.7978279
  Basis Set: (AUG-CC-PVTZ AUX)
    Blend: AUG-CC-PVTZ-RI + DEF2-QZVPP-RI
	 Reference Energy          =     -76.0582503240370613 [Eh]
	 Singles Energy            =      -0.0000000000000000 [Eh]
	 Same-Spin Energy          =      -0.0688292978179711 [Eh]
	 Opposite-Spin Energy      =      -0.2170555521061914 [Eh]
	 Correlation Energy        =      -0.2858848499241626 [Eh]
	 Total Energy              =     -76.3441351739612202 [Eh]

	 ================> DF-SCS-MP2 Energies <==================
	-----------------------------------------------------------
	 SCS Same-Spin Scale       =       0.3333333333333333 [-]
	 SCS Opposite-Spin Scale   =       1.2000000000000000 [-]
	 SCS Same-Spin Energy      =      -0.0229430992726570 [Eh]
	 SCS Opposite-Spin Energy  =      -0.2604666625274297 [Eh]
	 SCS Correlation Energy    =      -0.2834097618000868 [Eh]
	 SCS Total Energy          =     -76.3416600858371481 [Eh]
	-----------------------------------------------------------

*** Psi4 exiting successfully. Buy a developer a beer!
