                               Psi4 1.8.2 release

  ==> Input File <==

--------------------------------------------------------------------------
MEMORY 60 GB

molecule dimer {
1 1
Na         0.000000     0.000000     0.000000
O         -2.147953     1.230804    -0.093503
H         -2.318329     0.383817    -0.571927
H         -2.658431     1.257994     0.763361
O          2.051616    -1.053276     0.872783
H          2.660167    -0.510539     1.345025
H          1.963060    -1.818037     1.441353
O         -0.595914    -2.448793    -0.109229
H         -1.546233    -2.159324     0.026620
H         -0.520204    -2.750060    -0.965962
O          0.312160    -0.147696    -2.334927
H          1.097607    -0.716514    -2.380416
H          0.370388     0.519974    -3.036401
O         -1.188602    -0.231517     2.310981
H         -2.121229     0.121115     2.269242
H         -1.269202    -1.128717     2.652519
O          0.641094     2.197153     0.802216
H          0.985102     2.733240     0.042057
H         -0.201655     2.600602     0.994387

units ang
no_reorient
no_com
symmetry c1
}

set {
basis        aug-cc-pVTZ
scf_type     df
}

energy("mp2")
--------------------------------------------------------------------------

    Molecular point group: c1

    Geometry (in Angstrom), charge = 1, multiplicity = 1:

       Center              X                  Y                   Z               Mass
    ------------   -----------------  -----------------  -----------------  -----------------
         NA           0.000000000000     0.000000000000     0.000000000000    22.989769282000
         O           -2.147953000000     1.230804000000    -0.093503000000    15.994914619570
         H           -2.318329000000     0.383817000000    -0.571927000000     1.007825032230
         H           -2.658431000000     1.257994000000     0.763361000000     1.007825032230
         O            2.051616000000    -1.053276000000     0.872783000000    15.994914619570
         H            2.660167000000    -0.510539000000     1.345025000000     1.007825032230
         H            1.963060000000    -1.818037000000     1.441353000000     1.007825032230
         O           -0.595914000000    -2.448793000000    -0.109229000000    15.994914619570
         H           -1.546233000000    -2.159324000000     0.026620000000     1.007825032230
         H           -0.520204000000    -2.750060000000    -0.965962000000     1.007825032230
         O            0.312160000000    -0.147696000000    -2.334927000000    15.994914619570
         H            1.097607000000    -0.716514000000    -2.380416000000     1.007825032230
         H            0.370388000000     0.519974000000    -3.036401000000     1.007825032230
         O           -1.188602000000    -0.231517000000     2.310981000000    15.994914619570
         H           -2.121229000000     0.121115000000     2.269242000000     1.007825032230
         H           -1.269202000000    -1.128717000000     2.652519000000     1.007825032230
         O            0.641094000000     2.197153000000     0.802216000000    15.994914619570
         H            0.985102000000     2.733240000000     0.042057000000     1.007825032230
         H           -0.201655000000     2.600602000000     0.994387000000     1.007825032230

  Charge       = 1
  Multiplicity = 1
  Basis Set: AUG-CC-PVTZ
    Blend: AUG-CC-PVTZ
  Basis Set: (AUG-CC-PVTZ AUX)
    Blend: AUG-CC-PVTZ-JKFIT + DEF2-UNIVERSAL-JKFIT

    Orbital Energies [Eh]
    ---------------------

    Doubly Occupied:

       1A    -40.555895     2A    -20.738565     3A    -20.730095
       4A    -20.727258     5A    -20.724473     6A    -20.706103
       7A    -20.702013     8A     -2.877618     9A     -1.603074
      10A     -1.601944    11A     -1.601594    12A     -1.515168
      13A     -1.509516    14A     -1.506930    15A     -1.498609
      16A     -1.496312    17A     -1.485822    18A     -0.889398
      19A     -0.884573    20A     -0.881807    21A     -0.862114
      22A     -0.855258    23A     -0.845733    24A     -0.752277
      25A     -0.747460    26A     -0.742832    27A     -0.739784
      28A     -0.733132    29A     -0.725138    30A     -0.689600
      31A     -0.678595    32A     -0.672958    33A     -0.662552
      34A     -0.652744    35A     -0.649892

  @DF-RHF Final Energy:  -618.13687956875651

   => Energetics <=

    Nuclear Repulsion Energy =            402.6224310545441654
    One-Electron Energy =               -1651.0249419855749693
    Two-Electron Energy =                 630.2656313622742346
    Total Energy =                       -618.1368795687565125
 Dipole X            :         19.6835710          -20.7487223           -1.0651513
 Dipole Y            :          9.2109280           -9.6244678           -0.4135398
 Dipole Z            :        -26.9433056           26.7706653           -0.1726402
 Magnitude           :                                                    1.1555808
  Basis Set: (AUG-CC-PVTZ AUX)
    Blend: AUG-CC-PVTZ-RI + DEF2-QZVPP-RI
	 Reference Energy          =    -618.1368795687565125 [Eh]
	 Singles Energy            =      -0.0000000000000000 [Eh]
	 Same-Spin Energy          =      -0.4222477545839223 [Eh]
	 Opposite-Spin Energy      =      -1.3203259895559287 [Eh]
	 Correlation Energy        =      -1.7425737441398510 [Eh]
	 Total Energy              =    -619.8794533128963167 [Eh]

	 ================> DF-SCS-MP2 Energies <==================
	-----------------------------------------------------------
	 SCS Same-Spin Scale       =       0.3333333333333333 [-]
	 SCS Opposite-Spin Scale   =       1.2000000000000000 [-]
	 SCS Same-Spin Energy      =      -0.1407492515279741 [Eh]
	 SCS Opposite-Spin Energy  =      -1.5843911874671144 [Eh]
	 SCS Correlation Energy    =      -1.7251404389950884 [Eh]
	 SCS Total Energy          =    -619.8620200077516529 [Eh]
	-----------------------------------------------------------

*** Psi4 exiting successfully. Buy a developer a beer!
