                               Psi4 1.8.2 release

  ==> Input File <==

--------------------------------------------------------------------------
MEMORY 60 GB

molecule dimer {
1 1
Na         0.000000     0.000000     0.000000
O         -0.283701     1.578559     1.887976
H          0.085980     1.398434     2.801414
H          0.312072     2.205050     1.541846
O         -1.725746    -1.417014     0.457220
H         -2.523655    -1.143003     0.934820
H         -1.900792    -2.355054     0.361742
O          1.131277    -1.180347     1.903162
H          1.903346    -1.656998     2.213950
H          0.798789    -0.647920     2.640386
O         -0.883525     1.834306    -1.288208
H         -0.936557     2.764670    -0.982975
H         -0.954930     2.069278    -2.199800

units ang
no_reorient
no_com
symmetry c1
}

set {
basis        aug-cc-pVTZ
scf_type     df
}

energy("mp2")
--------------------------------------------------------------------------

    Molecular point group: c1

    Geometry (in Angstrom), charge = 1, multiplicity = 1:

       Center              X                  Y                   Z               Mass
    ------------   -----------------  -----------------  -----------------  -----------------
         NA           0.000000000000     0.000000000000     0.000000000000    22.989769282000
         O           -0.283701000000     1.578559000000     1.887976000000    15.994914619570
         H            0.085980000000     1.398434000000     2.801414000000     1.007825032230
         H            0.312072000000     2.205050000000     1.541846000000     1.007825032230
         O           -1.725746000000    -1.417014000000     0.457220000000    15.994914619570
         H           -2.523655000000    -1.143003000000     0.934820000000     1.007825032230
         H           -1.900792000000    -2.355054000000     0.361742000000     1.007825032230
         O            1.131277000000    -1.180347000000     1.903162000000    15.994914619570
         H            1.903346000000    -1.656998000000     2.213950000000     1.007825032230
         H            0.798789000000    -0.647920000000     2.640386000000     1.007825032230
         O           -0.883525000000     1.834306000000    -1.288208000000    15.994914619570
         H           -0.936557000000     2.764670000000    -0.982975000000     1.007825032230
         H           -0.954930000000     2.069278000000    -2.199800000000     1.007825032230

  Charge       = 1
  Multiplicity = 1
  Basis Set: AUG-CC-PVTZ
    Blend: AUG-CC-PVTZ
  Basis Set: (AUG-CC-PVTZ AUX)
    Blend: AUG-CC-PVTZ-JKFIT + DEF2-UNIVERSAL-JKFIT

    Orbital Energies [Eh]
    ---------------------

    Doubly Occupied:

       1A    -40.590400     2A    -20.740058     3A    -20.735562
       4A    -20.723204     5A    -20.723101     6A     -2.910546
       7A     -1.635330     8A     -1.634979     9A     -1.633795
      10A     -1.526362    11A     -1.524327    12A     -1.510068
      13A     -1.506195    14A     -0.890206    15A     -0.873658
      16A     -0.861332    17A     -0.856851    18A     -0.786388
      19A     -0.768459    20A     -0.761784    21A     -0.743978
      22A     -0.690167    23A     -0.681308    24A     -0.673249
      25A     -0.662838

  @DF-RHF Final Energy:  -466.01056895994441

   => Energetics <=

    Nuclear Repulsion Energy =            215.1238125914529178
    One-Electron Energy =               -1068.9804696170579064
    Two-Electron Energy =                 387.8460880656606378
    Total Energy =                       -466.0105689599444077
 Dipole X            :         32.7007793          -32.7098497           -0.0090704
 Dipole Y            :        -16.5918054           17.3070359            0.7152305
 Dipole Z            :        -57.4266130           58.5674938            1.1408808
 Magnitude           :                                                    1.3465682
  Basis Set: (AUG-CC-PVTZ AUX)
    Blend: AUG-CC-PVTZ-RI + DEF2-QZVPP-RI
	 Reference Energy          =    -466.0105689599444077 [Eh]
	 Singles Energy            =      -0.0000000000000000 [Eh]
	 Same-Spin Energy          =      -0.2806263449244726 [Eh]
	 Opposite-Spin Energy      =      -0.8793731642861610 [Eh]
	 Correlation Energy        =      -1.1599995092106337 [Eh]
	 Total Energy              =    -467.1705684691550573 [Eh]

	 ================> DF-SCS-MP2 Energies <==================
	-----------------------------------------------------------
	 SCS Same-Spin Scale       =       0.3333333333333333 [-]
	 SCS Opposite-Spin Scale   =       1.2000000000000000 [-]
	 SCS Same-Spin Energy      =      -0.0935421149748242 [Eh]
	 SCS Opposite-Spin Energy  =      -1.0552477971433931 [Eh]
	 SCS Correlation Energy    =      -1.1487899121182172 [Eh]
	 SCS Total Energy          =    -467.1593588720626258 [Eh]
	-----------------------------------------------------------

*** Psi4 exiting successfully. Buy a developer a beer!
