                               Psi4 1.8.2 release

  ==> Input File <==

--------------------------------------------------------------------------
MEMORY 60 GB

molecule dimer {
1 1
Na         0.000000     0.000000     0.000000
Gh(O)      2.161813     1.206626    -0.266700
Gh(H)      2.702963     0.459594    -0.645875
Gh(H)      2.788583     1.720992     0.282642
Gh(O)     -0.556590    -0.575984    -2.179488
Gh(H)     -1.017472     0.122616    -2.697717
Gh(H)      0.357469    -0.689631    -2.443771
Gh(O)      0.229150     0.481834     2.206901
Gh(H)     -0.313539     1.262282     2.430655
Gh(H)      0.022652    -0.088819     2.940612
Gh(O)     -0.111430    -2.057137     0.450586
Gh(H)     -0.126469    -2.559975    -0.403823
Gh(H)     -0.555096    -2.521016     1.178518
Gh(O)     -1.173824     1.990268    -0.285624
Gh(H)     -1.323983     2.704336    -0.895645
Gh(H)     -1.221891     2.483177     0.551307

units ang
no_reorient
no_com
symmetry c1
}

set {
basis        aug-cc-pVTZ
scf_type     df
}

energy("mp2")
--------------------------------------------------------------------------

    Molecular point group: c1

    Geometry (in Angstrom), charge = 1, multiplicity = 1:

       Center              X                  Y                   Z               Mass
    ------------   -----------------  -----------------  -----------------  -----------------
         NA           0.000000000000     0.000000000000     0.000000000000    22.989769282000
      Gh(O)           2.161813000000     1.206626000000    -0.266700000000    15.994914619570
      Gh(H)           2.702963000000     0.459594000000    -0.645875000000     1.007825032230
      Gh(H)           2.788583000000     1.720992000000     0.282642000000     1.007825032230
      Gh(O)          -0.556590000000    -0.575984000000    -2.179488000000    15.994914619570
      Gh(H)          -1.017472000000     0.122616000000    -2.697717000000     1.007825032230
      Gh(H)           0.357469000000    -0.689631000000    -2.443771000000     1.007825032230
      Gh(O)           0.229150000000     0.481834000000     2.206901000000    15.994914619570
      Gh(H)          -0.313539000000     1.262282000000     2.430655000000     1.007825032230
      Gh(H)           0.022652000000    -0.088819000000     2.940612000000     1.007825032230
      Gh(O)          -0.111430000000    -2.057137000000     0.450586000000    15.994914619570
      Gh(H)          -0.126469000000    -2.559975000000    -0.403823000000     1.007825032230
      Gh(H)          -0.555096000000    -2.521016000000     1.178518000000     1.007825032230
      Gh(O)          -1.173824000000     1.990268000000    -0.285624000000    15.994914619570
      Gh(H)          -1.323983000000     2.704336000000    -0.895645000000     1.007825032230
      Gh(H)          -1.221891000000     2.483177000000     0.551307000000     1.007825032230

  Charge       = 1
  Multiplicity = 1
  Basis Set: AUG-CC-PVTZ
    Blend: AUG-CC-PVTZ
  Basis Set: (AUG-CC-PVTZ AUX)
    Blend: AUG-CC-PVTZ-JKFIT + DEF2-UNIVERSAL-JKFIT

    Orbital Energies [Eh]
    ---------------------

    Doubly Occupied:

       1A    -40.760375     2A     -3.073780     3A     -1.797154
       4A     -1.797143     5A     -1.797078

  @DF-RHF Final Energy:  -161.67609361226297

   => Energetics <=

    Nuclear Repulsion Energy =              0.0000000000000000
    One-Electron Energy =                -224.9011265683202510
    Two-Electron Energy =                  63.2250329560572553
    Total Energy =                       -161.6760936122630028
 Dipole X            :          0.0000135            0.0000000            0.0000135
 Dipole Y            :          0.0000278            0.0000000            0.0000278
 Dipole Z            :         -0.0000473            0.0000000           -0.0000473
 Magnitude           :                                                    0.0000565
  Basis Set: (AUG-CC-PVTZ AUX)
    Blend: AUG-CC-PVTZ-RI + DEF2-QZVPP-RI
	 Reference Energy          =    -161.6760936122629744 [Eh]
	 Singles Energy            =      -0.0000000000000000 [Eh]
	 Same-Spin Energy          =      -0.0068401776462507 [Eh]
	 Opposite-Spin Energy      =      -0.0207719432784801 [Eh]
	 Correlation Energy        =      -0.0276121209247308 [Eh]
	 Total Energy              =    -161.7037057331877179 [Eh]

	 ================> DF-SCS-MP2 Energies <==================
	-----------------------------------------------------------
	 SCS Same-Spin Scale       =       0.3333333333333333 [-]
	 SCS Opposite-Spin Scale   =       1.2000000000000000 [-]
	 SCS Same-Spin Energy      =      -0.0022800592154169 [Eh]
	 SCS Opposite-Spin Energy  =      -0.0249263319341761 [Eh]
	 SCS Correlation Energy    =      -0.0272063911495930 [Eh]
	 SCS Total Energy          =    -161.7033000034125791 [Eh]
	-----------------------------------------------------------

*** Psi4 exiting successfully. Buy a developer a beer!
