                               Psi4 1.8.2 release

  ==> Input File <==

--------------------------------------------------------------------------
MEMORY 60 GB

molecule dimer {
1 1
Na         0.000000     0.000000     0.000000
Gh(O)     -1.409074     0.355305    -1.934811
Gh(H)     -2.018915    -0.084566    -2.517439
Gh(H)     -1.713316     1.279090    -1.866761
Gh(O)      1.794911    -0.561345    -1.460683
Gh(H)      1.593494    -0.314377    -2.353811
Gh(H)      2.372591     0.005118    -0.936876
Gh(O)     -0.435838    -2.352717    -0.436670
Gh(H)     -1.222788    -2.285827    -0.914371
Gh(H)      0.251402    -2.259475    -1.069210
Gh(O)      1.104550    -0.175403     2.295834
Gh(H)      0.876549    -0.816756     2.946310
Gh(H)      1.979536    -0.369264     1.912482
Gh(O)     -1.853595     0.756497     1.640902
Gh(H)     -1.903286     0.033801     2.281206
Gh(H)     -2.592475     0.565838     1.026460
Gh(O)      1.194547     2.122144    -0.067927
Gh(H)      1.308253     2.491892    -0.928783
Gh(H)      0.775169     2.856759     0.408660

units ang
no_reorient
no_com
symmetry c1
}

set {
basis        aug-cc-pVTZ
scf_type     df
}

energy("mp2")
--------------------------------------------------------------------------

    Molecular point group: c1

    Geometry (in Angstrom), charge = 1, multiplicity = 1:

       Center              X                  Y                   Z               Mass
    ------------   -----------------  -----------------  -----------------  -----------------
         NA           0.000000000000     0.000000000000     0.000000000000    22.989769282000
      Gh(O)          -1.409074000000     0.355305000000    -1.934811000000    15.994914619570
      Gh(H)          -2.018915000000    -0.084566000000    -2.517439000000     1.007825032230
      Gh(H)          -1.713316000000     1.279090000000    -1.866761000000     1.007825032230
      Gh(O)           1.794911000000    -0.561345000000    -1.460683000000    15.994914619570
      Gh(H)           1.593494000000    -0.314377000000    -2.353811000000     1.007825032230
      Gh(H)           2.372591000000     0.005118000000    -0.936876000000     1.007825032230
      Gh(O)          -0.435838000000    -2.352717000000    -0.436670000000    15.994914619570
      Gh(H)          -1.222788000000    -2.285827000000    -0.914371000000     1.007825032230
      Gh(H)           0.251402000000    -2.259475000000    -1.069210000000     1.007825032230
      Gh(O)           1.104550000000    -0.175403000000     2.295834000000    15.994914619570
      Gh(H)           0.876549000000    -0.816756000000     2.946310000000     1.007825032230
      Gh(H)           1.979536000000    -0.369264000000     1.912482000000     1.007825032230
      Gh(O)          -1.853595000000     0.756497000000     1.640902000000    15.994914619570
      Gh(H)          -1.903286000000     0.033801000000     2.281206000000     1.007825032230
      Gh(H)          -2.592475000000     0.565838000000     1.026460000000     1.007825032230
      Gh(O)           1.194547000000     2.122144000000    -0.067927000000    15.994914619570
      Gh(H)           1.308253000000     2.491892000000    -0.928783000000     1.007825032230
      Gh(H)           0.775169000000     2.856759000000     0.408660000000     1.007825032230

  Charge       = 1
  Multiplicity = 1
  Basis Set: AUG-CC-PVTZ
    Blend: AUG-CC-PVTZ
  Basis Set: (AUG-CC-PVTZ AUX)
    Blend: AUG-CC-PVTZ-JKFIT + DEF2-UNIVERSAL-JKFIT

    Orbital Energies [Eh]
    ---------------------

    Doubly Occupied:

       1A    -40.760394     2A     -3.073771     3A     -1.797129
       4A     -1.797114     5A     -1.797104

  @DF-RHF Final Energy:  -161.67609636969658

   => Energetics <=

    Nuclear Repulsion Energy =              0.0000000000000000
    One-Electron Energy =                -224.9011678097781441
    Two-Electron Energy =                  63.2250714400815781
    Total Energy =                       -161.6760963696965518
 Dipole X            :         -0.0000384            0.0000000           -0.0000384
 Dipole Y            :          0.0000415            0.0000000            0.0000415
 Dipole Z            :          0.0000179            0.0000000            0.0000179
 Magnitude           :                                                    0.0000593
  Basis Set: (AUG-CC-PVTZ AUX)
    Blend: AUG-CC-PVTZ-RI + DEF2-QZVPP-RI
	 Reference Energy          =    -161.6760963696965803 [Eh]
	 Singles Energy            =      -0.0000000000000000 [Eh]
	 Same-Spin Energy          =      -0.0071363748982207 [Eh]
	 Opposite-Spin Energy      =      -0.0215208861353386 [Eh]
	 Correlation Energy        =      -0.0286572610335593 [Eh]
	 Total Energy              =    -161.7047536307301527 [Eh]

	 ================> DF-SCS-MP2 Energies <==================
	-----------------------------------------------------------
	 SCS Same-Spin Scale       =       0.3333333333333333 [-]
	 SCS Opposite-Spin Scale   =       1.2000000000000000 [-]
	 SCS Same-Spin Energy      =      -0.0023787916327402 [Eh]
	 SCS Opposite-Spin Energy  =      -0.0258250633624063 [Eh]
	 SCS Correlation Energy    =      -0.0282038549951465 [Eh]
	 SCS Total Energy          =    -161.7043002246917354 [Eh]
	-----------------------------------------------------------

*** Psi4 exiting successfully. Buy a developer a beer!
