                               Psi4 1.8.2 release

  ==> Input File <==

--------------------------------------------------------------------------
MEMORY 60 GB

molecule dimer {
1 1
Na         0.000000     0.000000     0.000000
O         -0.957217     2.122090    -0.761212
H         -1.756905     1.952064    -0.198211
H         -0.493506     2.945806    -0.576286
O          0.133480    -1.128660     2.008379
H          0.952107    -0.954206     2.471368
H          0.032812    -2.050612     2.218947
O          0.989929    -0.442935    -1.982346
H          1.363465    -1.289649    -2.267338
H          1.775598     0.121932    -1.899567
O         -2.129823    -0.676424    -0.211748
H         -2.343077    -0.516159    -1.166244
H         -2.379667    -1.590251     0.046925
O          2.120634     0.776730     0.226244
H          2.587905    -0.008159     0.581668
H          2.704948     1.475568     0.516434

units ang
no_reorient
no_com
symmetry c1
}

set {
basis        aug-cc-pVTZ
scf_type     df
}

energy("mp2")
--------------------------------------------------------------------------

    Molecular point group: c1

    Geometry (in Angstrom), charge = 1, multiplicity = 1:

       Center              X                  Y                   Z               Mass
    ------------   -----------------  -----------------  -----------------  -----------------
         NA           0.000000000000     0.000000000000     0.000000000000    22.989769282000
         O           -0.957217000000     2.122090000000    -0.761212000000    15.994914619570
         H           -1.756905000000     1.952064000000    -0.198211000000     1.007825032230
         H           -0.493506000000     2.945806000000    -0.576286000000     1.007825032230
         O            0.133480000000    -1.128660000000     2.008379000000    15.994914619570
         H            0.952107000000    -0.954206000000     2.471368000000     1.007825032230
         H            0.032812000000    -2.050612000000     2.218947000000     1.007825032230
         O            0.989929000000    -0.442935000000    -1.982346000000    15.994914619570
         H            1.363465000000    -1.289649000000    -2.267338000000     1.007825032230
         H            1.775598000000     0.121932000000    -1.899567000000     1.007825032230
         O           -2.129823000000    -0.676424000000    -0.211748000000    15.994914619570
         H           -2.343077000000    -0.516159000000    -1.166244000000     1.007825032230
         H           -2.379667000000    -1.590251000000     0.046925000000     1.007825032230
         O            2.120634000000     0.776730000000     0.226244000000    15.994914619570
         H            2.587905000000    -0.008159000000     0.581668000000     1.007825032230
         H            2.704948000000     1.475568000000     0.516434000000     1.007825032230

  Charge       = 1
  Multiplicity = 1
  Basis Set: AUG-CC-PVTZ
    Blend: AUG-CC-PVTZ
  Basis Set: (AUG-CC-PVTZ AUX)
    Blend: AUG-CC-PVTZ-JKFIT + DEF2-UNIVERSAL-JKFIT

    Orbital Energies [Eh]
    ---------------------

    Doubly Occupied:

       1A    -40.539941     2A    -20.747355     3A    -20.736688
       4A    -20.723998     5A    -20.713543     6A    -20.705758
       7A     -2.866252     8A     -1.594211     9A     -1.592015
      10A     -1.591023    11A     -1.533486    12A     -1.529653
      13A     -1.497299    14A     -1.494529    15A     -1.479422
      16A     -0.889227    17A     -0.879249    18A     -0.875280
      19A     -0.862551    20A     -0.859045    21A     -0.783877
      22A     -0.777729    23A     -0.745666    24A     -0.736275
      25A     -0.707099    26A     -0.698335    27A     -0.686526
      28A     -0.670465    29A     -0.660334    30A     -0.652097

  @DF-RHF Final Energy:  -542.08338468037812

   => Energetics <=

    Nuclear Repulsion Energy =            312.3141533258835807
    One-Electron Energy =               -1367.1372110002419049
    Two-Electron Energy =                 512.7396729939802071
    Total Energy =                       -542.0833846803781171
 Dipole X            :         -5.5477107            6.9914273            1.4437166
 Dipole Y            :        -10.7341949           10.0018328           -0.7323620
 Dipole Z            :         12.1932895          -11.4097279            0.7835616
 Magnitude           :                                                    1.7985106
  Basis Set: (AUG-CC-PVTZ AUX)
    Blend: AUG-CC-PVTZ-RI + DEF2-QZVPP-RI
	 Reference Energy          =    -542.0833846803781171 [Eh]
	 Singles Energy            =      -0.0000000000000000 [Eh]
	 Same-Spin Energy          =      -0.3526129335420919 [Eh]
	 Opposite-Spin Energy      =      -1.1014008811612575 [Eh]
	 Correlation Energy        =      -1.4540138147033494 [Eh]
	 Total Energy              =    -543.5373984950814474 [Eh]

	 ================> DF-SCS-MP2 Energies <==================
	-----------------------------------------------------------
	 SCS Same-Spin Scale       =       0.3333333333333333 [-]
	 SCS Opposite-Spin Scale   =       1.2000000000000000 [-]
	 SCS Same-Spin Energy      =      -0.1175376445140306 [Eh]
	 SCS Opposite-Spin Energy  =      -1.3216810573935089 [Eh]
	 SCS Correlation Energy    =      -1.4392187019075395 [Eh]
	 SCS Total Energy          =    -543.5226033822856380 [Eh]
	-----------------------------------------------------------

*** Psi4 exiting successfully. Buy a developer a beer!
