                               Psi4 1.8.2 release

  ==> Input File <==

--------------------------------------------------------------------------
MEMORY 60 GB

molecule dimer {
1 1
Na         0.000000     0.000000     0.000000
O          0.455401     1.725871    -1.530100
H          0.381599     2.703129    -1.701900
H          1.168828     1.383847    -1.972639
O          0.099395    -1.245093    -1.972522
H         -0.525908    -1.852204    -2.373265
H          0.897570    -1.353097    -2.425965
O         -0.577192    -2.096889     1.451220
H         -0.502479    -1.745663     2.351427
H         -0.878722    -2.990788     1.553783
O         -1.109273     1.078842     1.946875
H         -1.010859     0.585553     2.773577
H         -1.699356     1.860468     2.119333
O          2.116279     0.093364     1.509554
H          2.034470     0.874012     2.152355
H          2.186417    -0.715612     2.045233

units ang
no_reorient
no_com
symmetry c1
}

set {
basis        aug-cc-pVTZ
scf_type     df
}

energy("mp2")
--------------------------------------------------------------------------

    Molecular point group: c1

    Geometry (in Angstrom), charge = 1, multiplicity = 1:

       Center              X                  Y                   Z               Mass
    ------------   -----------------  -----------------  -----------------  -----------------
         NA           0.000000000000     0.000000000000     0.000000000000    22.989769282000
         O            0.455401000000     1.725871000000    -1.530100000000    15.994914619570
         H            0.381599000000     2.703129000000    -1.701900000000     1.007825032230
         H            1.168828000000     1.383847000000    -1.972639000000     1.007825032230
         O            0.099395000000    -1.245093000000    -1.972522000000    15.994914619570
         H           -0.525908000000    -1.852204000000    -2.373265000000     1.007825032230
         H            0.897570000000    -1.353097000000    -2.425965000000     1.007825032230
         O           -0.577192000000    -2.096889000000     1.451220000000    15.994914619570
         H           -0.502479000000    -1.745663000000     2.351427000000     1.007825032230
         H           -0.878722000000    -2.990788000000     1.553783000000     1.007825032230
         O           -1.109273000000     1.078842000000     1.946875000000    15.994914619570
         H           -1.010859000000     0.585553000000     2.773577000000     1.007825032230
         H           -1.699356000000     1.860468000000     2.119333000000     1.007825032230
         O            2.116279000000     0.093364000000     1.509554000000    15.994914619570
         H            2.034470000000     0.874012000000     2.152355000000     1.007825032230
         H            2.186417000000    -0.715612000000     2.045233000000     1.007825032230

  Charge       = 1
  Multiplicity = 1
  Basis Set: AUG-CC-PVTZ
    Blend: AUG-CC-PVTZ
  Basis Set: (AUG-CC-PVTZ AUX)
    Blend: AUG-CC-PVTZ-JKFIT + DEF2-UNIVERSAL-JKFIT

    Orbital Energies [Eh]
    ---------------------

    Doubly Occupied:

       1A    -40.560860     2A    -20.726177     3A    -20.717737
       4A    -20.716839     5A    -20.714459     6A    -20.707970
       7A     -2.880997     8A     -1.605992     9A     -1.605072
      10A     -1.604920    11A     -1.514918    12A     -1.504683
      13A     -1.502731    14A     -1.498341    15A     -1.480968
      16A     -0.886361    17A     -0.877991    18A     -0.877463
      19A     -0.864821    20A     -0.848192    21A     -0.757329
      22A     -0.745491    23A     -0.740299    24A     -0.732083
      25A     -0.724067    26A     -0.672787    27A     -0.669702
      28A     -0.661055    29A     -0.656136    30A     -0.653958

  @DF-RHF Final Energy:  -542.08646445172030

   => Energetics <=

    Nuclear Repulsion Energy =            294.9091264869693418
    One-Electron Energy =               -1332.5703744082727553
    Two-Electron Energy =                 495.5747834695830534
    Total Energy =                       -542.0864644517203033
 Dipole X            :        -18.6917558           18.7620325            0.0702767
 Dipole Y            :          8.8121816           -9.0736995           -0.2615179
 Dipole Z            :        -28.6766840           29.7861561            1.1094721
 Magnitude           :                                                    1.1420414
  Basis Set: (AUG-CC-PVTZ AUX)
    Blend: AUG-CC-PVTZ-RI + DEF2-QZVPP-RI
	 Reference Energy          =    -542.0864644517203033 [Eh]
	 Singles Energy            =      -0.0000000000000000 [Eh]
	 Same-Spin Energy          =      -0.3497809682045939 [Eh]
	 Opposite-Spin Energy      =      -1.0963883033875246 [Eh]
	 Correlation Energy        =      -1.4461692715921184 [Eh]
	 Total Energy              =    -543.5326337233124150 [Eh]

	 ================> DF-SCS-MP2 Energies <==================
	-----------------------------------------------------------
	 SCS Same-Spin Scale       =       0.3333333333333333 [-]
	 SCS Opposite-Spin Scale   =       1.2000000000000000 [-]
	 SCS Same-Spin Energy      =      -0.1165936560681980 [Eh]
	 SCS Opposite-Spin Energy  =      -1.3156659640650294 [Eh]
	 SCS Correlation Energy    =      -1.4322596201332274 [Eh]
	 SCS Total Energy          =    -543.5187240718535122 [Eh]
	-----------------------------------------------------------

*** Psi4 exiting successfully. Buy a developer a beer!
