                               Psi4 1.8.2 release

  ==> Input File <==

--------------------------------------------------------------------------
MEMORY 60 GB

molecule dimer {
1 1
Na         0.000000     0.000000     0.000000
O         -2.057757    -0.567435    -1.344412
H         -2.384068    -1.418540    -1.257705
H         -2.568328    -0.071263    -1.951173
O          0.120681    -1.848179     1.208782
H         -0.814575    -2.083590     1.439398
H          0.484907    -2.595566     0.683991
O          0.592422    -1.139151    -2.248474
H         -0.326986    -1.097038    -2.041671
H          0.797950    -2.100848    -2.177029
O          2.158692     0.499247     0.293467
H          2.128230     1.387558     0.586444
H          2.800191     0.400597    -0.407694
O         -1.819980     0.746347     1.326387
H         -2.366039    -0.038270     1.450016
H         -1.335759     0.819436     2.149391

units ang
no_reorient
no_com
symmetry c1
}

set {
basis        aug-cc-pVTZ
scf_type     df
}

energy("mp2")
--------------------------------------------------------------------------

    Molecular point group: c1

    Geometry (in Angstrom), charge = 1, multiplicity = 1:

       Center              X                  Y                   Z               Mass
    ------------   -----------------  -----------------  -----------------  -----------------
         NA           0.000000000000     0.000000000000     0.000000000000    22.989769282000
         O           -2.057757000000    -0.567435000000    -1.344412000000    15.994914619570
         H           -2.384068000000    -1.418540000000    -1.257705000000     1.007825032230
         H           -2.568328000000    -0.071263000000    -1.951173000000     1.007825032230
         O            0.120681000000    -1.848179000000     1.208782000000    15.994914619570
         H           -0.814575000000    -2.083590000000     1.439398000000     1.007825032230
         H            0.484907000000    -2.595566000000     0.683991000000     1.007825032230
         O            0.592422000000    -1.139151000000    -2.248474000000    15.994914619570
         H           -0.326986000000    -1.097038000000    -2.041671000000     1.007825032230
         H            0.797950000000    -2.100848000000    -2.177029000000     1.007825032230
         O            2.158692000000     0.499247000000     0.293467000000    15.994914619570
         H            2.128230000000     1.387558000000     0.586444000000     1.007825032230
         H            2.800191000000     0.400597000000    -0.407694000000     1.007825032230
         O           -1.819980000000     0.746347000000     1.326387000000    15.994914619570
         H           -2.366039000000    -0.038270000000     1.450016000000     1.007825032230
         H           -1.335759000000     0.819436000000     2.149391000000     1.007825032230

  Charge       = 1
  Multiplicity = 1
  Basis Set: AUG-CC-PVTZ
    Blend: AUG-CC-PVTZ
  Basis Set: (AUG-CC-PVTZ AUX)
    Blend: AUG-CC-PVTZ-JKFIT + DEF2-UNIVERSAL-JKFIT

    Orbital Energies [Eh]
    ---------------------

    Doubly Occupied:

       1A    -40.569648     2A    -20.748813     3A    -20.745532
       4A    -20.734396     5A    -20.720258     6A    -20.710096
       7A     -2.894570     8A     -1.621245     9A     -1.619823
      10A     -1.618759    11A     -1.557994    12A     -1.522879
      13A     -1.519010    14A     -1.517058    15A     -1.497402
      16A     -0.938044    17A     -0.896567    18A     -0.888854
      19A     -0.882583    20A     -0.866246    21A     -0.781502
      22A     -0.767316    23A     -0.757230    24A     -0.744387
      25A     -0.736529    26A     -0.700509    27A     -0.695943
      28A     -0.681932    29A     -0.677186    30A     -0.656383

  @DF-RHF Final Energy:  -542.07037067762826

   => Energetics <=

    Nuclear Repulsion Energy =            311.1965078326965113
    One-Electron Energy =               -1363.9963707821334538
    Two-Electron Energy =                 510.7294922718085672
    Total Energy =                       -542.0703706776282615
 Dipole X            :         20.7642508          -21.9813189           -1.2170680
 Dipole Y            :         46.2211166          -47.7550648           -1.5339482
 Dipole Z            :         14.4084987          -14.4375681           -0.0290694
 Magnitude           :                                                    1.9583403
  Basis Set: (AUG-CC-PVTZ AUX)
    Blend: AUG-CC-PVTZ-RI + DEF2-QZVPP-RI
	 Reference Energy          =    -542.0703706776282615 [Eh]
	 Singles Energy            =      -0.0000000000000000 [Eh]
	 Same-Spin Energy          =      -0.3520459352276720 [Eh]
	 Opposite-Spin Energy      =      -1.0993949887578771 [Eh]
	 Correlation Energy        =      -1.4514409239855492 [Eh]
	 Total Energy              =    -543.5218116016137628 [Eh]

	 ================> DF-SCS-MP2 Energies <==================
	-----------------------------------------------------------
	 SCS Same-Spin Scale       =       0.3333333333333333 [-]
	 SCS Opposite-Spin Scale   =       1.2000000000000000 [-]
	 SCS Same-Spin Energy      =      -0.1173486450758907 [Eh]
	 SCS Opposite-Spin Energy  =      -1.3192739865094525 [Eh]
	 SCS Correlation Energy    =      -1.4366226315853432 [Eh]
	 SCS Total Energy          =    -543.5069933092136125 [Eh]
	-----------------------------------------------------------

*** Psi4 exiting successfully. Buy a developer a beer!
