                               Psi4 1.8.2 release

  ==> Input File <==

--------------------------------------------------------------------------
MEMORY 60 GB

molecule dimer {
0 1
Gh(Na)     0.000000     0.000000     0.000000
Gh(O)      1.840093    -0.013228     1.168474
Gh(H)      2.578854    -0.628590     1.402113
Gh(H)      1.971143     0.638358     1.806956
Gh(O)     -0.529791    -1.975169    -1.169996
Gh(H)     -0.194422    -2.273058    -1.972985
Gh(H)     -1.435025    -2.192187    -1.229504
O          0.234253     1.720156    -1.715639
H          0.688439     2.544420    -1.572514
H         -0.667981     1.888890    -2.029084
Gh(O)     -2.243886     0.693704     0.273219
Gh(H)     -3.037219     0.241933     0.599418
Gh(H)     -2.426716     1.627144     0.193199

units ang
no_reorient
no_com
symmetry c1
}

set {
basis        aug-cc-pVTZ
scf_type     df
}

energy("mp2")
--------------------------------------------------------------------------

    Molecular point group: c1

    Geometry (in Angstrom), charge = 0, multiplicity = 1:

       Center              X                  Y                   Z               Mass
    ------------   -----------------  -----------------  -----------------  -----------------
      Gh(NA)          0.000000000000     0.000000000000     0.000000000000    22.989769282000
      Gh(O)           1.840093000000    -0.013228000000     1.168474000000    15.994914619570
      Gh(H)           2.578854000000    -0.628590000000     1.402113000000     1.007825032230
      Gh(H)           1.971143000000     0.638358000000     1.806956000000     1.007825032230
      Gh(O)          -0.529791000000    -1.975169000000    -1.169996000000    15.994914619570
      Gh(H)          -0.194422000000    -2.273058000000    -1.972985000000     1.007825032230
      Gh(H)          -1.435025000000    -2.192187000000    -1.229504000000     1.007825032230
         O            0.234253000000     1.720156000000    -1.715639000000    15.994914619570
         H            0.688439000000     2.544420000000    -1.572514000000     1.007825032230
         H           -0.667981000000     1.888890000000    -2.029084000000     1.007825032230
      Gh(O)          -2.243886000000     0.693704000000     0.273219000000    15.994914619570
      Gh(H)          -3.037219000000     0.241933000000     0.599418000000     1.007825032230
      Gh(H)          -2.426716000000     1.627144000000     0.193199000000     1.007825032230

  Charge       = 0
  Multiplicity = 1
  Basis Set: AUG-CC-PVTZ
    Blend: AUG-CC-PVTZ
  Basis Set: (AUG-CC-PVTZ AUX)
    Blend: AUG-CC-PVTZ-JKFIT + DEF2-UNIVERSAL-JKFIT

    Orbital Energies [Eh]
    ---------------------

    Doubly Occupied:

       1A    -20.565130     2A     -1.347850     3A     -0.725897
       4A     -0.573510     5A     -0.508378

  @DF-RHF Final Energy:   -76.05982932521563

   => Energetics <=

    Nuclear Repulsion Energy =              9.1480368795884441
    One-Electron Energy =                -122.9741998835329326
    Two-Electron Energy =                  37.7663336787288486
    Total Energy =                        -76.0598293252156452
 Dipole X            :         -3.8801049            3.5800521           -0.3000527
 Dipole Y            :        -33.7115353           34.3827316            0.6711963
 Dipole Z            :         32.6283291          -32.7427366           -0.1144075
 Magnitude           :                                                    0.7440599
  Basis Set: (AUG-CC-PVTZ AUX)
    Blend: AUG-CC-PVTZ-RI + DEF2-QZVPP-RI
	 Reference Energy          =     -76.0598293252156310 [Eh]
	 Singles Energy            =      -0.0000000000000000 [Eh]
	 Same-Spin Energy          =      -0.0683898508405772 [Eh]
	 Opposite-Spin Energy      =      -0.2156172363445845 [Eh]
	 Correlation Energy        =      -0.2840070871851617 [Eh]
	 Total Energy              =     -76.3438364124007904 [Eh]

	 ================> DF-SCS-MP2 Energies <==================
	-----------------------------------------------------------
	 SCS Same-Spin Scale       =       0.3333333333333333 [-]
	 SCS Opposite-Spin Scale   =       1.2000000000000000 [-]
	 SCS Same-Spin Energy      =      -0.0227966169468591 [Eh]
	 SCS Opposite-Spin Energy  =      -0.2587406836135014 [Eh]
	 SCS Correlation Energy    =      -0.2815373005603605 [Eh]
	 SCS Total Energy          =     -76.3413666257759900 [Eh]
	-----------------------------------------------------------

*** Psi4 exiting successfully. Buy a developer a beer!
