                               Psi4 1.8.2 release

  ==> Input File <==

--------------------------------------------------------------------------
MEMORY 60 GB

molecule dimer {
1 1
Na         0.000000     0.000000     0.000000
O         -1.409074     0.355305    -1.934811
H         -2.018915    -0.084566    -2.517439
H         -1.713316     1.279090    -1.866761
O          1.794911    -0.561345    -1.460683
H          1.593494    -0.314377    -2.353811
H          2.372591     0.005118    -0.936876
O         -0.435838    -2.352717    -0.436670
H         -1.222788    -2.285827    -0.914371
H          0.251402    -2.259475    -1.069210
O          1.104550    -0.175403     2.295834
H          0.876549    -0.816756     2.946310
H          1.979536    -0.369264     1.912482
O         -1.853595     0.756497     1.640902
H         -1.903286     0.033801     2.281206
H         -2.592475     0.565838     1.026460
O          1.194547     2.122144    -0.067927
H          1.308253     2.491892    -0.928783
H          0.775169     2.856759     0.408660

units ang
no_reorient
no_com
symmetry c1
}

set {
basis        aug-cc-pVTZ
scf_type     df
}

energy("mp2")
--------------------------------------------------------------------------

    Molecular point group: c1

    Geometry (in Angstrom), charge = 1, multiplicity = 1:

       Center              X                  Y                   Z               Mass
    ------------   -----------------  -----------------  -----------------  -----------------
         NA           0.000000000000     0.000000000000     0.000000000000    22.989769282000
         O           -1.409074000000     0.355305000000    -1.934811000000    15.994914619570
         H           -2.018915000000    -0.084566000000    -2.517439000000     1.007825032230
         H           -1.713316000000     1.279090000000    -1.866761000000     1.007825032230
         O            1.794911000000    -0.561345000000    -1.460683000000    15.994914619570
         H            1.593494000000    -0.314377000000    -2.353811000000     1.007825032230
         H            2.372591000000     0.005118000000    -0.936876000000     1.007825032230
         O           -0.435838000000    -2.352717000000    -0.436670000000    15.994914619570
         H           -1.222788000000    -2.285827000000    -0.914371000000     1.007825032230
         H            0.251402000000    -2.259475000000    -1.069210000000     1.007825032230
         O            1.104550000000    -0.175403000000     2.295834000000    15.994914619570
         H            0.876549000000    -0.816756000000     2.946310000000     1.007825032230
         H            1.979536000000    -0.369264000000     1.912482000000     1.007825032230
         O           -1.853595000000     0.756497000000     1.640902000000    15.994914619570
         H           -1.903286000000     0.033801000000     2.281206000000     1.007825032230
         H           -2.592475000000     0.565838000000     1.026460000000     1.007825032230
         O            1.194547000000     2.122144000000    -0.067927000000    15.994914619570
         H            1.308253000000     2.491892000000    -0.928783000000     1.007825032230
         H            0.775169000000     2.856759000000     0.408660000000     1.007825032230

  Charge       = 1
  Multiplicity = 1
  Basis Set: AUG-CC-PVTZ
    Blend: AUG-CC-PVTZ
  Basis Set: (AUG-CC-PVTZ AUX)
    Blend: AUG-CC-PVTZ-JKFIT + DEF2-UNIVERSAL-JKFIT

    Orbital Energies [Eh]
    ---------------------

    Doubly Occupied:

       1A    -40.557924     2A    -20.743698     3A    -20.729172
       4A    -20.723811     5A    -20.713140     6A    -20.703578
       7A    -20.702012     8A     -2.879821     9A     -1.605340
      10A     -1.604503    11A     -1.603882    12A     -1.528967
      13A     -1.520141    14A     -1.513881    15A     -1.509361
      16A     -1.491664    17A     -1.489478    18A     -0.912086
      19A     -0.897650    20A     -0.878348    21A     -0.874819
      22A     -0.869907    23A     -0.850221    24A     -0.772937
      25A     -0.764582    26A     -0.737586    27A     -0.732298
      28A     -0.726536    29A     -0.715896    30A     -0.692876
      31A     -0.682771    32A     -0.675514    33A     -0.661011
      34A     -0.656442    35A     -0.650083

  @DF-RHF Final Energy:  -618.15186813787511

   => Energetics <=

    Nuclear Repulsion Energy =            403.5487290950816828
    One-Electron Energy =               -1652.6573153096339865
    Two-Electron Energy =                 630.9567180766772481
    Total Energy =                       -618.1518681378751126
 Dipole X            :         -6.0659997            5.4239335           -0.6420662
 Dipole Y            :         -3.5522427            4.2671547            0.7149119
 Dipole Z            :          1.8171939           -3.2483882           -1.4311943
 Magnitude           :                                                    1.7238519
  Basis Set: (AUG-CC-PVTZ AUX)
    Blend: AUG-CC-PVTZ-RI + DEF2-QZVPP-RI
	 Reference Energy          =    -618.1518681378751126 [Eh]
	 Singles Energy            =      -0.0000000000000000 [Eh]
	 Same-Spin Energy          =      -0.4212177845805211 [Eh]
	 Opposite-Spin Energy      =      -1.3162559419544833 [Eh]
	 Correlation Energy        =      -1.7374737265350044 [Eh]
	 Total Energy              =    -619.8893418644100848 [Eh]

	 ================> DF-SCS-MP2 Energies <==================
	-----------------------------------------------------------
	 SCS Same-Spin Scale       =       0.3333333333333333 [-]
	 SCS Opposite-Spin Scale   =       1.2000000000000000 [-]
	 SCS Same-Spin Energy      =      -0.1404059281935070 [Eh]
	 SCS Opposite-Spin Energy  =      -1.5795071303453798 [Eh]
	 SCS Correlation Energy    =      -1.7199130585388869 [Eh]
	 SCS Total Energy          =    -619.8717811964139628 [Eh]
	-----------------------------------------------------------

*** Psi4 exiting successfully. Buy a developer a beer!
