                               Psi4 1.8.2 release

  ==> Input File <==

--------------------------------------------------------------------------
MEMORY 60 GB

molecule dimer {
0 1
Gh(Na)     0.000000     0.000000     0.000000
Gh(O)     -0.283701     1.578559     1.887976
Gh(H)      0.085980     1.398434     2.801414
Gh(H)      0.312072     2.205050     1.541846
Gh(O)     -1.725746    -1.417014     0.457220
Gh(H)     -2.523655    -1.143003     0.934820
Gh(H)     -1.900792    -2.355054     0.361742
O          1.131277    -1.180347     1.903162
H          1.903346    -1.656998     2.213950
H          0.798789    -0.647920     2.640386
Gh(O)     -0.883525     1.834306    -1.288208
Gh(H)     -0.936557     2.764670    -0.982975
Gh(H)     -0.954930     2.069278    -2.199800

units ang
no_reorient
no_com
symmetry c1
}

set {
basis        aug-cc-pVTZ
scf_type     df
}

energy("mp2")
--------------------------------------------------------------------------

    Molecular point group: c1

    Geometry (in Angstrom), charge = 0, multiplicity = 1:

       Center              X                  Y                   Z               Mass
    ------------   -----------------  -----------------  -----------------  -----------------
      Gh(NA)          0.000000000000     0.000000000000     0.000000000000    22.989769282000
      Gh(O)          -0.283701000000     1.578559000000     1.887976000000    15.994914619570
      Gh(H)           0.085980000000     1.398434000000     2.801414000000     1.007825032230
      Gh(H)           0.312072000000     2.205050000000     1.541846000000     1.007825032230
      Gh(O)          -1.725746000000    -1.417014000000     0.457220000000    15.994914619570
      Gh(H)          -2.523655000000    -1.143003000000     0.934820000000     1.007825032230
      Gh(H)          -1.900792000000    -2.355054000000     0.361742000000     1.007825032230
         O            1.131277000000    -1.180347000000     1.903162000000    15.994914619570
         H            1.903346000000    -1.656998000000     2.213950000000     1.007825032230
         H            0.798789000000    -0.647920000000     2.640386000000     1.007825032230
      Gh(O)          -0.883525000000     1.834306000000    -1.288208000000    15.994914619570
      Gh(H)          -0.936557000000     2.764670000000    -0.982975000000     1.007825032230
      Gh(H)          -0.954930000000     2.069278000000    -2.199800000000     1.007825032230

  Charge       = 0
  Multiplicity = 1
  Basis Set: AUG-CC-PVTZ
    Blend: AUG-CC-PVTZ
  Basis Set: (AUG-CC-PVTZ AUX)
    Blend: AUG-CC-PVTZ-JKFIT + DEF2-UNIVERSAL-JKFIT

    Orbital Energies [Eh]
    ---------------------

    Doubly Occupied:

       1A    -20.566756     2A     -1.348019     3A     -0.720095
       4A     -0.577559     5A     -0.508836

  @DF-RHF Final Energy:   -76.06007464125818

   => Energetics <=

    Nuclear Repulsion Energy =              9.1262938006469305
    One-Electron Energy =                -122.9302040856103844
    Two-Electron Energy =                  37.7438356437052818
    Total Energy =                        -76.0600746412581685
 Dipole X            :        -21.9137650           22.2087247            0.2949597
 Dipole Y            :         22.2362801          -22.1999243            0.0363558
 Dipole Z            :        -37.2444661           37.9450052            0.7005391
 Magnitude           :                                                    0.7609717
  Basis Set: (AUG-CC-PVTZ AUX)
    Blend: AUG-CC-PVTZ-RI + DEF2-QZVPP-RI
	 Reference Energy          =     -76.0600746412581827 [Eh]
	 Singles Energy            =      -0.0000000000000000 [Eh]
	 Same-Spin Energy          =      -0.0684631538433873 [Eh]
	 Opposite-Spin Energy      =      -0.2159302879446568 [Eh]
	 Correlation Energy        =      -0.2843934417880441 [Eh]
	 Total Energy              =     -76.3444680830462232 [Eh]

	 ================> DF-SCS-MP2 Energies <==================
	-----------------------------------------------------------
	 SCS Same-Spin Scale       =       0.3333333333333333 [-]
	 SCS Opposite-Spin Scale   =       1.2000000000000000 [-]
	 SCS Same-Spin Energy      =      -0.0228210512811291 [Eh]
	 SCS Opposite-Spin Energy  =      -0.2591163455335882 [Eh]
	 SCS Correlation Energy    =      -0.2819373968147173 [Eh]
	 SCS Total Energy          =     -76.3420120380728946 [Eh]
	-----------------------------------------------------------

*** Psi4 exiting successfully. Buy a developer a beer!
