                               Psi4 1.8.2 release

  ==> Input File <==

--------------------------------------------------------------------------
MEMORY 60 GB

molecule dimer {
1 1
Na         0.000000     0.000000     0.000000
O          0.573445     0.522482    -2.425718
H          0.565546    -0.283950    -2.909351
H         -0.117345     1.111605    -2.808292
O         -1.679400    -0.610316     1.453133
H         -1.385658    -0.169377     2.284592
H         -1.324565    -1.507257     1.282268
O          0.799290     2.100325     0.839463
H          1.724281     2.237643     0.911781
H          0.337870     2.956704     0.693773
O          1.544445    -1.816388     0.444477
H          2.490067    -1.614678     0.281276
H          1.362461    -2.682268     0.137746

units ang
no_reorient
no_com
symmetry c1
}

set {
basis        aug-cc-pVTZ
scf_type     df
}

energy("mp2")
--------------------------------------------------------------------------

    Molecular point group: c1

    Geometry (in Angstrom), charge = 1, multiplicity = 1:

       Center              X                  Y                   Z               Mass
    ------------   -----------------  -----------------  -----------------  -----------------
         NA           0.000000000000     0.000000000000     0.000000000000    22.989769282000
         O            0.573445000000     0.522482000000    -2.425718000000    15.994914619570
         H            0.565546000000    -0.283950000000    -2.909351000000     1.007825032230
         H           -0.117345000000     1.111605000000    -2.808292000000     1.007825032230
         O           -1.679400000000    -0.610316000000     1.453133000000    15.994914619570
         H           -1.385658000000    -0.169377000000     2.284592000000     1.007825032230
         H           -1.324565000000    -1.507257000000     1.282268000000     1.007825032230
         O            0.799290000000     2.100325000000     0.839463000000    15.994914619570
         H            1.724281000000     2.237643000000     0.911781000000     1.007825032230
         H            0.337870000000     2.956704000000     0.693773000000     1.007825032230
         O            1.544445000000    -1.816388000000     0.444477000000    15.994914619570
         H            2.490067000000    -1.614678000000     0.281276000000     1.007825032230
         H            1.362461000000    -2.682268000000     0.137746000000     1.007825032230

  Charge       = 1
  Multiplicity = 1
  Basis Set: AUG-CC-PVTZ
    Blend: AUG-CC-PVTZ
  Basis Set: (AUG-CC-PVTZ AUX)
    Blend: AUG-CC-PVTZ-JKFIT + DEF2-UNIVERSAL-JKFIT

    Orbital Energies [Eh]
    ---------------------

    Doubly Occupied:

       1A    -40.594459     2A    -20.743041     3A    -20.733613
       4A    -20.731030     5A    -20.730866     6A     -2.915880
       7A     -1.640699     8A     -1.640041     9A     -1.639791
      10A     -1.530374    11A     -1.516554    12A     -1.514767
      13A     -1.505173    14A     -0.904487    15A     -0.894850
      16A     -0.893519    17A     -0.885654    18A     -0.768690
      19A     -0.755286    20A     -0.748128    21A     -0.729625
      22A     -0.692744    23A     -0.682869    24A     -0.680162
      25A     -0.677348

  @DF-RHF Final Energy:  -466.00891479912150

   => Energetics <=

    Nuclear Repulsion Energy =            209.3606480057524095
    One-Electron Energy =               -1057.2398130982394377
    Two-Electron Energy =                 381.8702502933655296
    Total Energy =                       -466.0089147991214986
 Dipole X            :        -24.6285918           25.6150430            0.9864511
 Dipole Y            :         -3.2479500            3.0561520           -0.1917980
 Dipole Z            :         -4.9220388            4.4685088           -0.4535300
 Magnitude           :                                                    1.1025252
  Basis Set: (AUG-CC-PVTZ AUX)
    Blend: AUG-CC-PVTZ-RI + DEF2-QZVPP-RI
	 Reference Energy          =    -466.0089147991214986 [Eh]
	 Singles Energy            =      -0.0000000000000000 [Eh]
	 Same-Spin Energy          =      -0.2790621714301460 [Eh]
	 Opposite-Spin Energy      =      -0.8761942265112794 [Eh]
	 Correlation Energy        =      -1.1552563979414254 [Eh]
	 Total Energy              =    -467.1641711970628990 [Eh]

	 ================> DF-SCS-MP2 Energies <==================
	-----------------------------------------------------------
	 SCS Same-Spin Scale       =       0.3333333333333333 [-]
	 SCS Opposite-Spin Scale   =       1.2000000000000000 [-]
	 SCS Same-Spin Energy      =      -0.0930207238100487 [Eh]
	 SCS Opposite-Spin Energy  =      -1.0514330718135352 [Eh]
	 SCS Correlation Energy    =      -1.1444537956235838 [Eh]
	 SCS Total Energy          =    -467.1533685947450749 [Eh]
	-----------------------------------------------------------

*** Psi4 exiting successfully. Buy a developer a beer!
