                               Psi4 1.8.2 release

  ==> Input File <==

--------------------------------------------------------------------------
MEMORY 60 GB

molecule dimer {
1 1
Na         0.000000     0.000000     0.000000
Gh(O)     -1.136205     2.109216     0.011475
Gh(H)     -1.817514     2.445570     0.580069
Gh(H)     -0.451115     2.773422    -0.131302
Gh(O)      1.252024    -2.158597    -0.042907
Gh(H)      1.513019    -2.709178     0.698471
Gh(H)      1.692694    -2.571460    -0.772312
Gh(O)      2.180151     1.061963    -0.494664
Gh(H)      2.109145     1.159492    -1.466466
Gh(H)      2.569159     1.827540    -0.098947
Gh(O)     -0.175210     0.603986    -2.316960
Gh(H)     -0.687306    -0.098022    -2.722072
Gh(H)     -0.718872     1.408419    -2.299209
Gh(O)     -0.000383    -0.188447     2.289591
Gh(H)      0.693352    -0.570890     2.866500
Gh(H)     -0.819570    -0.668426     2.496017

units ang
no_reorient
no_com
symmetry c1
}

set {
basis        aug-cc-pVTZ
scf_type     df
}

energy("mp2")
--------------------------------------------------------------------------

    Molecular point group: c1

    Geometry (in Angstrom), charge = 1, multiplicity = 1:

       Center              X                  Y                   Z               Mass
    ------------   -----------------  -----------------  -----------------  -----------------
         NA           0.000000000000     0.000000000000     0.000000000000    22.989769282000
      Gh(O)          -1.136205000000     2.109216000000     0.011475000000    15.994914619570
      Gh(H)          -1.817514000000     2.445570000000     0.580069000000     1.007825032230
      Gh(H)          -0.451115000000     2.773422000000    -0.131302000000     1.007825032230
      Gh(O)           1.252024000000    -2.158597000000    -0.042907000000    15.994914619570
      Gh(H)           1.513019000000    -2.709178000000     0.698471000000     1.007825032230
      Gh(H)           1.692694000000    -2.571460000000    -0.772312000000     1.007825032230
      Gh(O)           2.180151000000     1.061963000000    -0.494664000000    15.994914619570
      Gh(H)           2.109145000000     1.159492000000    -1.466466000000     1.007825032230
      Gh(H)           2.569159000000     1.827540000000    -0.098947000000     1.007825032230
      Gh(O)          -0.175210000000     0.603986000000    -2.316960000000    15.994914619570
      Gh(H)          -0.687306000000    -0.098022000000    -2.722072000000     1.007825032230
      Gh(H)          -0.718872000000     1.408419000000    -2.299209000000     1.007825032230
      Gh(O)          -0.000383000000    -0.188447000000     2.289591000000    15.994914619570
      Gh(H)           0.693352000000    -0.570890000000     2.866500000000     1.007825032230
      Gh(H)          -0.819570000000    -0.668426000000     2.496017000000     1.007825032230

  Charge       = 1
  Multiplicity = 1
  Basis Set: AUG-CC-PVTZ
    Blend: AUG-CC-PVTZ
  Basis Set: (AUG-CC-PVTZ AUX)
    Blend: AUG-CC-PVTZ-JKFIT + DEF2-UNIVERSAL-JKFIT

    Orbital Energies [Eh]
    ---------------------

    Doubly Occupied:

       1A    -40.760575     2A     -3.073857     3A     -1.797220
       4A     -1.797188     5A     -1.797158

  @DF-RHF Final Energy:  -161.67608920259187

   => Energetics <=

    Nuclear Repulsion Energy =              0.0000000000000000
    One-Electron Energy =                -224.9001837306292657
    Two-Electron Energy =                  63.2240945280373836
    Total Energy =                       -161.6760892025918679
 Dipole X            :          0.0000071            0.0000000            0.0000071
 Dipole Y            :          0.0000873            0.0000000            0.0000873
 Dipole Z            :         -0.0000114            0.0000000           -0.0000114
 Magnitude           :                                                    0.0000883
  Basis Set: (AUG-CC-PVTZ AUX)
    Blend: AUG-CC-PVTZ-RI + DEF2-QZVPP-RI
	 Reference Energy          =    -161.6760892025918679 [Eh]
	 Singles Energy            =      -0.0000000000000000 [Eh]
	 Same-Spin Energy          =      -0.0062615053252317 [Eh]
	 Opposite-Spin Energy      =      -0.0192623173794622 [Eh]
	 Correlation Energy        =      -0.0255238227046939 [Eh]
	 Total Energy              =    -161.7016130252965525 [Eh]

	 ================> DF-SCS-MP2 Energies <==================
	-----------------------------------------------------------
	 SCS Same-Spin Scale       =       0.3333333333333333 [-]
	 SCS Opposite-Spin Scale   =       1.2000000000000000 [-]
	 SCS Same-Spin Energy      =      -0.0020871684417439 [Eh]
	 SCS Opposite-Spin Energy  =      -0.0231147808553546 [Eh]
	 SCS Correlation Energy    =      -0.0252019492970985 [Eh]
	 SCS Total Energy          =    -161.7012911518889666 [Eh]
	-----------------------------------------------------------

*** Psi4 exiting successfully. Buy a developer a beer!
