                               Psi4 1.8.2 release

  ==> Input File <==

--------------------------------------------------------------------------
MEMORY 60 GB

molecule dimer {
0 1
Gh(Na)     0.000000     0.000000     0.000000
Gh(O)     -1.892773     1.077634     1.090154
Gh(H)     -1.602965     1.973592     1.238232
Gh(H)     -1.975019     0.754811     1.992439
Gh(O)      1.192296     1.455171     1.151359
Gh(H)      1.688184     2.107167     0.722719
Gh(H)      1.351737     1.611920     2.118416
Gh(O)      0.911499     0.687294    -2.163820
Gh(H)      0.543602     0.147142    -2.897860
Gh(H)      1.861899     0.935014    -2.358198
O         -1.234329    -1.488967    -0.941371
H         -1.944835    -1.893957    -0.501962
H         -1.591545    -1.251163    -1.785640

units ang
no_reorient
no_com
symmetry c1
}

set {
basis        aug-cc-pVTZ
scf_type     df
}

energy("mp2")
--------------------------------------------------------------------------

    Molecular point group: c1

    Geometry (in Angstrom), charge = 0, multiplicity = 1:

       Center              X                  Y                   Z               Mass
    ------------   -----------------  -----------------  -----------------  -----------------
      Gh(NA)          0.000000000000     0.000000000000     0.000000000000    22.989769282000
      Gh(O)          -1.892773000000     1.077634000000     1.090154000000    15.994914619570
      Gh(H)          -1.602965000000     1.973592000000     1.238232000000     1.007825032230
      Gh(H)          -1.975019000000     0.754811000000     1.992439000000     1.007825032230
      Gh(O)           1.192296000000     1.455171000000     1.151359000000    15.994914619570
      Gh(H)           1.688184000000     2.107167000000     0.722719000000     1.007825032230
      Gh(H)           1.351737000000     1.611920000000     2.118416000000     1.007825032230
      Gh(O)           0.911499000000     0.687294000000    -2.163820000000    15.994914619570
      Gh(H)           0.543602000000     0.147142000000    -2.897860000000     1.007825032230
      Gh(H)           1.861899000000     0.935014000000    -2.358198000000     1.007825032230
         O           -1.234329000000    -1.488967000000    -0.941371000000    15.994914619570
         H           -1.944835000000    -1.893957000000    -0.501962000000     1.007825032230
         H           -1.591545000000    -1.251163000000    -1.785640000000     1.007825032230

  Charge       = 0
  Multiplicity = 1
  Basis Set: AUG-CC-PVTZ
    Blend: AUG-CC-PVTZ
  Basis Set: (AUG-CC-PVTZ AUX)
    Blend: AUG-CC-PVTZ-JKFIT + DEF2-UNIVERSAL-JKFIT

    Orbital Energies [Eh]
    ---------------------

    Doubly Occupied:

       1A    -20.563639     2A     -1.364278     3A     -0.727687
       4A     -0.589471     5A     -0.512124

  @DF-RHF Final Energy:   -76.06094148519126

   => Energetics <=

    Nuclear Repulsion Energy =              9.3878702888282319
    One-Electron Energy =                -123.3832228150222221
    Two-Electron Energy =                  37.9344110410027184
    Total Energy =                        -76.0609414851912646
 Dipole X            :         24.6244550          -25.3431397           -0.7186847
 Dipole Y            :         28.3391446          -28.4533342           -0.1141896
 Dipole Z            :         18.2849586          -18.5544082           -0.2694497
 Magnitude           :                                                    0.7759833
  Basis Set: (AUG-CC-PVTZ AUX)
    Blend: AUG-CC-PVTZ-RI + DEF2-QZVPP-RI
	 Reference Energy          =     -76.0609414851912646 [Eh]
	 Singles Energy            =      -0.0000000000000000 [Eh]
	 Same-Spin Energy          =      -0.0680795199841693 [Eh]
	 Opposite-Spin Energy      =      -0.2148869078342719 [Eh]
	 Correlation Energy        =      -0.2829664278184412 [Eh]
	 Total Energy              =     -76.3439079130097014 [Eh]

	 ================> DF-SCS-MP2 Energies <==================
	-----------------------------------------------------------
	 SCS Same-Spin Scale       =       0.3333333333333333 [-]
	 SCS Opposite-Spin Scale   =       1.2000000000000000 [-]
	 SCS Same-Spin Energy      =      -0.0226931733280564 [Eh]
	 SCS Opposite-Spin Energy  =      -0.2578642894011263 [Eh]
	 SCS Correlation Energy    =      -0.2805574627291827 [Eh]
	 SCS Total Energy          =     -76.3414989479204422 [Eh]
	-----------------------------------------------------------

*** Psi4 exiting successfully. Buy a developer a beer!
