                               Psi4 1.8.2 release

  ==> Input File <==

--------------------------------------------------------------------------
MEMORY 60 GB

molecule dimer {
0 1
Gh(Na)     0.000000     0.000000     0.000000
Gh(O)     -1.339451    -1.201724     1.367541
Gh(H)     -2.235805    -0.821142     1.302148
Gh(H)     -1.569153    -2.182228     1.427508
O          1.319402     1.894139     0.435760
H          1.823232     2.262470    -0.335659
H          1.739025     2.258973     1.197774
Gh(O)      1.589395    -1.392547     1.045193
Gh(H)      1.704872    -2.231908     0.499963
Gh(H)      2.479783    -0.955865     0.973167
Gh(O)     -1.214799     0.904461    -1.992201
Gh(H)     -0.703953     1.278966    -2.714790
Gh(H)     -2.095167     1.261371    -2.013025

units ang
no_reorient
no_com
symmetry c1
}

set {
basis        aug-cc-pVTZ
scf_type     df
}

energy("mp2")
--------------------------------------------------------------------------

    Molecular point group: c1

    Geometry (in Angstrom), charge = 0, multiplicity = 1:

       Center              X                  Y                   Z               Mass
    ------------   -----------------  -----------------  -----------------  -----------------
      Gh(NA)          0.000000000000     0.000000000000     0.000000000000    22.989769282000
      Gh(O)          -1.339451000000    -1.201724000000     1.367541000000    15.994914619570
      Gh(H)          -2.235805000000    -0.821142000000     1.302148000000     1.007825032230
      Gh(H)          -1.569153000000    -2.182228000000     1.427508000000     1.007825032230
         O            1.319402000000     1.894139000000     0.435760000000    15.994914619570
         H            1.823232000000     2.262470000000    -0.335659000000     1.007825032230
         H            1.739025000000     2.258973000000     1.197774000000     1.007825032230
      Gh(O)           1.589395000000    -1.392547000000     1.045193000000    15.994914619570
      Gh(H)           1.704872000000    -2.231908000000     0.499963000000     1.007825032230
      Gh(H)           2.479783000000    -0.955865000000     0.973167000000     1.007825032230
      Gh(O)          -1.214799000000     0.904461000000    -1.992201000000    15.994914619570
      Gh(H)          -0.703953000000     1.278966000000    -2.714790000000     1.007825032230
      Gh(H)          -2.095167000000     1.261371000000    -2.013025000000     1.007825032230

  Charge       = 0
  Multiplicity = 1
  Basis Set: AUG-CC-PVTZ
    Blend: AUG-CC-PVTZ
  Basis Set: (AUG-CC-PVTZ AUX)
    Blend: AUG-CC-PVTZ-JKFIT + DEF2-UNIVERSAL-JKFIT

    Orbital Energies [Eh]
    ---------------------

    Doubly Occupied:

       1A    -20.568533     2A     -1.348335     3A     -0.713088
       4A     -0.581718     5A     -0.509347

  @DF-RHF Final Energy:   -76.05870222407378

   => Energetics <=

    Nuclear Repulsion Energy =              9.0987555164257579
    One-Electron Energy =                -122.8728687832229269
    Two-Electron Energy =                  37.7154110427233817
    Total Energy =                        -76.0587022240737838
 Dipole X            :        -26.0677249           26.6781576            0.6104326
 Dipole Y            :        -36.6942459           37.1795206            0.4852747
 Dipole Z            :         -8.2147141            8.2168977            0.0021836
 Magnitude           :                                                    0.7798233
  Basis Set: (AUG-CC-PVTZ AUX)
    Blend: AUG-CC-PVTZ-RI + DEF2-QZVPP-RI
	 Reference Energy          =     -76.0587022240737838 [Eh]
	 Singles Energy            =      -0.0000000000000000 [Eh]
	 Same-Spin Energy          =      -0.0685596765454356 [Eh]
	 Opposite-Spin Energy      =      -0.2162548954167324 [Eh]
	 Correlation Energy        =      -0.2848145719621680 [Eh]
	 Total Energy              =     -76.3435167960359564 [Eh]

	 ================> DF-SCS-MP2 Energies <==================
	-----------------------------------------------------------
	 SCS Same-Spin Scale       =       0.3333333333333333 [-]
	 SCS Opposite-Spin Scale   =       1.2000000000000000 [-]
	 SCS Same-Spin Energy      =      -0.0228532255151452 [Eh]
	 SCS Opposite-Spin Energy  =      -0.2595058745000789 [Eh]
	 SCS Correlation Energy    =      -0.2823591000152241 [Eh]
	 SCS Total Energy          =     -76.3410613240890115 [Eh]
	-----------------------------------------------------------

*** Psi4 exiting successfully. Buy a developer a beer!
