                               Psi4 1.8.2 release

  ==> Input File <==

--------------------------------------------------------------------------
MEMORY 60 GB

molecule dimer {
0 1
Gh(Na)     0.000000     0.000000     0.000000
Gh(O)     -1.371627    -0.910990    -1.738968
Gh(H)     -2.225004    -0.362023    -1.723958
Gh(H)     -1.583777    -1.810688    -1.348074
Gh(O)     -1.627495     1.776149     0.403766
Gh(H)     -1.295572     2.668369     0.129330
Gh(H)     -2.180298     1.827238     1.131582
Gh(O)      1.777113    -1.842919    -0.309474
Gh(H)      1.036427    -2.184772     0.244859
Gh(H)      2.605022    -1.908448     0.154364
O         -0.746949    -1.450897     1.784131
H         -1.396092    -2.132055     1.814768
H         -0.857192    -1.089903     2.632736

units ang
no_reorient
no_com
symmetry c1
}

set {
basis        aug-cc-pVTZ
scf_type     df
}

energy("mp2")
--------------------------------------------------------------------------

    Molecular point group: c1

    Geometry (in Angstrom), charge = 0, multiplicity = 1:

       Center              X                  Y                   Z               Mass
    ------------   -----------------  -----------------  -----------------  -----------------
      Gh(NA)          0.000000000000     0.000000000000     0.000000000000    22.989769282000
      Gh(O)          -1.371627000000    -0.910990000000    -1.738968000000    15.994914619570
      Gh(H)          -2.225004000000    -0.362023000000    -1.723958000000     1.007825032230
      Gh(H)          -1.583777000000    -1.810688000000    -1.348074000000     1.007825032230
      Gh(O)          -1.627495000000     1.776149000000     0.403766000000    15.994914619570
      Gh(H)          -1.295572000000     2.668369000000     0.129330000000     1.007825032230
      Gh(H)          -2.180298000000     1.827238000000     1.131582000000     1.007825032230
      Gh(O)           1.777113000000    -1.842919000000    -0.309474000000    15.994914619570
      Gh(H)           1.036427000000    -2.184772000000     0.244859000000     1.007825032230
      Gh(H)           2.605022000000    -1.908448000000     0.154364000000     1.007825032230
         O           -0.746949000000    -1.450897000000     1.784131000000    15.994914619570
         H           -1.396092000000    -2.132055000000     1.814768000000     1.007825032230
         H           -0.857192000000    -1.089903000000     2.632736000000     1.007825032230

  Charge       = 0
  Multiplicity = 1
  Basis Set: AUG-CC-PVTZ
    Blend: AUG-CC-PVTZ
  Basis Set: (AUG-CC-PVTZ AUX)
    Blend: AUG-CC-PVTZ-JKFIT + DEF2-UNIVERSAL-JKFIT

    Orbital Energies [Eh]
    ---------------------

    Doubly Occupied:

       1A    -20.564891     2A     -1.369035     3A     -0.720121
       4A     -0.598564     5A     -0.513524

  @DF-RHF Final Energy:   -76.05990458614778

   => Energetics <=

    Nuclear Repulsion Energy =              9.4248857749828865
    One-Electron Energy =                -123.4373075529838815
    Two-Electron Energy =                  37.9525171918532109
    Total Energy =                        -76.0599045861477805
 Dipole X            :         15.0461789          -15.5503220           -0.5041430
 Dipole Y            :         27.8117644          -28.0230019           -0.2112376
 Dipole Z            :        -34.7903657           35.3767162            0.5863505
 Magnitude           :                                                    0.8016161
  Basis Set: (AUG-CC-PVTZ AUX)
    Blend: AUG-CC-PVTZ-RI + DEF2-QZVPP-RI
	 Reference Energy          =     -76.0599045861477805 [Eh]
	 Singles Energy            =      -0.0000000000000000 [Eh]
	 Same-Spin Energy          =      -0.0681295647627677 [Eh]
	 Opposite-Spin Energy      =      -0.2148742172453751 [Eh]
	 Correlation Energy        =      -0.2830037820081428 [Eh]
	 Total Energy              =     -76.3429083681559177 [Eh]

	 ================> DF-SCS-MP2 Energies <==================
	-----------------------------------------------------------
	 SCS Same-Spin Scale       =       0.3333333333333333 [-]
	 SCS Opposite-Spin Scale   =       1.2000000000000000 [-]
	 SCS Same-Spin Energy      =      -0.0227098549209226 [Eh]
	 SCS Opposite-Spin Energy  =      -0.2578490606944501 [Eh]
	 SCS Correlation Energy    =      -0.2805589156153727 [Eh]
	 SCS Total Energy          =     -76.3404635017631534 [Eh]
	-----------------------------------------------------------

*** Psi4 exiting successfully. Buy a developer a beer!
