                               Psi4 1.8.2 release

  ==> Input File <==

--------------------------------------------------------------------------
MEMORY 60 GB

molecule dimer {
0 1
Gh(Na)     0.000000     0.000000     0.000000
Gh(O)      1.285259    -1.153262    -1.611448
Gh(H)      1.153437    -0.457589    -2.307772
Gh(H)      2.233554    -1.295964    -1.675455
Gh(O)      0.015079     2.249596    -1.029439
Gh(H)      0.758716     2.786048    -0.799301
Gh(H)     -0.644652     2.867532    -1.422312
Gh(O)      0.077834    -2.168857     1.191453
Gh(H)      0.847867    -2.443931     0.714386
Gh(H)     -0.420080    -2.971254     1.529163
O          2.051840     0.606902     1.147426
H          2.621342     1.274506     0.769810
H          1.731269     1.021384     1.952136
Gh(O)     -2.067947     0.408587     0.901339
Gh(H)     -1.890616     1.227864     1.441286
Gh(H)     -2.586505    -0.220929     1.396051

units ang
no_reorient
no_com
symmetry c1
}

set {
basis        aug-cc-pVTZ
scf_type     df
}

energy("mp2")
--------------------------------------------------------------------------

    Molecular point group: c1

    Geometry (in Angstrom), charge = 0, multiplicity = 1:

       Center              X                  Y                   Z               Mass
    ------------   -----------------  -----------------  -----------------  -----------------
      Gh(NA)          0.000000000000     0.000000000000     0.000000000000    22.989769282000
      Gh(O)           1.285259000000    -1.153262000000    -1.611448000000    15.994914619570
      Gh(H)           1.153437000000    -0.457589000000    -2.307772000000     1.007825032230
      Gh(H)           2.233554000000    -1.295964000000    -1.675455000000     1.007825032230
      Gh(O)           0.015079000000     2.249596000000    -1.029439000000    15.994914619570
      Gh(H)           0.758716000000     2.786048000000    -0.799301000000     1.007825032230
      Gh(H)          -0.644652000000     2.867532000000    -1.422312000000     1.007825032230
      Gh(O)           0.077834000000    -2.168857000000     1.191453000000    15.994914619570
      Gh(H)           0.847867000000    -2.443931000000     0.714386000000     1.007825032230
      Gh(H)          -0.420080000000    -2.971254000000     1.529163000000     1.007825032230
         O            2.051840000000     0.606902000000     1.147426000000    15.994914619570
         H            2.621342000000     1.274506000000     0.769810000000     1.007825032230
         H            1.731269000000     1.021384000000     1.952136000000     1.007825032230
      Gh(O)          -2.067947000000     0.408587000000     0.901339000000    15.994914619570
      Gh(H)          -1.890616000000     1.227864000000     1.441286000000     1.007825032230
      Gh(H)          -2.586505000000    -0.220929000000     1.396051000000     1.007825032230

  Charge       = 0
  Multiplicity = 1
  Basis Set: AUG-CC-PVTZ
    Blend: AUG-CC-PVTZ
  Basis Set: (AUG-CC-PVTZ AUX)
    Blend: AUG-CC-PVTZ-JKFIT + DEF2-UNIVERSAL-JKFIT

    Orbital Energies [Eh]
    ---------------------

    Doubly Occupied:

       1A    -20.567614     2A     -1.354128     3A     -0.714867
       4A     -0.587269     5A     -0.510660

  @DF-RHF Final Energy:   -76.06056662464428

   => Energetics <=

    Nuclear Repulsion Energy =              9.1924738427204602
    One-Electron Energy =                -123.0370016914688307
    Two-Electron Energy =                  37.7839612241040967
    Total Energy =                        -76.0605666246442809
 Dipole X            :        -39.0789812           39.2445679            0.1655868
 Dipole Y            :        -12.7969853           13.5136318            0.7166465
 Dipole Z            :        -22.2080509           22.4902996            0.2822486
 Magnitude           :                                                    0.7878233
  Basis Set: (AUG-CC-PVTZ AUX)
    Blend: AUG-CC-PVTZ-RI + DEF2-QZVPP-RI
	 Reference Energy          =     -76.0605666246442809 [Eh]
	 Singles Energy            =      -0.0000000000000000 [Eh]
	 Same-Spin Energy          =      -0.0684484355541073 [Eh]
	 Opposite-Spin Energy      =      -0.2159298007327130 [Eh]
	 Correlation Energy        =      -0.2843782362868202 [Eh]
	 Total Energy              =     -76.3449448609311077 [Eh]

	 ================> DF-SCS-MP2 Energies <==================
	-----------------------------------------------------------
	 SCS Same-Spin Scale       =       0.3333333333333333 [-]
	 SCS Opposite-Spin Scale   =       1.2000000000000000 [-]
	 SCS Same-Spin Energy      =      -0.0228161451847024 [Eh]
	 SCS Opposite-Spin Energy  =      -0.2591157608792556 [Eh]
	 SCS Correlation Energy    =      -0.2819319060639580 [Eh]
	 SCS Total Energy          =     -76.3424985307082409 [Eh]
	-----------------------------------------------------------

*** Psi4 exiting successfully. Buy a developer a beer!
