                               Psi4 1.8.2 release

  ==> Input File <==

--------------------------------------------------------------------------
MEMORY 60 GB

molecule dimer {
0 1
Gh(Na)     0.000000     0.000000     0.000000
Gh(O)     -2.192329    -0.219597     0.872611
Gh(H)     -2.400627    -1.141881     0.703901
Gh(H)     -2.733316     0.372478     0.330936
Gh(O)      0.238623    -0.099539     2.578983
Gh(H)      0.207742    -1.033748     2.608329
Gh(H)      1.103598     0.137296     2.191773
O          1.524795     0.116081    -1.794134
H          1.742531     1.047954    -1.881416
H          1.357694    -0.079869    -2.731791
Gh(O)     -1.274931    -0.745610    -1.953360
Gh(H)     -0.929134    -0.208918    -2.691167
Gh(H)     -2.232484    -0.803013    -1.990186
Gh(O)      1.395144    -1.945533     0.271036
Gh(H)      1.781949    -2.056633    -0.619793
Gh(H)      0.646768    -2.590327     0.264060
Gh(O)     -0.583733     2.446213    -0.013811
Gh(H)     -0.941055     2.972170    -0.745643
Gh(H)     -1.111530     2.471200     0.778068

units ang
no_reorient
no_com
symmetry c1
}

set {
basis        aug-cc-pVTZ
scf_type     df
}

energy("mp2")
--------------------------------------------------------------------------

    Molecular point group: c1

    Geometry (in Angstrom), charge = 0, multiplicity = 1:

       Center              X                  Y                   Z               Mass
    ------------   -----------------  -----------------  -----------------  -----------------
      Gh(NA)          0.000000000000     0.000000000000     0.000000000000    22.989769282000
      Gh(O)          -2.192329000000    -0.219597000000     0.872611000000    15.994914619570
      Gh(H)          -2.400627000000    -1.141881000000     0.703901000000     1.007825032230
      Gh(H)          -2.733316000000     0.372478000000     0.330936000000     1.007825032230
      Gh(O)           0.238623000000    -0.099539000000     2.578983000000    15.994914619570
      Gh(H)           0.207742000000    -1.033748000000     2.608329000000     1.007825032230
      Gh(H)           1.103598000000     0.137296000000     2.191773000000     1.007825032230
         O            1.524795000000     0.116081000000    -1.794134000000    15.994914619570
         H            1.742531000000     1.047954000000    -1.881416000000     1.007825032230
         H            1.357694000000    -0.079869000000    -2.731791000000     1.007825032230
      Gh(O)          -1.274931000000    -0.745610000000    -1.953360000000    15.994914619570
      Gh(H)          -0.929134000000    -0.208918000000    -2.691167000000     1.007825032230
      Gh(H)          -2.232484000000    -0.803013000000    -1.990186000000     1.007825032230
      Gh(O)           1.395144000000    -1.945533000000     0.271036000000    15.994914619570
      Gh(H)           1.781949000000    -2.056633000000    -0.619793000000     1.007825032230
      Gh(H)           0.646768000000    -2.590327000000     0.264060000000     1.007825032230
      Gh(O)          -0.583733000000     2.446213000000    -0.013811000000    15.994914619570
      Gh(H)          -0.941055000000     2.972170000000    -0.745643000000     1.007825032230
      Gh(H)          -1.111530000000     2.471200000000     0.778068000000     1.007825032230

  Charge       = 0
  Multiplicity = 1
  Basis Set: AUG-CC-PVTZ
    Blend: AUG-CC-PVTZ
  Basis Set: (AUG-CC-PVTZ AUX)
    Blend: AUG-CC-PVTZ-JKFIT + DEF2-UNIVERSAL-JKFIT

    Orbital Energies [Eh]
    ---------------------

    Doubly Occupied:

       1A    -20.571147     2A     -1.353080     3A     -0.700491
       4A     -0.594942     5A     -0.511300

  @DF-RHF Final Energy:   -76.05864553061241

   => Energetics <=

    Nuclear Repulsion Energy =              9.1206146739001639
    One-Electron Energy =                -122.8965944904272760
    Two-Electron Energy =                  37.7173342859147027
    Total Energy =                        -76.0586455306124094
 Dipole X            :        -28.8764683           28.9101358            0.0336675
 Dipole Y            :         -3.1042407            3.5843059            0.4800652
 Dipole Z            :         35.1761967          -35.8410729           -0.6648762
 Magnitude           :                                                    0.8207657
  Basis Set: (AUG-CC-PVTZ AUX)
    Blend: AUG-CC-PVTZ-RI + DEF2-QZVPP-RI
	 Reference Energy          =     -76.0586455306124094 [Eh]
	 Singles Energy            =      -0.0000000000000000 [Eh]
	 Same-Spin Energy          =      -0.0687663653217066 [Eh]
	 Opposite-Spin Energy      =      -0.2169915154899397 [Eh]
	 Correlation Energy        =      -0.2857578808116463 [Eh]
	 Total Energy              =     -76.3444034114240537 [Eh]

	 ================> DF-SCS-MP2 Energies <==================
	-----------------------------------------------------------
	 SCS Same-Spin Scale       =       0.3333333333333333 [-]
	 SCS Opposite-Spin Scale   =       1.2000000000000000 [-]
	 SCS Same-Spin Energy      =      -0.0229221217739022 [Eh]
	 SCS Opposite-Spin Energy  =      -0.2603898185879276 [Eh]
	 SCS Correlation Energy    =      -0.2833119403618298 [Eh]
	 SCS Total Energy          =     -76.3419574709742363 [Eh]
	-----------------------------------------------------------

*** Psi4 exiting successfully. Buy a developer a beer!
