                               Psi4 1.8.2 release

  ==> Input File <==

--------------------------------------------------------------------------
MEMORY 60 GB

molecule dimer {
0 1
Gh(Na)     0.000000     0.000000     0.000000
Gh(O)     -1.270892     0.775336    -1.734881
Gh(H)     -2.041556     0.267356    -1.809439
Gh(H)     -1.389474     1.715105    -2.154391
Gh(O)     -1.538328     1.148730     1.663206
Gh(H)     -2.479361     0.999225     1.788695
Gh(H)     -1.153620     0.858041     2.489959
O          1.119723    -1.679292    -1.361821
H          1.074447    -1.430682    -2.285905
H          1.954304    -2.132372    -1.289916
Gh(O)      1.802531    -0.151360     1.513496
Gh(H)      1.956804    -0.794728     2.265743
Gh(H)      2.401941    -0.491777     0.846105
Gh(O)     -1.831106    -1.657480    -0.070603
Gh(H)     -2.766494    -1.428010    -0.112170
Gh(H)     -1.501432    -2.003291    -0.932357

units ang
no_reorient
no_com
symmetry c1
}

set {
basis        aug-cc-pVTZ
scf_type     df
}

energy("mp2")
--------------------------------------------------------------------------

    Molecular point group: c1

    Geometry (in Angstrom), charge = 0, multiplicity = 1:

       Center              X                  Y                   Z               Mass
    ------------   -----------------  -----------------  -----------------  -----------------
      Gh(NA)          0.000000000000     0.000000000000     0.000000000000    22.989769282000
      Gh(O)          -1.270892000000     0.775336000000    -1.734881000000    15.994914619570
      Gh(H)          -2.041556000000     0.267356000000    -1.809439000000     1.007825032230
      Gh(H)          -1.389474000000     1.715105000000    -2.154391000000     1.007825032230
      Gh(O)          -1.538328000000     1.148730000000     1.663206000000    15.994914619570
      Gh(H)          -2.479361000000     0.999225000000     1.788695000000     1.007825032230
      Gh(H)          -1.153620000000     0.858041000000     2.489959000000     1.007825032230
         O            1.119723000000    -1.679292000000    -1.361821000000    15.994914619570
         H            1.074447000000    -1.430682000000    -2.285905000000     1.007825032230
         H            1.954304000000    -2.132372000000    -1.289916000000     1.007825032230
      Gh(O)           1.802531000000    -0.151360000000     1.513496000000    15.994914619570
      Gh(H)           1.956804000000    -0.794728000000     2.265743000000     1.007825032230
      Gh(H)           2.401941000000    -0.491777000000     0.846105000000     1.007825032230
      Gh(O)          -1.831106000000    -1.657480000000    -0.070603000000    15.994914619570
      Gh(H)          -2.766494000000    -1.428010000000    -0.112170000000     1.007825032230
      Gh(H)          -1.501432000000    -2.003291000000    -0.932357000000     1.007825032230

  Charge       = 0
  Multiplicity = 1
  Basis Set: AUG-CC-PVTZ
    Blend: AUG-CC-PVTZ
  Basis Set: (AUG-CC-PVTZ AUX)
    Blend: AUG-CC-PVTZ-JKFIT + DEF2-UNIVERSAL-JKFIT

    Orbital Energies [Eh]
    ---------------------

    Doubly Occupied:

       1A    -20.566936     2A     -1.355101     3A     -0.717353
       4A     -0.586736     5A     -0.510701

  @DF-RHF Final Energy:   -76.06078092551456

   => Energetics <=

    Nuclear Repulsion Energy =              9.2162943488957509
    One-Electron Energy =                -123.0804922541097710
    Two-Electron Energy =                  37.8034169796994490
    Total Energy =                        -76.0607809255145639
 Dipole X            :        -22.1264276           22.6512683            0.5248408
 Dipole Y            :         31.9839173          -32.1204119           -0.1364947
 Dipole Z            :         26.7796305          -27.3450721           -0.5654417
 Magnitude           :                                                    0.7834622
  Basis Set: (AUG-CC-PVTZ AUX)
    Blend: AUG-CC-PVTZ-RI + DEF2-QZVPP-RI
	 Reference Energy          =     -76.0607809255145639 [Eh]
	 Singles Energy            =      -0.0000000000000000 [Eh]
	 Same-Spin Energy          =      -0.0683885845250515 [Eh]
	 Opposite-Spin Energy      =      -0.2157421290366243 [Eh]
	 Correlation Energy        =      -0.2841307135616758 [Eh]
	 Total Energy              =     -76.3449116390762441 [Eh]

	 ================> DF-SCS-MP2 Energies <==================
	-----------------------------------------------------------
	 SCS Same-Spin Scale       =       0.3333333333333333 [-]
	 SCS Opposite-Spin Scale   =       1.2000000000000000 [-]
	 SCS Same-Spin Energy      =      -0.0227961948416838 [Eh]
	 SCS Opposite-Spin Energy  =      -0.2588905548439491 [Eh]
	 SCS Correlation Energy    =      -0.2816867496856330 [Eh]
	 SCS Total Energy          =     -76.3424676752001972 [Eh]
	-----------------------------------------------------------

*** Psi4 exiting successfully. Buy a developer a beer!
