                               Psi4 1.8.2 release

  ==> Input File <==

--------------------------------------------------------------------------
MEMORY 60 GB

molecule dimer {
0 1
Gh(Na)     0.000000     0.000000     0.000000
Gh(O)      1.295992    -1.038055    -1.666929
Gh(H)      1.199472    -0.914486    -2.588127
Gh(H)      2.215709    -0.827473    -1.487559
Gh(O)      0.945093    -1.880558     0.968601
Gh(H)      1.449261    -2.195584     0.246835
Gh(H)      0.398653    -2.523314     1.421842
Gh(O)     -1.899954     0.291284     1.327143
Gh(H)     -1.989905     1.254936     1.673416
Gh(H)     -1.881234    -0.239655     2.109490
Gh(O)      2.210054     0.959882     0.855124
Gh(H)      2.866527     0.324916     0.526095
Gh(H)      2.208158     0.741535     1.764241
O         -1.049559     1.773634    -1.401658
H         -0.352216     2.144695    -1.977073
H         -1.638655     1.166318    -1.764810

units ang
no_reorient
no_com
symmetry c1
}

set {
basis        aug-cc-pVTZ
scf_type     df
}

energy("mp2")
--------------------------------------------------------------------------

    Molecular point group: c1

    Geometry (in Angstrom), charge = 0, multiplicity = 1:

       Center              X                  Y                   Z               Mass
    ------------   -----------------  -----------------  -----------------  -----------------
      Gh(NA)          0.000000000000     0.000000000000     0.000000000000    22.989769282000
      Gh(O)           1.295992000000    -1.038055000000    -1.666929000000    15.994914619570
      Gh(H)           1.199472000000    -0.914486000000    -2.588127000000     1.007825032230
      Gh(H)           2.215709000000    -0.827473000000    -1.487559000000     1.007825032230
      Gh(O)           0.945093000000    -1.880558000000     0.968601000000    15.994914619570
      Gh(H)           1.449261000000    -2.195584000000     0.246835000000     1.007825032230
      Gh(H)           0.398653000000    -2.523314000000     1.421842000000     1.007825032230
      Gh(O)          -1.899954000000     0.291284000000     1.327143000000    15.994914619570
      Gh(H)          -1.989905000000     1.254936000000     1.673416000000     1.007825032230
      Gh(H)          -1.881234000000    -0.239655000000     2.109490000000     1.007825032230
      Gh(O)           2.210054000000     0.959882000000     0.855124000000    15.994914619570
      Gh(H)           2.866527000000     0.324916000000     0.526095000000     1.007825032230
      Gh(H)           2.208158000000     0.741535000000     1.764241000000     1.007825032230
         O           -1.049559000000     1.773634000000    -1.401658000000    15.994914619570
         H           -0.352216000000     2.144695000000    -1.977073000000     1.007825032230
         H           -1.638655000000     1.166318000000    -1.764810000000     1.007825032230

  Charge       = 0
  Multiplicity = 1
  Basis Set: AUG-CC-PVTZ
    Blend: AUG-CC-PVTZ
  Basis Set: (AUG-CC-PVTZ AUX)
    Blend: AUG-CC-PVTZ-JKFIT + DEF2-UNIVERSAL-JKFIT

    Orbital Energies [Eh]
    ---------------------

    Doubly Occupied:

       1A    -20.558833     2A     -1.349064     3A     -0.747084
       4A     -0.559714     5A     -0.506885

  @DF-RHF Final Energy:   -76.05577381688543

   => Energetics <=

    Nuclear Repulsion Energy =              9.2543536654230909
    One-Electron Energy =                -123.1770913104751770
    Two-Electron Energy =                  37.8669638281666465
    Total Energy =                        -76.0557738168854343
 Dipole X            :         19.7005684          -19.6292334            0.0713350
 Dipole Y            :        -33.2388356           33.0703678           -0.1684678
 Dipole Z            :         27.6047667          -28.2611320           -0.6563653
 Magnitude           :                                                    0.6813850
  Basis Set: (AUG-CC-PVTZ AUX)
    Blend: AUG-CC-PVTZ-RI + DEF2-QZVPP-RI
	 Reference Energy          =     -76.0557738168854343 [Eh]
	 Singles Energy            =      -0.0000000000000000 [Eh]
	 Same-Spin Energy          =      -0.0682148261876919 [Eh]
	 Opposite-Spin Energy      =      -0.2149398796526925 [Eh]
	 Correlation Energy        =      -0.2831547058403845 [Eh]
	 Total Energy              =     -76.3389285227258227 [Eh]

	 ================> DF-SCS-MP2 Energies <==================
	-----------------------------------------------------------
	 SCS Same-Spin Scale       =       0.3333333333333333 [-]
	 SCS Opposite-Spin Scale   =       1.2000000000000000 [-]
	 SCS Same-Spin Energy      =      -0.0227382753958973 [Eh]
	 SCS Opposite-Spin Energy  =      -0.2579278555832311 [Eh]
	 SCS Correlation Energy    =      -0.2806661309791283 [Eh]
	 SCS Total Energy          =     -76.3364399478645623 [Eh]
	-----------------------------------------------------------

*** Psi4 exiting successfully. Buy a developer a beer!
