                               Psi4 1.8.2 release

  ==> Input File <==

--------------------------------------------------------------------------
MEMORY 60 GB

molecule dimer {
0 1
Gh(Na)     0.000000     0.000000     0.000000
Gh(O)      0.455401     1.725871    -1.530100
Gh(H)      0.381599     2.703129    -1.701900
Gh(H)      1.168828     1.383847    -1.972639
O          0.099395    -1.245093    -1.972522
H         -0.525908    -1.852204    -2.373265
H          0.897570    -1.353097    -2.425965
Gh(O)     -0.577192    -2.096889     1.451220
Gh(H)     -0.502479    -1.745663     2.351427
Gh(H)     -0.878722    -2.990788     1.553783
Gh(O)     -1.109273     1.078842     1.946875
Gh(H)     -1.010859     0.585553     2.773577
Gh(H)     -1.699356     1.860468     2.119333
Gh(O)      2.116279     0.093364     1.509554
Gh(H)      2.034470     0.874012     2.152355
Gh(H)      2.186417    -0.715612     2.045233

units ang
no_reorient
no_com
symmetry c1
}

set {
basis        aug-cc-pVTZ
scf_type     df
}

energy("mp2")
--------------------------------------------------------------------------

    Molecular point group: c1

    Geometry (in Angstrom), charge = 0, multiplicity = 1:

       Center              X                  Y                   Z               Mass
    ------------   -----------------  -----------------  -----------------  -----------------
      Gh(NA)          0.000000000000     0.000000000000     0.000000000000    22.989769282000
      Gh(O)           0.455401000000     1.725871000000    -1.530100000000    15.994914619570
      Gh(H)           0.381599000000     2.703129000000    -1.701900000000     1.007825032230
      Gh(H)           1.168828000000     1.383847000000    -1.972639000000     1.007825032230
         O            0.099395000000    -1.245093000000    -1.972522000000    15.994914619570
         H           -0.525908000000    -1.852204000000    -2.373265000000     1.007825032230
         H            0.897570000000    -1.353097000000    -2.425965000000     1.007825032230
      Gh(O)          -0.577192000000    -2.096889000000     1.451220000000    15.994914619570
      Gh(H)          -0.502479000000    -1.745663000000     2.351427000000     1.007825032230
      Gh(H)          -0.878722000000    -2.990788000000     1.553783000000     1.007825032230
      Gh(O)          -1.109273000000     1.078842000000     1.946875000000    15.994914619570
      Gh(H)          -1.010859000000     0.585553000000     2.773577000000     1.007825032230
      Gh(H)          -1.699356000000     1.860468000000     2.119333000000     1.007825032230
      Gh(O)           2.116279000000     0.093364000000     1.509554000000    15.994914619570
      Gh(H)           2.034470000000     0.874012000000     2.152355000000     1.007825032230
      Gh(H)           2.186417000000    -0.715612000000     2.045233000000     1.007825032230

  Charge       = 0
  Multiplicity = 1
  Basis Set: AUG-CC-PVTZ
    Blend: AUG-CC-PVTZ
  Basis Set: (AUG-CC-PVTZ AUX)
    Blend: AUG-CC-PVTZ-JKFIT + DEF2-UNIVERSAL-JKFIT

    Orbital Energies [Eh]
    ---------------------

    Doubly Occupied:

       1A    -20.563309     2A     -1.360490     3A     -0.730339
       4A     -0.583818     5A     -0.511077

  @DF-RHF Final Energy:   -76.06062671189945

   => Energetics <=

    Nuclear Repulsion Energy =              9.3438597985977321
    One-Electron Energy =                -123.3109044011097808
    Two-Electron Energy =                  37.9064178906126017
    Total Energy =                        -76.0606267118994452
 Dipole X            :         -2.0827836            2.2049740            0.1221904
 Dipole Y            :         24.3989965          -24.8802192           -0.4812227
 Dipole Z            :         38.3119862          -38.8894412           -0.5774549
 Magnitude           :                                                    0.7615510
  Basis Set: (AUG-CC-PVTZ AUX)
    Blend: AUG-CC-PVTZ-RI + DEF2-QZVPP-RI
	 Reference Energy          =     -76.0606267118994452 [Eh]
	 Singles Energy            =      -0.0000000000000000 [Eh]
	 Same-Spin Energy          =      -0.0680961650945865 [Eh]
	 Opposite-Spin Energy      =      -0.2148524651382112 [Eh]
	 Correlation Energy        =      -0.2829486302327978 [Eh]
	 Total Energy              =     -76.3435753421322403 [Eh]

	 ================> DF-SCS-MP2 Energies <==================
	-----------------------------------------------------------
	 SCS Same-Spin Scale       =       0.3333333333333333 [-]
	 SCS Opposite-Spin Scale   =       1.2000000000000000 [-]
	 SCS Same-Spin Energy      =      -0.0226987216981955 [Eh]
	 SCS Opposite-Spin Energy  =      -0.2578229581658534 [Eh]
	 SCS Correlation Energy    =      -0.2805216798640490 [Eh]
	 SCS Total Energy          =     -76.3411483917634968 [Eh]
	-----------------------------------------------------------

*** Psi4 exiting successfully. Buy a developer a beer!
