                               Psi4 1.8.2 release

  ==> Input File <==

--------------------------------------------------------------------------
MEMORY 60 GB

molecule dimer {
1 1
Na         0.000000     0.000000     0.000000
Gh(O)      1.692917     1.592615     0.480622
Gh(H)      2.586663     1.486171     0.100037
Gh(H)      1.727856     2.356221     1.061969
Gh(O)     -1.389429    -1.947879    -0.873259
Gh(H)     -0.995256    -2.536833    -1.500073
Gh(H)     -2.243648    -1.766646    -1.123488
Gh(O)      2.076813    -1.377446     0.020620
Gh(H)      2.625603    -2.126282    -0.266841
Gh(H)      2.516735    -1.045054     0.792393
Gh(O)     -0.594482     1.641239    -1.699071
Gh(H)      0.125257     2.036144    -2.302619
Gh(H)     -1.490431     1.945166    -1.907436
Gh(O)     -1.394789     1.438669     1.679367
Gh(H)     -2.318786     1.491294     1.965205
Gh(H)     -1.357392     2.233936     1.154702

units ang
no_reorient
no_com
symmetry c1
}

set {
basis        aug-cc-pVTZ
scf_type     df
}

energy("mp2")
--------------------------------------------------------------------------

    Molecular point group: c1

    Geometry (in Angstrom), charge = 1, multiplicity = 1:

       Center              X                  Y                   Z               Mass
    ------------   -----------------  -----------------  -----------------  -----------------
         NA           0.000000000000     0.000000000000     0.000000000000    22.989769282000
      Gh(O)           1.692917000000     1.592615000000     0.480622000000    15.994914619570
      Gh(H)           2.586663000000     1.486171000000     0.100037000000     1.007825032230
      Gh(H)           1.727856000000     2.356221000000     1.061969000000     1.007825032230
      Gh(O)          -1.389429000000    -1.947879000000    -0.873259000000    15.994914619570
      Gh(H)          -0.995256000000    -2.536833000000    -1.500073000000     1.007825032230
      Gh(H)          -2.243648000000    -1.766646000000    -1.123488000000     1.007825032230
      Gh(O)           2.076813000000    -1.377446000000     0.020620000000    15.994914619570
      Gh(H)           2.625603000000    -2.126282000000    -0.266841000000     1.007825032230
      Gh(H)           2.516735000000    -1.045054000000     0.792393000000     1.007825032230
      Gh(O)          -0.594482000000     1.641239000000    -1.699071000000    15.994914619570
      Gh(H)           0.125257000000     2.036144000000    -2.302619000000     1.007825032230
      Gh(H)          -1.490431000000     1.945166000000    -1.907436000000     1.007825032230
      Gh(O)          -1.394789000000     1.438669000000     1.679367000000    15.994914619570
      Gh(H)          -2.318786000000     1.491294000000     1.965205000000     1.007825032230
      Gh(H)          -1.357392000000     2.233936000000     1.154702000000     1.007825032230

  Charge       = 1
  Multiplicity = 1
  Basis Set: AUG-CC-PVTZ
    Blend: AUG-CC-PVTZ
  Basis Set: (AUG-CC-PVTZ AUX)
    Blend: AUG-CC-PVTZ-JKFIT + DEF2-UNIVERSAL-JKFIT

    Orbital Energies [Eh]
    ---------------------

    Doubly Occupied:

       1A    -40.760684     2A     -3.073902     3A     -1.797251
       4A     -1.797241     5A     -1.797191

  @DF-RHF Final Energy:  -161.67608726488592

   => Energetics <=

    Nuclear Repulsion Energy =              0.0000000000000000
    One-Electron Energy =                -224.8996350394006072
    Two-Electron Energy =                  63.2235477745146710
    Total Energy =                       -161.6760872648859504
 Dipole X            :          0.0000558            0.0000000            0.0000558
 Dipole Y            :          0.0000840            0.0000000            0.0000840
 Dipole Z            :          0.0000336            0.0000000            0.0000336
 Magnitude           :                                                    0.0001063
  Basis Set: (AUG-CC-PVTZ AUX)
    Blend: AUG-CC-PVTZ-RI + DEF2-QZVPP-RI
	 Reference Energy          =    -161.6760872648859220 [Eh]
	 Singles Energy            =      -0.0000000000000000 [Eh]
	 Same-Spin Energy          =      -0.0055693889582846 [Eh]
	 Opposite-Spin Energy      =      -0.0174589274184267 [Eh]
	 Correlation Energy        =      -0.0230283163767113 [Eh]
	 Total Energy              =    -161.6991155812626459 [Eh]

	 ================> DF-SCS-MP2 Energies <==================
	-----------------------------------------------------------
	 SCS Same-Spin Scale       =       0.3333333333333333 [-]
	 SCS Opposite-Spin Scale   =       1.2000000000000000 [-]
	 SCS Same-Spin Energy      =      -0.0018564629860949 [Eh]
	 SCS Opposite-Spin Energy  =      -0.0209507129021120 [Eh]
	 SCS Correlation Energy    =      -0.0228071758882069 [Eh]
	 SCS Total Energy          =    -161.6988944407741258 [Eh]
	-----------------------------------------------------------

*** Psi4 exiting successfully. Buy a developer a beer!
