                               Psi4 1.8.2 release

  ==> Input File <==

--------------------------------------------------------------------------
MEMORY 60 GB

molecule dimer {
1 1
Na         0.000000     0.000000     0.000000
O         -1.982434     0.371909     1.103721
H         -1.999968    -0.133509     1.915544
H         -2.677161    -0.029523     0.520499
O         -0.506861     1.576105    -1.534582
H         -1.312414     2.123471    -1.457035
H          0.255777     2.156557    -1.829559
O          1.680895    -0.267523    -1.814314
H          1.826160     0.587119    -2.126473
H          2.577908    -0.601219    -1.659205
O          1.269075    -0.963815     1.515438
H          1.588209    -1.762903     1.072335
H          1.939449    -0.207875     1.425336

units ang
no_reorient
no_com
symmetry c1
}

set {
basis        aug-cc-pVTZ
scf_type     df
}

energy("mp2")
--------------------------------------------------------------------------

    Molecular point group: c1

    Geometry (in Angstrom), charge = 1, multiplicity = 1:

       Center              X                  Y                   Z               Mass
    ------------   -----------------  -----------------  -----------------  -----------------
         NA           0.000000000000     0.000000000000     0.000000000000    22.989769282000
         O           -1.982434000000     0.371909000000     1.103721000000    15.994914619570
         H           -1.999968000000    -0.133509000000     1.915544000000     1.007825032230
         H           -2.677161000000    -0.029523000000     0.520499000000     1.007825032230
         O           -0.506861000000     1.576105000000    -1.534582000000    15.994914619570
         H           -1.312414000000     2.123471000000    -1.457035000000     1.007825032230
         H            0.255777000000     2.156557000000    -1.829559000000     1.007825032230
         O            1.680895000000    -0.267523000000    -1.814314000000    15.994914619570
         H            1.826160000000     0.587119000000    -2.126473000000     1.007825032230
         H            2.577908000000    -0.601219000000    -1.659205000000     1.007825032230
         O            1.269075000000    -0.963815000000     1.515438000000    15.994914619570
         H            1.588209000000    -1.762903000000     1.072335000000     1.007825032230
         H            1.939449000000    -0.207875000000     1.425336000000     1.007825032230

  Charge       = 1
  Multiplicity = 1
  Basis Set: AUG-CC-PVTZ
    Blend: AUG-CC-PVTZ
  Basis Set: (AUG-CC-PVTZ AUX)
    Blend: AUG-CC-PVTZ-JKFIT + DEF2-UNIVERSAL-JKFIT

    Orbital Energies [Eh]
    ---------------------

    Doubly Occupied:

       1A    -40.578826     2A    -20.751020     3A    -20.744542
       4A    -20.738927     5A    -20.736808     6A     -2.904329
       7A     -1.631280     8A     -1.629542     9A     -1.628107
      10A     -1.537401    11A     -1.520046    12A     -1.515626
      13A     -1.512792    14A     -0.904430    15A     -0.896130
      16A     -0.882477    17A     -0.877899    18A     -0.777271
      19A     -0.760737    20A     -0.755432    21A     -0.753510
      22A     -0.704003    23A     -0.689830    24A     -0.685904
      25A     -0.684289

  @DF-RHF Final Energy:  -465.99638638993576

   => Energetics <=

    Nuclear Repulsion Energy =            219.5562556523434239
    One-Electron Energy =               -1077.5029678414693990
    Two-Electron Energy =                 391.9503257991901819
    Total Energy =                       -465.9963863899357648
 Dipole X            :        -10.2768315           11.1179391            0.8411076
 Dipole Y            :        -14.3488474           14.8636900            0.5148426
 Dipole Z            :         14.5730069          -15.0733135           -0.5003067
 Magnitude           :                                                    1.1058171
  Basis Set: (AUG-CC-PVTZ AUX)
    Blend: AUG-CC-PVTZ-RI + DEF2-QZVPP-RI
	 Reference Energy          =    -465.9963863899357648 [Eh]
	 Singles Energy            =      -0.0000000000000000 [Eh]
	 Same-Spin Energy          =      -0.2814227526229334 [Eh]
	 Opposite-Spin Energy      =      -0.8817681130863242 [Eh]
	 Correlation Energy        =      -1.1631908657092576 [Eh]
	 Total Energy              =    -467.1595772556450470 [Eh]

	 ================> DF-SCS-MP2 Energies <==================
	-----------------------------------------------------------
	 SCS Same-Spin Scale       =       0.3333333333333333 [-]
	 SCS Opposite-Spin Scale   =       1.2000000000000000 [-]
	 SCS Same-Spin Energy      =      -0.0938075842076445 [Eh]
	 SCS Opposite-Spin Energy  =      -1.0581217357035890 [Eh]
	 SCS Correlation Energy    =      -1.1519293199112335 [Eh]
	 SCS Total Energy          =    -467.1483157098469974 [Eh]
	-----------------------------------------------------------

*** Psi4 exiting successfully. Buy a developer a beer!
