                               Psi4 1.8.2 release

  ==> Input File <==

--------------------------------------------------------------------------
MEMORY 60 GB

molecule dimer {
0 1
Gh(Na)     0.000000     0.000000     0.000000
Gh(O)      1.253379    -0.553947    -1.795986
Gh(H)      1.273490    -1.231624    -2.437543
Gh(H)      2.156284    -0.245421    -1.763626
O          1.653641    -0.225820     1.459891
H          2.288234     0.493100     1.361670
H          1.659884    -0.507457     2.410014
Gh(O)     -0.197384    -2.387924     0.118493
Gh(H)      0.422453    -2.904071     0.645872
Gh(H)     -0.888605    -3.002090    -0.148393
Gh(O)     -0.691979     1.747232     1.638579
Gh(H)     -0.060873     2.000291     2.305818
Gh(H)     -0.951374     2.650499     1.367873

units ang
no_reorient
no_com
symmetry c1
}

set {
basis        aug-cc-pVTZ
scf_type     df
}

energy("mp2")
--------------------------------------------------------------------------

    Molecular point group: c1

    Geometry (in Angstrom), charge = 0, multiplicity = 1:

       Center              X                  Y                   Z               Mass
    ------------   -----------------  -----------------  -----------------  -----------------
      Gh(NA)          0.000000000000     0.000000000000     0.000000000000    22.989769282000
      Gh(O)           1.253379000000    -0.553947000000    -1.795986000000    15.994914619570
      Gh(H)           1.273490000000    -1.231624000000    -2.437543000000     1.007825032230
      Gh(H)           2.156284000000    -0.245421000000    -1.763626000000     1.007825032230
         O            1.653641000000    -0.225820000000     1.459891000000    15.994914619570
         H            2.288234000000     0.493100000000     1.361670000000     1.007825032230
         H            1.659884000000    -0.507457000000     2.410014000000     1.007825032230
      Gh(O)          -0.197384000000    -2.387924000000     0.118493000000    15.994914619570
      Gh(H)           0.422453000000    -2.904071000000     0.645872000000     1.007825032230
      Gh(H)          -0.888605000000    -3.002090000000    -0.148393000000     1.007825032230
      Gh(O)          -0.691979000000     1.747232000000     1.638579000000    15.994914619570
      Gh(H)          -0.060873000000     2.000291000000     2.305818000000     1.007825032230
      Gh(H)          -0.951374000000     2.650499000000     1.367873000000     1.007825032230

  Charge       = 0
  Multiplicity = 1
  Basis Set: AUG-CC-PVTZ
    Blend: AUG-CC-PVTZ
  Basis Set: (AUG-CC-PVTZ AUX)
    Blend: AUG-CC-PVTZ-JKFIT + DEF2-UNIVERSAL-JKFIT

    Orbital Energies [Eh]
    ---------------------

    Doubly Occupied:

       1A    -20.568954     2A     -1.341197     3A     -0.712787
       4A     -0.574595     5A     -0.507676

  @DF-RHF Final Energy:   -76.05813270402896

   => Energetics <=

    Nuclear Repulsion Energy =              8.9985942291167262
    One-Electron Energy =                -122.7030322868398429
    Two-Electron Energy =                  37.6463053536941317
    Total Energy =                        -76.0581327040289779
 Dipole X            :        -32.0335185           32.4602905            0.4267720
 Dipole Y            :          3.7335152           -3.4410344            0.2924808
 Dipole Z            :        -28.6356635           29.1978031            0.5621396
 Magnitude           :                                                    0.7639897
  Basis Set: (AUG-CC-PVTZ AUX)
    Blend: AUG-CC-PVTZ-RI + DEF2-QZVPP-RI
	 Reference Energy          =     -76.0581327040289636 [Eh]
	 Singles Energy            =      -0.0000000000000000 [Eh]
	 Same-Spin Energy          =      -0.0687090839387499 [Eh]
	 Opposite-Spin Energy      =      -0.2168102409756811 [Eh]
	 Correlation Energy        =      -0.2855193249144310 [Eh]
	 Total Energy              =     -76.3436520289433957 [Eh]

	 ================> DF-SCS-MP2 Energies <==================
	-----------------------------------------------------------
	 SCS Same-Spin Scale       =       0.3333333333333333 [-]
	 SCS Opposite-Spin Scale   =       1.2000000000000000 [-]
	 SCS Same-Spin Energy      =      -0.0229030279795833 [Eh]
	 SCS Opposite-Spin Energy  =      -0.2601722891708173 [Eh]
	 SCS Correlation Energy    =      -0.2830753171504006 [Eh]
	 SCS Total Energy          =     -76.3412080211793693 [Eh]
	-----------------------------------------------------------

*** Psi4 exiting successfully. Buy a developer a beer!
