                               Psi4 1.8.2 release

  ==> Input File <==

--------------------------------------------------------------------------
MEMORY 60 GB

molecule dimer {
0 1
Gh(Na)     0.000000     0.000000     0.000000
Gh(O)      1.371989     0.328574     1.684326
Gh(H)      0.873769     0.178210     2.485652
Gh(H)      1.644220     1.255675     1.693557
O          1.274054     1.156590    -1.522421
H          2.143789     0.686938    -1.689336
H          1.589642     1.858926    -0.865452
Gh(O)     -0.454922    -1.892188     1.128252
Gh(H)     -0.218035    -2.740225     0.777085
Gh(H)     -1.339420    -1.998303     1.395279
Gh(O)     -2.133645    -0.099464    -1.426698
Gh(H)     -2.740263    -0.005265    -0.688170
Gh(H)     -2.763796     0.016320    -2.131063
Gh(O)     -1.451092     1.948369     0.243257
Gh(H)     -0.996390     2.756909     0.501988
Gh(H)     -2.021890     2.166962    -0.562477

units ang
no_reorient
no_com
symmetry c1
}

set {
basis        aug-cc-pVTZ
scf_type     df
}

energy("mp2")
--------------------------------------------------------------------------

    Molecular point group: c1

    Geometry (in Angstrom), charge = 0, multiplicity = 1:

       Center              X                  Y                   Z               Mass
    ------------   -----------------  -----------------  -----------------  -----------------
      Gh(NA)          0.000000000000     0.000000000000     0.000000000000    22.989769282000
      Gh(O)           1.371989000000     0.328574000000     1.684326000000    15.994914619570
      Gh(H)           0.873769000000     0.178210000000     2.485652000000     1.007825032230
      Gh(H)           1.644220000000     1.255675000000     1.693557000000     1.007825032230
         O            1.274054000000     1.156590000000    -1.522421000000    15.994914619570
         H            2.143789000000     0.686938000000    -1.689336000000     1.007825032230
         H            1.589642000000     1.858926000000    -0.865452000000     1.007825032230
      Gh(O)          -0.454922000000    -1.892188000000     1.128252000000    15.994914619570
      Gh(H)          -0.218035000000    -2.740225000000     0.777085000000     1.007825032230
      Gh(H)          -1.339420000000    -1.998303000000     1.395279000000     1.007825032230
      Gh(O)          -2.133645000000    -0.099464000000    -1.426698000000    15.994914619570
      Gh(H)          -2.740263000000    -0.005265000000    -0.688170000000     1.007825032230
      Gh(H)          -2.763796000000     0.016320000000    -2.131063000000     1.007825032230
      Gh(O)          -1.451092000000     1.948369000000     0.243257000000    15.994914619570
      Gh(H)          -0.996390000000     2.756909000000     0.501988000000     1.007825032230
      Gh(H)          -2.021890000000     2.166962000000    -0.562477000000     1.007825032230

  Charge       = 0
  Multiplicity = 1
  Basis Set: AUG-CC-PVTZ
    Blend: AUG-CC-PVTZ
  Basis Set: (AUG-CC-PVTZ AUX)
    Blend: AUG-CC-PVTZ-JKFIT + DEF2-UNIVERSAL-JKFIT

    Orbital Energies [Eh]
    ---------------------

    Doubly Occupied:

       1A    -20.577831     2A     -1.332568     3A     -0.681817
       4A     -0.585040     5A     -0.508092

  @DF-RHF Final Energy:   -76.05244489353370

   => Energetics <=

    Nuclear Repulsion Energy =              8.7501819582766398
    One-Electron Energy =                -122.2345544699846300
    Two-Electron Energy =                  37.4319276181742850
    Total Energy =                        -76.0524448935337034
 Dipole X            :        -25.5618842           26.3160671            0.7541829
 Dipole Y            :        -22.1495317           22.2960924            0.1465608
 Dipole Z            :         28.1538539          -27.8435195            0.3103344
 Magnitude           :                                                    0.8286008
  Basis Set: (AUG-CC-PVTZ AUX)
    Blend: AUG-CC-PVTZ-RI + DEF2-QZVPP-RI
	 Reference Energy          =     -76.0524448935337034 [Eh]
	 Singles Energy            =      -0.0000000000000000 [Eh]
	 Same-Spin Energy          =      -0.0694499957793193 [Eh]
	 Opposite-Spin Energy      =      -0.2190629383157580 [Eh]
	 Correlation Energy        =      -0.2885129340950773 [Eh]
	 Total Energy              =     -76.3409578276287846 [Eh]

	 ================> DF-SCS-MP2 Energies <==================
	-----------------------------------------------------------
	 SCS Same-Spin Scale       =       0.3333333333333333 [-]
	 SCS Opposite-Spin Scale   =       1.2000000000000000 [-]
	 SCS Same-Spin Energy      =      -0.0231499985931064 [Eh]
	 SCS Opposite-Spin Energy  =      -0.2628755259789096 [Eh]
	 SCS Correlation Energy    =      -0.2860255245720161 [Eh]
	 SCS Total Energy          =     -76.3384704181057145 [Eh]
	-----------------------------------------------------------

*** Psi4 exiting successfully. Buy a developer a beer!
