                               Psi4 1.8.2 release

  ==> Input File <==

--------------------------------------------------------------------------
MEMORY 60 GB

molecule dimer {
0 1
Gh(Na)     0.000000     0.000000     0.000000
O         -1.748724     1.414062     0.874886
H         -1.689945     2.308594     0.549541
H         -2.361366     1.350837     1.632814
Gh(O)      0.302414     0.965556    -2.034213
Gh(H)     -0.601270     1.062348    -2.426937
Gh(H)      0.779372     0.758555    -2.825749
Gh(O)      1.437561    -1.515632     0.722924
Gh(H)      2.205461    -0.891894     0.700578
Gh(H)      1.302992    -1.600284     1.634306
Gh(O)      1.297210     1.818155     1.214323
Gh(H)      1.433743     2.095204     2.181625
Gh(H)      2.169762     1.506935     0.937370
Gh(O)     -1.726322    -1.655173    -0.241891
Gh(H)     -2.216976    -1.775963     0.645435
Gh(H)     -1.679070    -2.537642    -0.673875

units ang
no_reorient
no_com
symmetry c1
}

set {
basis        aug-cc-pVTZ
scf_type     df
}

energy("mp2")
--------------------------------------------------------------------------

    Molecular point group: c1

    Geometry (in Angstrom), charge = 0, multiplicity = 1:

       Center              X                  Y                   Z               Mass
    ------------   -----------------  -----------------  -----------------  -----------------
      Gh(NA)          0.000000000000     0.000000000000     0.000000000000    22.989769282000
         O           -1.748724000000     1.414062000000     0.874886000000    15.994914619570
         H           -1.689945000000     2.308594000000     0.549541000000     1.007825032230
         H           -2.361366000000     1.350837000000     1.632814000000     1.007825032230
      Gh(O)           0.302414000000     0.965556000000    -2.034213000000    15.994914619570
      Gh(H)          -0.601270000000     1.062348000000    -2.426937000000     1.007825032230
      Gh(H)           0.779372000000     0.758555000000    -2.825749000000     1.007825032230
      Gh(O)           1.437561000000    -1.515632000000     0.722924000000    15.994914619570
      Gh(H)           2.205461000000    -0.891894000000     0.700578000000     1.007825032230
      Gh(H)           1.302992000000    -1.600284000000     1.634306000000     1.007825032230
      Gh(O)           1.297210000000     1.818155000000     1.214323000000    15.994914619570
      Gh(H)           1.433743000000     2.095204000000     2.181625000000     1.007825032230
      Gh(H)           2.169762000000     1.506935000000     0.937370000000     1.007825032230
      Gh(O)          -1.726322000000    -1.655173000000    -0.241891000000    15.994914619570
      Gh(H)          -2.216976000000    -1.775963000000     0.645435000000     1.007825032230
      Gh(H)          -1.679070000000    -2.537642000000    -0.673875000000     1.007825032230

  Charge       = 0
  Multiplicity = 1
  Basis Set: AUG-CC-PVTZ
    Blend: AUG-CC-PVTZ
  Basis Set: (AUG-CC-PVTZ AUX)
    Blend: AUG-CC-PVTZ-JKFIT + DEF2-UNIVERSAL-JKFIT

    Orbital Energies [Eh]
    ---------------------

    Doubly Occupied:

       1A    -20.565187     2A     -1.344856     3A     -0.725913
       4A     -0.570111     5A     -0.507562

  @DF-RHF Final Energy:   -76.05897729210999

   => Energetics <=

    Nuclear Repulsion Energy =              9.1057728418832973
    One-Electron Energy =                -122.9022359198427239
    Two-Electron Energy =                  37.7374857858494437
    Total Energy =                        -76.0589772921099865
 Dipole X            :         33.7195453          -34.0927437           -0.3731984
 Dipole Y            :        -27.7291752           28.2928416            0.5636664
 Dipole Z            :        -17.0602261           17.3504127            0.2901866
 Magnitude           :                                                    0.7356665
  Basis Set: (AUG-CC-PVTZ AUX)
    Blend: AUG-CC-PVTZ-RI + DEF2-QZVPP-RI
	 Reference Energy          =     -76.0589772921099865 [Eh]
	 Singles Energy            =      -0.0000000000000000 [Eh]
	 Same-Spin Energy          =      -0.0684615049904251 [Eh]
	 Opposite-Spin Energy      =      -0.2159237322948437 [Eh]
	 Correlation Energy        =      -0.2843852372852688 [Eh]
	 Total Energy              =     -76.3433625293952502 [Eh]

	 ================> DF-SCS-MP2 Energies <==================
	-----------------------------------------------------------
	 SCS Same-Spin Scale       =       0.3333333333333333 [-]
	 SCS Opposite-Spin Scale   =       1.2000000000000000 [-]
	 SCS Same-Spin Energy      =      -0.0228205016634750 [Eh]
	 SCS Opposite-Spin Energy  =      -0.2591084787538125 [Eh]
	 SCS Correlation Energy    =      -0.2819289804172875 [Eh]
	 SCS Total Energy          =     -76.3409062725272776 [Eh]
	-----------------------------------------------------------

*** Psi4 exiting successfully. Buy a developer a beer!
