                               Psi4 1.8.2 release

  ==> Input File <==

--------------------------------------------------------------------------
MEMORY 60 GB

molecule dimer {
0 1
Gh(Na)     0.000000     0.000000     0.000000
O         -0.897532    -2.178500     0.017525
H         -1.843403    -2.189920     0.149337
H         -0.582756    -2.774658     0.713365
Gh(O)      1.591836     0.043402     2.008514
Gh(H)      1.716990     0.920967     2.376036
Gh(H)      1.411828    -0.601746     2.676202
Gh(O)     -1.189951     0.486911    -1.920717
Gh(H)     -1.068420     0.988809    -2.658257
Gh(H)     -2.180180     0.605188    -1.812331
Gh(O)     -0.608989     2.168295     1.082772
Gh(H)     -1.262092     2.080125     1.733612
Gh(H)     -0.903001     2.839890     0.429345
Gh(O)      1.897515     0.031709    -1.711733
Gh(H)      2.558639     0.731250    -1.645906
Gh(H)      1.496705     0.148755    -2.522837

units ang
no_reorient
no_com
symmetry c1
}

set {
basis        aug-cc-pVTZ
scf_type     df
}

energy("mp2")
--------------------------------------------------------------------------

    Molecular point group: c1

    Geometry (in Angstrom), charge = 0, multiplicity = 1:

       Center              X                  Y                   Z               Mass
    ------------   -----------------  -----------------  -----------------  -----------------
      Gh(NA)          0.000000000000     0.000000000000     0.000000000000    22.989769282000
         O           -0.897532000000    -2.178500000000     0.017525000000    15.994914619570
         H           -1.843403000000    -2.189920000000     0.149337000000     1.007825032230
         H           -0.582756000000    -2.774658000000     0.713365000000     1.007825032230
      Gh(O)           1.591836000000     0.043402000000     2.008514000000    15.994914619570
      Gh(H)           1.716990000000     0.920967000000     2.376036000000     1.007825032230
      Gh(H)           1.411828000000    -0.601746000000     2.676202000000     1.007825032230
      Gh(O)          -1.189951000000     0.486911000000    -1.920717000000    15.994914619570
      Gh(H)          -1.068420000000     0.988809000000    -2.658257000000     1.007825032230
      Gh(H)          -2.180180000000     0.605188000000    -1.812331000000     1.007825032230
      Gh(O)          -0.608989000000     2.168295000000     1.082772000000    15.994914619570
      Gh(H)          -1.262092000000     2.080125000000     1.733612000000     1.007825032230
      Gh(H)          -0.903001000000     2.839890000000     0.429345000000     1.007825032230
      Gh(O)           1.897515000000     0.031709000000    -1.711733000000    15.994914619570
      Gh(H)           2.558639000000     0.731250000000    -1.645906000000     1.007825032230
      Gh(H)           1.496705000000     0.148755000000    -2.522837000000     1.007825032230

  Charge       = 0
  Multiplicity = 1
  Basis Set: AUG-CC-PVTZ
    Blend: AUG-CC-PVTZ
  Basis Set: (AUG-CC-PVTZ AUX)
    Blend: AUG-CC-PVTZ-JKFIT + DEF2-UNIVERSAL-JKFIT

    Orbital Energies [Eh]
    ---------------------

    Doubly Occupied:

       1A    -20.568694     2A     -1.352582     3A     -0.711075
       4A     -0.587994     5A     -0.510542

  @DF-RHF Final Energy:   -76.06005513823644

   => Energetics <=

    Nuclear Repulsion Energy =              9.1548730718515507
    One-Electron Energy =                -122.9680809091896379
    Two-Electron Energy =                  37.7531526991016335
    Total Energy =                        -76.0600551382364500
 Dipole X            :         17.7354974          -18.1534934           -0.4179960
 Dipole Y            :         41.9162352          -42.3158397           -0.3996045
 Dipole Z            :         -1.3509441            1.8952101            0.5442660
 Magnitude           :                                                    0.7941221
  Basis Set: (AUG-CC-PVTZ AUX)
    Blend: AUG-CC-PVTZ-RI + DEF2-QZVPP-RI
	 Reference Energy          =     -76.0600551382364358 [Eh]
	 Singles Energy            =      -0.0000000000000000 [Eh]
	 Same-Spin Energy          =      -0.0685333096765976 [Eh]
	 Opposite-Spin Energy      =      -0.2161561129729632 [Eh]
	 Correlation Energy        =      -0.2846894226495608 [Eh]
	 Total Energy              =     -76.3447445608859994 [Eh]

	 ================> DF-SCS-MP2 Energies <==================
	-----------------------------------------------------------
	 SCS Same-Spin Scale       =       0.3333333333333333 [-]
	 SCS Opposite-Spin Scale   =       1.2000000000000000 [-]
	 SCS Same-Spin Energy      =      -0.0228444365588659 [Eh]
	 SCS Opposite-Spin Energy  =      -0.2593873355675558 [Eh]
	 SCS Correlation Energy    =      -0.2822317721264216 [Eh]
	 SCS Total Energy          =     -76.3422869103628585 [Eh]
	-----------------------------------------------------------

*** Psi4 exiting successfully. Buy a developer a beer!
