                               Psi4 1.8.2 release

  ==> Input File <==

--------------------------------------------------------------------------
MEMORY 60 GB

molecule dimer {
0 1
Gh(Na)     0.000000     0.000000     0.000000
O         -1.371627    -0.910990    -1.738968
H         -2.225004    -0.362023    -1.723958
H         -1.583777    -1.810688    -1.348074
Gh(O)     -1.627495     1.776149     0.403766
Gh(H)     -1.295572     2.668369     0.129330
Gh(H)     -2.180298     1.827238     1.131582
Gh(O)      1.777113    -1.842919    -0.309474
Gh(H)      1.036427    -2.184772     0.244859
Gh(H)      2.605022    -1.908448     0.154364
Gh(O)     -0.746949    -1.450897     1.784131
Gh(H)     -1.396092    -2.132055     1.814768
Gh(H)     -0.857192    -1.089903     2.632736

units ang
no_reorient
no_com
symmetry c1
}

set {
basis        aug-cc-pVTZ
scf_type     df
}

energy("mp2")
--------------------------------------------------------------------------

    Molecular point group: c1

    Geometry (in Angstrom), charge = 0, multiplicity = 1:

       Center              X                  Y                   Z               Mass
    ------------   -----------------  -----------------  -----------------  -----------------
      Gh(NA)          0.000000000000     0.000000000000     0.000000000000    22.989769282000
         O           -1.371627000000    -0.910990000000    -1.738968000000    15.994914619570
         H           -2.225004000000    -0.362023000000    -1.723958000000     1.007825032230
         H           -1.583777000000    -1.810688000000    -1.348074000000     1.007825032230
      Gh(O)          -1.627495000000     1.776149000000     0.403766000000    15.994914619570
      Gh(H)          -1.295572000000     2.668369000000     0.129330000000     1.007825032230
      Gh(H)          -2.180298000000     1.827238000000     1.131582000000     1.007825032230
      Gh(O)           1.777113000000    -1.842919000000    -0.309474000000    15.994914619570
      Gh(H)           1.036427000000    -2.184772000000     0.244859000000     1.007825032230
      Gh(H)           2.605022000000    -1.908448000000     0.154364000000     1.007825032230
      Gh(O)          -0.746949000000    -1.450897000000     1.784131000000    15.994914619570
      Gh(H)          -1.396092000000    -2.132055000000     1.814768000000     1.007825032230
      Gh(H)          -0.857192000000    -1.089903000000     2.632736000000     1.007825032230

  Charge       = 0
  Multiplicity = 1
  Basis Set: AUG-CC-PVTZ
    Blend: AUG-CC-PVTZ
  Basis Set: (AUG-CC-PVTZ AUX)
    Blend: AUG-CC-PVTZ-JKFIT + DEF2-UNIVERSAL-JKFIT

    Orbital Energies [Eh]
    ---------------------

    Doubly Occupied:

       1A    -20.574309     2A     -1.326353     3A     -0.695362
       4A     -0.569090     5A     -0.505358

  @DF-RHF Final Energy:   -76.05221965434608

   => Energetics <=

    Nuclear Repulsion Energy =              8.7147625615692021
    One-Electron Energy =                -122.1930179379857293
    Two-Electron Energy =                  37.4260357220704591
    Total Energy =                        -76.0522196543460609
 Dipole X            :         27.2420069          -27.9335480           -0.6915411
 Dipole Y            :         17.6485377          -17.8780016           -0.2294638
 Dipole Z            :         32.3585578          -32.0946852            0.2638725
 Magnitude           :                                                    0.7749267
  Basis Set: (AUG-CC-PVTZ AUX)
    Blend: AUG-CC-PVTZ-RI + DEF2-QZVPP-RI
	 Reference Energy          =     -76.0522196543460751 [Eh]
	 Singles Energy            =      -0.0000000000000000 [Eh]
	 Same-Spin Energy          =      -0.0692614191288016 [Eh]
	 Opposite-Spin Energy      =      -0.2184227542120963 [Eh]
	 Correlation Energy        =      -0.2876841733408979 [Eh]
	 Total Energy              =     -76.3399038276869675 [Eh]

	 ================> DF-SCS-MP2 Energies <==================
	-----------------------------------------------------------
	 SCS Same-Spin Scale       =       0.3333333333333333 [-]
	 SCS Opposite-Spin Scale   =       1.2000000000000000 [-]
	 SCS Same-Spin Energy      =      -0.0230871397096005 [Eh]
	 SCS Opposite-Spin Energy  =      -0.2621073050545156 [Eh]
	 SCS Correlation Energy    =      -0.2851944447641161 [Eh]
	 SCS Total Energy          =     -76.3374140991101910 [Eh]
	-----------------------------------------------------------

*** Psi4 exiting successfully. Buy a developer a beer!
