                               Psi4 1.9 release

  ==> Input File <==

--------------------------------------------------------------------------
MEMORY 60 GB

molecule dimer {
1 1
Na     0.000000     0.000000     0.000000
--
0 1
O      2.097125    -0.497024     0.761194
H      2.050085    -1.449035     0.873033
H      2.546047    -0.299517     1.556234
O      0.694124     2.052469     0.671515
H      1.544738     2.338465     0.228031
H      0.070848     2.347446    -0.028200
O     -1.811270     0.275644    -1.321325
H     -2.577804     0.825547    -1.027113
H     -1.990529     0.001056    -2.250202
O     -2.004597     0.304099     1.444740
H     -2.367149     1.218233     1.601480
H     -2.783477    -0.189314     1.246767

units ang
no_reorient
no_com
symmetry c1
}

set {
basis        aug-cc-pVTZ
scf_type     df
}

energy("mp2", bsse_type="cp")
--------------------------------------------------------------------------

                               Psi4 1.9 release
    Molecular point group: c1
  Charge       = 0
  Multiplicity = 1
  Basis Set: AUG-CC-PVTZ
    Blend: AUG-CC-PVTZ
  Basis Set: (AUG-CC-PVTZ AUX)
    Blend: AUG-CC-PVTZ-JKFIT + DEF2-UNIVERSAL-JKFIT
  @DF-RHF Final Energy:  -304.21338057287221
    Total Energy =                       -304.2133805728722109
 Dipole X            :         21.1986531          -22.1177042           -0.9190511
 Dipole Y            :        -41.1259346           41.3365968            0.2106622
 Dipole Z            :        -28.2491107           27.6826396           -0.5664711
 Magnitude           :                                                    1.0999650
  Basis Set: (AUG-CC-PVTZ AUX)
    Blend: AUG-CC-PVTZ-RI + DEF2-QZVPP-RI
	 Reference Energy          =    -304.2133805728722109 [Eh]
	 Singles Energy            =      -0.0000000000000000 [Eh]
	 Same-Spin Energy          =      -0.2778389328480905 [Eh]
	 Opposite-Spin Energy      =      -0.8711543403278676 [Eh]
	 Correlation Energy        =      -1.1489932731759582 [Eh]
	 Total Energy              =    -305.3623738460481718 [Eh]
	 SCS Total Energy          =    -305.3513787588817081 [Eh]
                               Psi4 1.9 release
    Molecular point group: c1
  Multiplicity = 1
  Basis Set: AUG-CC-PVTZ
    Blend: AUG-CC-PVTZ
  Basis Set: (AUG-CC-PVTZ AUX)
    Blend: AUG-CC-PVTZ-JKFIT + DEF2-UNIVERSAL-JKFIT
  @DF-RHF Final Energy:  -161.67608576496158
    Total Energy =                       -161.6760857649615843
  Basis Set: (AUG-CC-PVTZ AUX)
	 Singles Energy            =      -0.0000000000000000 [Eh]
	 Same-Spin Energy          =      -0.0054805498941781 [Eh]
	 Opposite-Spin Energy      =      -0.0172589697912336 [Eh]
	 Correlation Energy        =      -0.0227395196854117 [Eh]
	 Total Energy              =    -161.6988252846470004 [Eh]
	 SCS Total Energy          =    -161.6986233786757907 [Eh]
                               Psi4 1.9 release
    Molecular point group: c1

    Geometry (in Bohr), charge = 1, multiplicity = 1:

       Center              X                  Y                   Z               Mass
    ------------   -----------------  -----------------  -----------------  -----------------
         NA           0.000000000000     0.000000000000     0.000000000000    22.989769282000
         O            3.962991900851    -0.939239237780     1.438448188342    15.994914619570
         H            3.874099183909    -2.738279296203     1.649793268487     1.007825032230
         H            4.811331532544    -0.566005099919     2.940856047126     1.007825032230
         O            1.311704257107     3.878604290992     1.268979439137    15.994914619570
         H            2.919131755587     4.419058403969     0.430916138114     1.007825032230
         H            0.133883316536     4.436030034301    -0.053290276738     1.007825032230
         O           -3.422804239258     0.520891668126    -2.496942372721    15.994914619570
         H           -4.871343565110     1.560057733693    -1.940962269897     1.007825032230
         H           -3.761554654781     0.001995550788    -4.252265506957     1.007825032230
         O           -3.788139321914     0.574663825026     2.730162922494    15.994914619570
         H           -4.473263308151     2.302126726995     3.026358595398     1.007825032230
         H           -5.260009206511    -0.357751611715     2.356048172259     1.007825032230

  Charge       = 1
  Multiplicity = 1
  Basis Set: AUG-CC-PVTZ
    Blend: AUG-CC-PVTZ
  Basis Set: (AUG-CC-PVTZ AUX)
    Blend: AUG-CC-PVTZ-JKFIT + DEF2-UNIVERSAL-JKFIT

    Orbital Energies [Eh]
    ---------------------

    Doubly Occupied:

       1A    -40.583539     2A    -20.750497     3A    -20.736769
       4A    -20.732070     5A    -20.728832     6A     -2.907196
       7A     -1.633546     8A     -1.631913     9A     -1.630975
      10A     -1.532585    11A     -1.522896    12A     -1.510986
      13A     -1.507477    14A     -0.891151    15A     -0.878404
      16A     -0.868822    17A     -0.852098    18A     -0.783173
      19A     -0.776671    20A     -0.760425    21A     -0.752766
      22A     -0.697176    23A     -0.688835    24A     -0.677019
      25A     -0.670473

  @DF-RHF Final Energy:  -465.99801282820090

   => Energetics <=

    Nuclear Repulsion Energy =            221.4942576469304640
    One-Electron Energy =               -1081.5719470622134395
    Two-Electron Energy =                 394.0796765870820764
    Total Energy =                       -465.9980128282008991
 Dipole X            :         21.0819971          -22.1177042           -1.0357070
 Dipole Y            :        -40.8440467           41.3365968            0.4925501
 Dipole Z            :        -28.1218812           27.6826396           -0.4392416
 Magnitude           :                                                    1.2280993
  Basis Set: (AUG-CC-PVTZ AUX)
    Blend: AUG-CC-PVTZ-RI + DEF2-QZVPP-RI
	 Reference Energy          =    -465.9980128282008991 [Eh]
	 Singles Energy            =      -0.0000000000000000 [Eh]
	 Same-Spin Energy          =      -0.2822445356729349 [Eh]
	 Opposite-Spin Energy      =      -0.8828599311031859 [Eh]
	 Correlation Energy        =      -1.1651044667761208 [Eh]
	 Total Energy              =    -467.1631172949770416 [Eh]

	 ================> DF-SCS-MP2 Energies <==================
	-----------------------------------------------------------
	 SCS Same-Spin Scale       =       0.3333333333333333 [-]
	 SCS Opposite-Spin Scale   =       1.2000000000000000 [-]
	 SCS Same-Spin Energy      =      -0.0940815118909783 [Eh]
	 SCS Opposite-Spin Energy  =      -1.0594319173238231 [Eh]
	 SCS Correlation Energy    =      -1.1535134292148015 [Eh]
	 SCS Total Energy          =    -467.1515262574156964 [Eh]
	-----------------------------------------------------------

*** Psi4 exiting successfully. Buy a developer a beer!
