                               Psi4 1.8.2 release

  ==> Input File <==

--------------------------------------------------------------------------
MEMORY 60 GB

molecule dimer {
0 1
Gh(Na)     0.000000     0.000000     0.000000
Gh(O)     -1.276190    -1.895462    -0.040608
Gh(H)     -2.127558    -2.381803    -0.032716
Gh(H)     -0.649478    -2.617925    -0.097285
Gh(O)      1.279520    -0.856733     1.908127
Gh(H)      1.429020    -1.725810     1.617383
Gh(H)      2.152061    -0.516055     2.066464
Gh(O)      1.299180    -0.930748    -1.795194
Gh(H)      1.895986    -0.426229    -2.417540
Gh(H)      1.773401    -1.700742    -1.666497
Gh(O)     -1.150366     1.204114    -1.632613
Gh(H)     -0.622560     1.212033    -2.467742
Gh(H)     -1.635570     2.032036    -1.478611
O          1.957058     1.448042    -0.052295
H          2.006511     1.818263     0.762342
H          2.834060     1.269535    -0.454297

units ang
no_reorient
no_com
symmetry c1
}

set {
basis        aug-cc-pVTZ
scf_type     df
}

energy("mp2")
--------------------------------------------------------------------------

    Molecular point group: c1

    Geometry (in Angstrom), charge = 0, multiplicity = 1:

       Center              X                  Y                   Z               Mass
    ------------   -----------------  -----------------  -----------------  -----------------
      Gh(NA)          0.000000000000     0.000000000000     0.000000000000    22.989769282000
      Gh(O)          -1.276190000000    -1.895462000000    -0.040608000000    15.994914619570
      Gh(H)          -2.127558000000    -2.381803000000    -0.032716000000     1.007825032230
      Gh(H)          -0.649478000000    -2.617925000000    -0.097285000000     1.007825032230
      Gh(O)           1.279520000000    -0.856733000000     1.908127000000    15.994914619570
      Gh(H)           1.429020000000    -1.725810000000     1.617383000000     1.007825032230
      Gh(H)           2.152061000000    -0.516055000000     2.066464000000     1.007825032230
      Gh(O)           1.299180000000    -0.930748000000    -1.795194000000    15.994914619570
      Gh(H)           1.895986000000    -0.426229000000    -2.417540000000     1.007825032230
      Gh(H)           1.773401000000    -1.700742000000    -1.666497000000     1.007825032230
      Gh(O)          -1.150366000000     1.204114000000    -1.632613000000    15.994914619570
      Gh(H)          -0.622560000000     1.212033000000    -2.467742000000     1.007825032230
      Gh(H)          -1.635570000000     2.032036000000    -1.478611000000     1.007825032230
         O            1.957058000000     1.448042000000    -0.052295000000    15.994914619570
         H            2.006511000000     1.818263000000     0.762342000000     1.007825032230
         H            2.834060000000     1.269535000000    -0.454297000000     1.007825032230

  Charge       = 0
  Multiplicity = 1
  Basis Set: AUG-CC-PVTZ
    Blend: AUG-CC-PVTZ
  Basis Set: (AUG-CC-PVTZ AUX)
    Blend: AUG-CC-PVTZ-JKFIT + DEF2-UNIVERSAL-JKFIT

    Orbital Energies [Eh]
    ---------------------

    Doubly Occupied:

       1A    -20.559236     2A     -1.358747     3A     -0.745356
       4A     -0.570539     5A     -0.509432

  @DF-RHF Final Energy:   -76.05589500036213

   => Energetics <=

    Nuclear Repulsion Energy =              9.3756740670998795
    One-Electron Energy =                -123.3765157499192071
    Two-Electron Energy =                  37.9449466824571999
    Total Energy =                        -76.0558950003621277
 Dipole X            :        -38.0973562           38.7337825            0.6364263
 Dipole Y            :        -27.5894547           27.7263149            0.1368602
 Dipole Z            :          0.5028474           -0.2084651            0.2943822
 Magnitude           :                                                    0.7144439
  Basis Set: (AUG-CC-PVTZ AUX)
    Blend: AUG-CC-PVTZ-RI + DEF2-QZVPP-RI
	 Reference Energy          =     -76.0558950003621277 [Eh]
	 Singles Energy            =      -0.0000000000000000 [Eh]
	 Same-Spin Energy          =      -0.0679998314617549 [Eh]
	 Opposite-Spin Energy      =      -0.2145908575396071 [Eh]
	 Correlation Energy        =      -0.2825906890013620 [Eh]
	 Total Energy              =     -76.3384856893634947 [Eh]

	 ================> DF-SCS-MP2 Energies <==================
	-----------------------------------------------------------
	 SCS Same-Spin Scale       =       0.3333333333333333 [-]
	 SCS Opposite-Spin Scale   =       1.2000000000000000 [-]
	 SCS Same-Spin Energy      =      -0.0226666104872516 [Eh]
	 SCS Opposite-Spin Energy  =      -0.2575090290475285 [Eh]
	 SCS Correlation Energy    =      -0.2801756395347802 [Eh]
	 SCS Total Energy          =     -76.3360706398969029 [Eh]
	-----------------------------------------------------------

*** Psi4 exiting successfully. Buy a developer a beer!
