                               Psi4 1.8.2 release

  ==> Input File <==

--------------------------------------------------------------------------
MEMORY 60 GB

molecule dimer {
0 1
Gh(Na)     0.000000     0.000000     0.000000
Gh(O)      0.678160     2.284288    -0.397643
Gh(H)      1.614332     2.337963    -0.456092
Gh(H)      0.453059     2.958377     0.208204
Gh(O)     -1.023978    -2.189835     0.746360
Gh(H)     -0.521172    -2.711199     0.158310
Gh(H)     -0.741558    -2.343754     1.621825
O         -1.055877     1.483188     1.542185
H         -1.151422     2.354443     1.184827
H         -1.725839     1.293498     2.192923
Gh(O)      1.362518    -0.511661    -1.626750
Gh(H)      1.650715    -0.789797    -2.502568
Gh(H)      2.116689    -0.657072    -1.084660

units ang
no_reorient
no_com
symmetry c1
}

set {
basis        aug-cc-pVTZ
scf_type     df
}

energy("mp2")
--------------------------------------------------------------------------

    Molecular point group: c1

    Geometry (in Angstrom), charge = 0, multiplicity = 1:

       Center              X                  Y                   Z               Mass
    ------------   -----------------  -----------------  -----------------  -----------------
      Gh(NA)          0.000000000000     0.000000000000     0.000000000000    22.989769282000
      Gh(O)           0.678160000000     2.284288000000    -0.397643000000    15.994914619570
      Gh(H)           1.614332000000     2.337963000000    -0.456092000000     1.007825032230
      Gh(H)           0.453059000000     2.958377000000     0.208204000000     1.007825032230
      Gh(O)          -1.023978000000    -2.189835000000     0.746360000000    15.994914619570
      Gh(H)          -0.521172000000    -2.711199000000     0.158310000000     1.007825032230
      Gh(H)          -0.741558000000    -2.343754000000     1.621825000000     1.007825032230
         O           -1.055877000000     1.483188000000     1.542185000000    15.994914619570
         H           -1.151422000000     2.354443000000     1.184827000000     1.007825032230
         H           -1.725839000000     1.293498000000     2.192923000000     1.007825032230
      Gh(O)           1.362518000000    -0.511661000000    -1.626750000000    15.994914619570
      Gh(H)           1.650715000000    -0.789797000000    -2.502568000000     1.007825032230
      Gh(H)           2.116689000000    -0.657072000000    -1.084660000000     1.007825032230

  Charge       = 0
  Multiplicity = 1
  Basis Set: AUG-CC-PVTZ
    Blend: AUG-CC-PVTZ
  Basis Set: (AUG-CC-PVTZ AUX)
    Blend: AUG-CC-PVTZ-JKFIT + DEF2-UNIVERSAL-JKFIT

    Orbital Energies [Eh]
    ---------------------

    Doubly Occupied:

       1A    -20.562426     2A     -1.352296     3A     -0.735389
       4A     -0.572278     5A     -0.508795

  @DF-RHF Final Energy:   -76.06030050111151

   => Energetics <=

    Nuclear Repulsion Energy =              9.2511496875632098
    One-Electron Energy =                -123.1605291798395143
    Two-Electron Energy =                  37.8490789911647809
    Total Energy =                        -76.0603005011115272
 Dipole X            :         20.8770669          -21.3997821           -0.5227152
 Dipole Y            :        -28.8495546           29.3161623            0.4666077
 Dipole Z            :        -29.4972564           29.6974807            0.2002243
 Magnitude           :                                                    0.7287275
  Basis Set: (AUG-CC-PVTZ AUX)
    Blend: AUG-CC-PVTZ-RI + DEF2-QZVPP-RI
	 Reference Energy          =     -76.0603005011115130 [Eh]
	 Singles Energy            =      -0.0000000000000000 [Eh]
	 Same-Spin Energy          =      -0.0682022518717601 [Eh]
	 Opposite-Spin Energy      =      -0.2151177844031198 [Eh]
	 Correlation Energy        =      -0.2833200362748799 [Eh]
	 Total Energy              =     -76.3436205373863999 [Eh]

	 ================> DF-SCS-MP2 Energies <==================
	-----------------------------------------------------------
	 SCS Same-Spin Scale       =       0.3333333333333333 [-]
	 SCS Opposite-Spin Scale   =       1.2000000000000000 [-]
	 SCS Same-Spin Energy      =      -0.0227340839572534 [Eh]
	 SCS Opposite-Spin Energy  =      -0.2581413412837438 [Eh]
	 SCS Correlation Energy    =      -0.2808754252409972 [Eh]
	 SCS Total Energy          =     -76.3411759263525056 [Eh]
	-----------------------------------------------------------

*** Psi4 exiting successfully. Buy a developer a beer!
