                               Psi4 1.8.2 release

  ==> Input File <==

--------------------------------------------------------------------------
MEMORY 60 GB

molecule dimer {
1 1
Na         0.000000     0.000000     0.000000
O          0.678160     2.284288    -0.397643
H          1.614332     2.337963    -0.456092
H          0.453059     2.958377     0.208204
O         -1.023978    -2.189835     0.746360
H         -0.521172    -2.711199     0.158310
H         -0.741558    -2.343754     1.621825
O         -1.055877     1.483188     1.542185
H         -1.151422     2.354443     1.184827
H         -1.725839     1.293498     2.192923
O          1.362518    -0.511661    -1.626750
H          1.650715    -0.789797    -2.502568
H          2.116689    -0.657072    -1.084660

units ang
no_reorient
no_com
symmetry c1
}

set {
basis        aug-cc-pVTZ
scf_type     df
}

energy("mp2")
--------------------------------------------------------------------------

    Molecular point group: c1

    Geometry (in Angstrom), charge = 1, multiplicity = 1:

       Center              X                  Y                   Z               Mass
    ------------   -----------------  -----------------  -----------------  -----------------
         NA           0.000000000000     0.000000000000     0.000000000000    22.989769282000
         O            0.678160000000     2.284288000000    -0.397643000000    15.994914619570
         H            1.614332000000     2.337963000000    -0.456092000000     1.007825032230
         H            0.453059000000     2.958377000000     0.208204000000     1.007825032230
         O           -1.023978000000    -2.189835000000     0.746360000000    15.994914619570
         H           -0.521172000000    -2.711199000000     0.158310000000     1.007825032230
         H           -0.741558000000    -2.343754000000     1.621825000000     1.007825032230
         O           -1.055877000000     1.483188000000     1.542185000000    15.994914619570
         H           -1.151422000000     2.354443000000     1.184827000000     1.007825032230
         H           -1.725839000000     1.293498000000     2.192923000000     1.007825032230
         O            1.362518000000    -0.511661000000    -1.626750000000    15.994914619570
         H            1.650715000000    -0.789797000000    -2.502568000000     1.007825032230
         H            2.116689000000    -0.657072000000    -1.084660000000     1.007825032230

  Charge       = 1
  Multiplicity = 1
  Basis Set: AUG-CC-PVTZ
    Blend: AUG-CC-PVTZ
  Basis Set: (AUG-CC-PVTZ AUX)
    Blend: AUG-CC-PVTZ-JKFIT + DEF2-UNIVERSAL-JKFIT

    Orbital Energies [Eh]
    ---------------------

    Doubly Occupied:

       1A    -40.591133     2A    -20.749711     3A    -20.728533
       4A    -20.727964     5A    -20.724239     6A     -2.913223
       7A     -1.639586     8A     -1.637775     9A     -1.636672
      10A     -1.545011    11A     -1.534936    12A     -1.527569
      13A     -1.519768    14A     -0.917753    15A     -0.908695
      16A     -0.904554    17A     -0.883141    18A     -0.791480
      19A     -0.768091    20A     -0.752525    21A     -0.746508
      22A     -0.701875    23A     -0.683875    24A     -0.680259
      25A     -0.677276

  @DF-RHF Final Energy:  -466.01055300588416

   => Energetics <=

    Nuclear Repulsion Energy =            216.3700159093022251
    One-Electron Energy =               -1070.9768271912514592
    Two-Electron Energy =                 388.5962582760651003
    Total Energy =                       -466.0105530058841623
 Dipole X            :         -1.3829364            2.6104450            1.2275086
 Dipole Y            :        -20.4766100           20.7308606            0.2542507
 Dipole Z            :         -6.0105151            6.4930706            0.4825556
 Magnitude           :                                                    1.3432351
  Basis Set: (AUG-CC-PVTZ AUX)
    Blend: AUG-CC-PVTZ-RI + DEF2-QZVPP-RI
	 Reference Energy          =    -466.0105530058841623 [Eh]
	 Singles Energy            =      -0.0000000000000000 [Eh]
	 Same-Spin Energy          =      -0.2792850009040053 [Eh]
	 Opposite-Spin Energy      =      -0.8753302348818148 [Eh]
	 Correlation Energy        =      -1.1546152357858201 [Eh]
	 Total Energy              =    -467.1651682416699600 [Eh]

	 ================> DF-SCS-MP2 Energies <==================
	-----------------------------------------------------------
	 SCS Same-Spin Scale       =       0.3333333333333333 [-]
	 SCS Opposite-Spin Scale   =       1.2000000000000000 [-]
	 SCS Same-Spin Energy      =      -0.0930950003013351 [Eh]
	 SCS Opposite-Spin Energy  =      -1.0503962818581778 [Eh]
	 SCS Correlation Energy    =      -1.1434912821595129 [Eh]
	 SCS Total Energy          =    -467.1540442880436785 [Eh]
	-----------------------------------------------------------

*** Psi4 exiting successfully. Buy a developer a beer!
