                               Psi4 1.8.2 release

  ==> Input File <==

--------------------------------------------------------------------------
MEMORY 60 GB

molecule dimer {
0 1
Gh(Na)     0.000000     0.000000     0.000000
Gh(O)     -0.033562     0.651864    -2.283036
Gh(H)      0.894796     0.893756    -2.460802
Gh(H)     -0.574548     1.432965    -2.476385
Gh(O)      2.159584    -0.736393     0.244526
Gh(H)      2.484224    -0.797737    -0.668585
Gh(H)      2.769476    -0.050577     0.618321
O          1.010079     1.997128     0.381980
H          1.335088     1.941477     1.298553
H          1.836526     2.246424    -0.124748
Gh(O)     -0.693443    -2.201180    -0.087038
Gh(H)     -1.384165    -2.200407     0.626177
Gh(H)     -1.159158    -2.555826    -0.870984
Gh(O)     -0.562174    -0.147253     2.221974
Gh(H)      0.059516    -0.569628     2.892423
Gh(H)     -0.988942     0.664075     2.631446
Gh(O)     -2.540820     0.600282    -0.110639
Gh(H)     -2.964940    -0.234719     0.142310
Gh(H)     -2.996517     1.319936     0.377222

units ang
no_reorient
no_com
symmetry c1
}

set {
basis        aug-cc-pVTZ
scf_type     df
}

energy("mp2")
--------------------------------------------------------------------------

    Molecular point group: c1

    Geometry (in Angstrom), charge = 0, multiplicity = 1:

       Center              X                  Y                   Z               Mass
    ------------   -----------------  -----------------  -----------------  -----------------
      Gh(NA)          0.000000000000     0.000000000000     0.000000000000    22.989769282000
      Gh(O)          -0.033562000000     0.651864000000    -2.283036000000    15.994914619570
      Gh(H)           0.894796000000     0.893756000000    -2.460802000000     1.007825032230
      Gh(H)          -0.574548000000     1.432965000000    -2.476385000000     1.007825032230
      Gh(O)           2.159584000000    -0.736393000000     0.244526000000    15.994914619570
      Gh(H)           2.484224000000    -0.797737000000    -0.668585000000     1.007825032230
      Gh(H)           2.769476000000    -0.050577000000     0.618321000000     1.007825032230
         O            1.010079000000     1.997128000000     0.381980000000    15.994914619570
         H            1.335088000000     1.941477000000     1.298553000000     1.007825032230
         H            1.836526000000     2.246424000000    -0.124748000000     1.007825032230
      Gh(O)          -0.693443000000    -2.201180000000    -0.087038000000    15.994914619570
      Gh(H)          -1.384165000000    -2.200407000000     0.626177000000     1.007825032230
      Gh(H)          -1.159158000000    -2.555826000000    -0.870984000000     1.007825032230
      Gh(O)          -0.562174000000    -0.147253000000     2.221974000000    15.994914619570
      Gh(H)           0.059516000000    -0.569628000000     2.892423000000     1.007825032230
      Gh(H)          -0.988942000000     0.664075000000     2.631446000000     1.007825032230
      Gh(O)          -2.540820000000     0.600282000000    -0.110639000000    15.994914619570
      Gh(H)          -2.964940000000    -0.234719000000     0.142310000000     1.007825032230
      Gh(H)          -2.996517000000     1.319936000000     0.377222000000     1.007825032230

  Charge       = 0
  Multiplicity = 1
  Basis Set: AUG-CC-PVTZ
    Blend: AUG-CC-PVTZ
  Basis Set: (AUG-CC-PVTZ AUX)
    Blend: AUG-CC-PVTZ-JKFIT + DEF2-UNIVERSAL-JKFIT

    Orbital Energies [Eh]
    ---------------------

    Doubly Occupied:

       1A    -20.573092     2A     -1.339940     3A     -0.697607
       4A     -0.582966     5A     -0.508567

  @DF-RHF Final Energy:   -76.05667775038462

   => Energetics <=

    Nuclear Repulsion Energy =              8.9191094638356496
    One-Electron Energy =                -122.5472280850114970
    Two-Electron Energy =                  37.5714408707912142
    Total Energy =                        -76.0566777503846367
 Dipole X            :        -20.5183676           21.2636632            0.7452956
 Dipole Y            :        -37.9813451           38.1061856            0.1248405
 Dipole Z            :         -7.7224469            7.9928707            0.2704238
 Magnitude           :                                                    0.8026080
  Basis Set: (AUG-CC-PVTZ AUX)
    Blend: AUG-CC-PVTZ-RI + DEF2-QZVPP-RI
	 Reference Energy          =     -76.0566777503846225 [Eh]
	 Singles Energy            =      -0.0000000000000000 [Eh]
	 Same-Spin Energy          =      -0.0690207040946573 [Eh]
	 Opposite-Spin Energy      =      -0.2179179856206470 [Eh]
	 Correlation Energy        =      -0.2869386897153042 [Eh]
	 Total Energy              =     -76.3436164400999218 [Eh]

	 ================> DF-SCS-MP2 Energies <==================
	-----------------------------------------------------------
	 SCS Same-Spin Scale       =       0.3333333333333333 [-]
	 SCS Opposite-Spin Scale   =       1.2000000000000000 [-]
	 SCS Same-Spin Energy      =      -0.0230069013648857 [Eh]
	 SCS Opposite-Spin Energy  =      -0.2615015827447764 [Eh]
	 SCS Correlation Energy    =      -0.2845084841096621 [Eh]
	 SCS Total Energy          =     -76.3411862344942875 [Eh]
	-----------------------------------------------------------

*** Psi4 exiting successfully. Buy a developer a beer!
