                               Psi4 1.8.2 release

  ==> Input File <==

--------------------------------------------------------------------------
MEMORY 60 GB

molecule dimer {
1 1
Na         0.000000     0.000000     0.000000
O         -0.451034    -1.697463     1.269793
H         -1.299480    -1.713730     1.650871
H          0.116268    -2.326969     1.787042
O          2.181291     0.802292     0.600639
H          2.001660     1.202889    -0.254796
H          1.826088     1.341891     1.245008
O         -2.020617     0.591528    -1.382805
H         -2.011262     0.924934    -2.259301
H         -2.600586     1.147604    -0.907925
O          1.106793     1.662868    -1.598105
H          0.664469     2.524075    -1.599745
H          1.116358     1.388905    -2.523674
O         -1.021770     1.888638     1.155341
H         -1.838470     1.688382     1.662850
H         -1.163799     2.645063     0.665315

units ang
no_reorient
no_com
symmetry c1
}

set {
basis        aug-cc-pVTZ
scf_type     df
}

energy("mp2")
--------------------------------------------------------------------------

    Molecular point group: c1

    Geometry (in Angstrom), charge = 1, multiplicity = 1:

       Center              X                  Y                   Z               Mass
    ------------   -----------------  -----------------  -----------------  -----------------
         NA           0.000000000000     0.000000000000     0.000000000000    22.989769282000
         O           -0.451034000000    -1.697463000000     1.269793000000    15.994914619570
         H           -1.299480000000    -1.713730000000     1.650871000000     1.007825032230
         H            0.116268000000    -2.326969000000     1.787042000000     1.007825032230
         O            2.181291000000     0.802292000000     0.600639000000    15.994914619570
         H            2.001660000000     1.202889000000    -0.254796000000     1.007825032230
         H            1.826088000000     1.341891000000     1.245008000000     1.007825032230
         O           -2.020617000000     0.591528000000    -1.382805000000    15.994914619570
         H           -2.011262000000     0.924934000000    -2.259301000000     1.007825032230
         H           -2.600586000000     1.147604000000    -0.907925000000     1.007825032230
         O            1.106793000000     1.662868000000    -1.598105000000    15.994914619570
         H            0.664469000000     2.524075000000    -1.599745000000     1.007825032230
         H            1.116358000000     1.388905000000    -2.523674000000     1.007825032230
         O           -1.021770000000     1.888638000000     1.155341000000    15.994914619570
         H           -1.838470000000     1.688382000000     1.662850000000     1.007825032230
         H           -1.163799000000     2.645063000000     0.665315000000     1.007825032230

  Charge       = 1
  Multiplicity = 1
  Basis Set: AUG-CC-PVTZ
    Blend: AUG-CC-PVTZ
  Basis Set: (AUG-CC-PVTZ AUX)
    Blend: AUG-CC-PVTZ-JKFIT + DEF2-UNIVERSAL-JKFIT

    Orbital Energies [Eh]
    ---------------------

    Doubly Occupied:

       1A    -40.567579     2A    -20.754871     3A    -20.740541
       4A    -20.730410     5A    -20.729716     6A    -20.674487
       7A     -2.890843     8A     -1.617612     9A     -1.615497
      10A     -1.614561    11A     -1.544554    12A     -1.538685
      13A     -1.533144    14A     -1.517919    15A     -1.484248
      16A     -0.911692    17A     -0.903506    18A     -0.901982
      19A     -0.887810    20A     -0.881041    21A     -0.782792
      22A     -0.770316    23A     -0.763378    24A     -0.762234
      25A     -0.714759    26A     -0.698556    27A     -0.689937
      28A     -0.680396    29A     -0.674830    30A     -0.636390

  @DF-RHF Final Energy:  -542.07703849660311

   => Energetics <=

    Nuclear Repulsion Energy =            309.9418177690933476
    One-Electron Energy =               -1361.6091403830403124
    Two-Electron Energy =                 509.5902841173437992
    Total Energy =                       -542.0770384966031088
 Dipole X            :          7.0897926           -9.1301173           -2.0403247
 Dipole Y            :        -63.9467488           65.7737093            1.8269605
 Dipole Z            :         -0.2362729           -0.3315543           -0.5678273
 Magnitude           :                                                    2.7969872
  Basis Set: (AUG-CC-PVTZ AUX)
    Blend: AUG-CC-PVTZ-RI + DEF2-QZVPP-RI
	 Reference Energy          =    -542.0770384966031088 [Eh]
	 Singles Energy            =      -0.0000000000000000 [Eh]
	 Same-Spin Energy          =      -0.3513055715475304 [Eh]
	 Opposite-Spin Energy      =      -1.0962562763608967 [Eh]
	 Correlation Energy        =      -1.4475618479084271 [Eh]
	 Total Energy              =    -543.5246003445115548 [Eh]

	 ================> DF-SCS-MP2 Energies <==================
	-----------------------------------------------------------
	 SCS Same-Spin Scale       =       0.3333333333333333 [-]
	 SCS Opposite-Spin Scale   =       1.2000000000000000 [-]
	 SCS Same-Spin Energy      =      -0.1171018571825101 [Eh]
	 SCS Opposite-Spin Energy  =      -1.3155075316330760 [Eh]
	 SCS Correlation Energy    =      -1.4326093888155862 [Eh]
	 SCS Total Energy          =    -543.5096478854186444 [Eh]
	-----------------------------------------------------------

*** Psi4 exiting successfully. Buy a developer a beer!
