                               Psi4 1.8.2 release

  ==> Input File <==

--------------------------------------------------------------------------
MEMORY 60 GB

molecule dimer {
0 1
Gh(Na)     0.000000     0.000000     0.000000
Gh(O)      1.436661     1.902962    -0.211771
Gh(H)      2.350805     1.847534     0.091780
Gh(H)      1.026974     2.533356     0.386801
O         -1.323065    -1.521620    -1.098658
H         -2.179765    -1.636529    -1.427199
H         -0.814186    -2.298524    -1.350965
Gh(O)     -1.869489     1.230228     0.654969
Gh(H)     -2.527117     1.848262     0.238872
Gh(H)     -2.357574     0.443019     0.966796
Gh(O)      0.132845    -0.887295     1.960114
Gh(H)     -0.489936    -1.193447     2.627722
Gh(H)      0.980462    -1.159278     2.361285
Gh(O)      1.844118    -1.561191    -0.276992
Gh(H)      2.698911    -1.163388     0.115895
Gh(H)      1.690859    -2.432842     0.069830

units ang
no_reorient
no_com
symmetry c1
}

set {
basis        aug-cc-pVTZ
scf_type     df
}

energy("mp2")
--------------------------------------------------------------------------

    Molecular point group: c1

    Geometry (in Angstrom), charge = 0, multiplicity = 1:

       Center              X                  Y                   Z               Mass
    ------------   -----------------  -----------------  -----------------  -----------------
      Gh(NA)          0.000000000000     0.000000000000     0.000000000000    22.989769282000
      Gh(O)           1.436661000000     1.902962000000    -0.211771000000    15.994914619570
      Gh(H)           2.350805000000     1.847534000000     0.091780000000     1.007825032230
      Gh(H)           1.026974000000     2.533356000000     0.386801000000     1.007825032230
         O           -1.323065000000    -1.521620000000    -1.098658000000    15.994914619570
         H           -2.179765000000    -1.636529000000    -1.427199000000     1.007825032230
         H           -0.814186000000    -2.298524000000    -1.350965000000     1.007825032230
      Gh(O)          -1.869489000000     1.230228000000     0.654969000000    15.994914619570
      Gh(H)          -2.527117000000     1.848262000000     0.238872000000     1.007825032230
      Gh(H)          -2.357574000000     0.443019000000     0.966796000000     1.007825032230
      Gh(O)           0.132845000000    -0.887295000000     1.960114000000    15.994914619570
      Gh(H)          -0.489936000000    -1.193447000000     2.627722000000     1.007825032230
      Gh(H)           0.980462000000    -1.159278000000     2.361285000000     1.007825032230
      Gh(O)           1.844118000000    -1.561191000000    -0.276992000000    15.994914619570
      Gh(H)           2.698911000000    -1.163388000000     0.115895000000     1.007825032230
      Gh(H)           1.690859000000    -2.432842000000     0.069830000000     1.007825032230

  Charge       = 0
  Multiplicity = 1
  Basis Set: AUG-CC-PVTZ
    Blend: AUG-CC-PVTZ
  Basis Set: (AUG-CC-PVTZ AUX)
    Blend: AUG-CC-PVTZ-JKFIT + DEF2-UNIVERSAL-JKFIT

    Orbital Energies [Eh]
    ---------------------

    Doubly Occupied:

       1A    -20.563288     2A     -1.359059     3A     -0.730788
       4A     -0.582019     5A     -0.510700

  @DF-RHF Final Energy:   -76.06048960732647

   => Energetics <=

    Nuclear Repulsion Energy =              9.3252444229552207
    One-Electron Energy =                -123.2797577987818300
    Two-Electron Energy =                  37.8940237685001193
    Total Energy =                        -76.0604896073264882
 Dipole X            :         25.4187504          -25.6595914           -0.2408409
 Dipole Y            :         29.8390774          -30.4397330           -0.6006556
 Dipole Z            :         21.4660290          -21.8592709           -0.3932419
 Magnitude           :                                                    0.7572521
  Basis Set: (AUG-CC-PVTZ AUX)
    Blend: AUG-CC-PVTZ-RI + DEF2-QZVPP-RI
	 Reference Energy          =     -76.0604896073264740 [Eh]
	 Singles Energy            =      -0.0000000000000000 [Eh]
	 Same-Spin Energy          =      -0.0681226885641339 [Eh]
	 Opposite-Spin Energy      =      -0.2149954698397979 [Eh]
	 Correlation Energy        =      -0.2831181584039318 [Eh]
	 Total Energy              =     -76.3436077657304111 [Eh]

	 ================> DF-SCS-MP2 Energies <==================
	-----------------------------------------------------------
	 SCS Same-Spin Scale       =       0.3333333333333333 [-]
	 SCS Opposite-Spin Scale   =       1.2000000000000000 [-]
	 SCS Same-Spin Energy      =      -0.0227075628547113 [Eh]
	 SCS Opposite-Spin Energy  =      -0.2579945638077574 [Eh]
	 SCS Correlation Energy    =      -0.2807021266624687 [Eh]
	 SCS Total Energy          =     -76.3411917339889499 [Eh]
	-----------------------------------------------------------

*** Psi4 exiting successfully. Buy a developer a beer!
