                               Psi4 1.8.2 release

  ==> Input File <==

--------------------------------------------------------------------------
MEMORY 60 GB

molecule dimer {
1 1
Na         0.000000     0.000000     0.000000
Gh(O)     -2.215330    -1.211537    -0.435171
Gh(H)     -2.946479    -1.040175     0.184638
Gh(H)     -2.480537    -0.897294    -1.285925
Gh(O)     -1.377703     1.646645     0.851564
Gh(H)     -0.838544     2.401427     0.750035
Gh(H)     -2.139544     1.659704     0.318542
Gh(O)      2.135687     1.382859    -0.640918
Gh(H)      2.124534     2.024732    -1.423235
Gh(H)      3.036809     1.045545    -0.627099
Gh(O)      0.991615    -1.503469    -1.538780
Gh(H)      0.523070    -2.328162    -1.765905
Gh(H)      1.872728    -1.692798    -1.836695
Gh(O)      0.609934    -0.580290     2.198415
Gh(H)      1.329489    -1.199807     2.453223
Gh(H)      0.835592     0.356422     2.441611

units ang
no_reorient
no_com
symmetry c1
}

set {
basis        aug-cc-pVTZ
scf_type     df
}

energy("mp2")
--------------------------------------------------------------------------

    Molecular point group: c1

    Geometry (in Angstrom), charge = 1, multiplicity = 1:

       Center              X                  Y                   Z               Mass
    ------------   -----------------  -----------------  -----------------  -----------------
         NA           0.000000000000     0.000000000000     0.000000000000    22.989769282000
      Gh(O)          -2.215330000000    -1.211537000000    -0.435171000000    15.994914619570
      Gh(H)          -2.946479000000    -1.040175000000     0.184638000000     1.007825032230
      Gh(H)          -2.480537000000    -0.897294000000    -1.285925000000     1.007825032230
      Gh(O)          -1.377703000000     1.646645000000     0.851564000000    15.994914619570
      Gh(H)          -0.838544000000     2.401427000000     0.750035000000     1.007825032230
      Gh(H)          -2.139544000000     1.659704000000     0.318542000000     1.007825032230
      Gh(O)           2.135687000000     1.382859000000    -0.640918000000    15.994914619570
      Gh(H)           2.124534000000     2.024732000000    -1.423235000000     1.007825032230
      Gh(H)           3.036809000000     1.045545000000    -0.627099000000     1.007825032230
      Gh(O)           0.991615000000    -1.503469000000    -1.538780000000    15.994914619570
      Gh(H)           0.523070000000    -2.328162000000    -1.765905000000     1.007825032230
      Gh(H)           1.872728000000    -1.692798000000    -1.836695000000     1.007825032230
      Gh(O)           0.609934000000    -0.580290000000     2.198415000000    15.994914619570
      Gh(H)           1.329489000000    -1.199807000000     2.453223000000     1.007825032230
      Gh(H)           0.835592000000     0.356422000000     2.441611000000     1.007825032230

  Charge       = 1
  Multiplicity = 1
  Basis Set: AUG-CC-PVTZ
    Blend: AUG-CC-PVTZ
  Basis Set: (AUG-CC-PVTZ AUX)
    Blend: AUG-CC-PVTZ-JKFIT + DEF2-UNIVERSAL-JKFIT

    Orbital Energies [Eh]
    ---------------------

    Doubly Occupied:

       1A    -40.760550     2A     -3.073845     3A     -1.797201
       4A     -1.797183     5A     -1.797153

  @DF-RHF Final Energy:  -161.67608984814333

   => Energetics <=

    Nuclear Repulsion Energy =              0.0000000000000000
    One-Electron Energy =                -224.9003146970602245
    Two-Electron Energy =                  63.2242248489168759
    Total Energy =                       -161.6760898481433628
 Dipole X            :         -0.0000324            0.0000000           -0.0000324
 Dipole Y            :          0.0000910            0.0000000            0.0000910
 Dipole Z            :         -0.0001183            0.0000000           -0.0001183
 Magnitude           :                                                    0.0001527
  Basis Set: (AUG-CC-PVTZ AUX)
    Blend: AUG-CC-PVTZ-RI + DEF2-QZVPP-RI
	 Reference Energy          =    -161.6760898481433344 [Eh]
	 Singles Energy            =      -0.0000000000000000 [Eh]
	 Same-Spin Energy          =      -0.0057560652659406 [Eh]
	 Opposite-Spin Energy      =      -0.0179713958859186 [Eh]
	 Correlation Energy        =      -0.0237274611518592 [Eh]
	 Total Energy              =    -161.6998173092951845 [Eh]

	 ================> DF-SCS-MP2 Energies <==================
	-----------------------------------------------------------
	 SCS Same-Spin Scale       =       0.3333333333333333 [-]
	 SCS Opposite-Spin Scale   =       1.2000000000000000 [-]
	 SCS Same-Spin Energy      =      -0.0019186884219802 [Eh]
	 SCS Opposite-Spin Energy  =      -0.0215656750631023 [Eh]
	 SCS Correlation Energy    =      -0.0234843634850825 [Eh]
	 SCS Total Energy          =    -161.6995742116284305 [Eh]
	-----------------------------------------------------------

*** Psi4 exiting successfully. Buy a developer a beer!
