                               Psi4 1.9 release

  ==> Input File <==

--------------------------------------------------------------------------
MEMORY 60 GB

molecule dimer {
1 1
Na     0.000000     0.000000     0.000000
--
0 1
O      1.277477    -1.767812    -0.575450
H      0.780188    -2.469714    -0.998624
H      2.217875    -1.661537    -0.908748
O     -1.969258     1.692991    -0.479796
H     -2.121142     1.504376    -1.395083
H     -1.578749     2.546515    -0.346354
O      2.202998     0.822357    -0.111544
H      3.092868     0.791390     0.244148
H      2.456428     0.648289    -1.002973
O     -1.745283    -1.493277     0.287650
H     -1.790260    -1.500231     1.250476
H     -1.310641    -2.335748     0.072603

units ang
no_reorient
no_com
symmetry c1
}

set {
basis        aug-cc-pVTZ
scf_type     df
}

energy("mp2", bsse_type="cp")
--------------------------------------------------------------------------

                               Psi4 1.9 release
    Molecular point group: c1
  Charge       = 0
  Multiplicity = 1
  Basis Set: AUG-CC-PVTZ
    Blend: AUG-CC-PVTZ
  Basis Set: (AUG-CC-PVTZ AUX)
    Blend: AUG-CC-PVTZ-JKFIT + DEF2-UNIVERSAL-JKFIT
  @DF-RHF Final Energy:  -304.21612598619697
    Total Energy =                       -304.2161259861969711
 Dipole X            :          1.6594239           -0.2380318            1.4213921
 Dipole Y            :         15.3892001          -15.9541791           -0.5649790
 Dipole Z            :         18.3009745          -19.1196348           -0.8186603
 Magnitude           :                                                    1.7348664
  Basis Set: (AUG-CC-PVTZ AUX)
    Blend: AUG-CC-PVTZ-RI + DEF2-QZVPP-RI
	 Reference Energy          =    -304.2161259861969711 [Eh]
	 Singles Energy            =      -0.0000000000000000 [Eh]
	 Same-Spin Energy          =      -0.2763119562652042 [Eh]
	 Opposite-Spin Energy      =      -0.8670742251795411 [Eh]
	 Correlation Energy        =      -1.1433861814447452 [Eh]
	 Total Energy              =    -305.3595121676416966 [Eh]
	 SCS Total Energy          =    -305.3487190418341584 [Eh]
                               Psi4 1.9 release
    Molecular point group: c1
  Multiplicity = 1
  Basis Set: AUG-CC-PVTZ
    Blend: AUG-CC-PVTZ
  Basis Set: (AUG-CC-PVTZ AUX)
    Blend: AUG-CC-PVTZ-JKFIT + DEF2-UNIVERSAL-JKFIT
  @DF-RHF Final Energy:  -161.67608221872717
    Total Energy =                       -161.6760822187271742
  Basis Set: (AUG-CC-PVTZ AUX)
	 Singles Energy            =      -0.0000000000000000 [Eh]
	 Same-Spin Energy          =      -0.0052239729138515 [Eh]
	 Opposite-Spin Energy      =      -0.0166282867460414 [Eh]
	 Correlation Energy        =      -0.0218522596598928 [Eh]
	 Total Energy              =    -161.6979344783870545 [Eh]
	 SCS Total Energy          =    -161.6977774871270412 [Eh]
                               Psi4 1.9 release
    Molecular point group: c1

    Geometry (in Bohr), charge = 1, multiplicity = 1:

       Center              X                  Y                   Z               Mass
    ------------   -----------------  -----------------  -----------------  -----------------
         NA           0.000000000000     0.000000000000     0.000000000000    22.989769282000
         O            2.414081661571    -3.340680521298    -1.087442898895    15.994914619570
         H            1.474341646369    -4.667083068209    -1.887125862309     1.007825032230
         H            4.191176330500    -3.139849877315    -1.717284837058     1.007825032230
         O           -3.721358290367     3.199289322865    -0.906683036090    15.994914619570
         H           -4.008377453206     2.842858629712    -2.636324792282     1.007825032230
         H           -2.983403230840     4.812215924370    -0.654514202457     1.007825032230
         O            4.163062874931     1.554029507353    -0.210787610938    15.994914619570
         H            5.844673462193     1.495510358426     0.461372854078     1.007825032230
         H            4.641976166906     1.225088660147    -1.895344281229     1.007825032230
         O           -3.298106881417    -2.821884559445     0.543579719988    15.994914619570
         H           -3.383101093362    -2.835025714922     2.363057166458     1.007825032230
         H           -2.476752538796    -4.413924018086     0.137199785887     1.007825032230

  Charge       = 1
  Multiplicity = 1
  Basis Set: AUG-CC-PVTZ
    Blend: AUG-CC-PVTZ
  Basis Set: (AUG-CC-PVTZ AUX)
    Blend: AUG-CC-PVTZ-JKFIT + DEF2-UNIVERSAL-JKFIT

    Orbital Energies [Eh]
    ---------------------

    Doubly Occupied:

       1A    -40.593933     2A    -20.751296     3A    -20.745900
       4A    -20.738325     5A    -20.713007     6A     -2.916224
       7A     -1.641640     8A     -1.641199     9A     -1.639753
      10A     -1.545487    11A     -1.525786    12A     -1.520954
      13A     -1.504961    14A     -0.915434    15A     -0.888124
      16A     -0.882844    17A     -0.879704    18A     -0.798012
      19A     -0.764453    20A     -0.761386    21A     -0.724583
      22A     -0.702553    23A     -0.690439    24A     -0.687750
      25A     -0.664075

  @DF-RHF Final Energy:  -465.99697384648277

   => Energetics <=

    Nuclear Repulsion Energy =            215.4333057377949672
    One-Electron Energy =               -1069.1849062898495504
    Two-Electron Energy =                 387.7546267055718090
    Total Energy =                       -465.9969738464827742
 Dipole X            :          1.7486744           -0.2380318            1.5106426
 Dipole Y            :         15.2160656          -15.9541791           -0.7381135
 Dipole Z            :         18.1729241          -19.1196348           -0.9467107
 Magnitude           :                                                    1.9295372
  Basis Set: (AUG-CC-PVTZ AUX)
    Blend: AUG-CC-PVTZ-RI + DEF2-QZVPP-RI
	 Reference Energy          =    -465.9969738464827742 [Eh]
	 Singles Energy            =      -0.0000000000000000 [Eh]
	 Same-Spin Energy          =      -0.2807512229709089 [Eh]
	 Opposite-Spin Energy      =      -0.8792335100548209 [Eh]
	 Correlation Energy        =      -1.1599847330257298 [Eh]
	 Total Energy              =    -467.1569585795085118 [Eh]

	 ================> DF-SCS-MP2 Energies <==================
	-----------------------------------------------------------
	 SCS Same-Spin Scale       =       0.3333333333333333 [-]
	 SCS Opposite-Spin Scale   =       1.2000000000000000 [-]
	 SCS Same-Spin Energy      =      -0.0935837409903029 [Eh]
	 SCS Opposite-Spin Energy  =      -1.0550802120657850 [Eh]
	 SCS Correlation Energy    =      -1.1486639530560878 [Eh]
	 SCS Total Energy          =    -467.1456377995388607 [Eh]
	-----------------------------------------------------------

*** Psi4 exiting successfully. Buy a developer a beer!
