                               Psi4 1.8.2 release

  ==> Input File <==

--------------------------------------------------------------------------
MEMORY 60 GB

molecule dimer {
1 1
Na         0.000000     0.000000     0.000000
O          1.404702    -0.485518    -1.896445
H          1.038745    -1.321937    -2.102680
H          1.307717     0.036148    -2.685769
O         -1.779006    -0.081116    -1.451137
H         -1.861816     0.166913    -2.371670
H         -2.628732     0.137084    -0.991427
O         -0.705629    -1.885287     0.969773
H         -1.640917    -1.977294     0.921356
H         -0.341296    -2.802783     1.169197
O         -0.020124     2.263140    -0.701517
H          0.750889     2.324265    -1.265418
H         -0.815691     2.319251    -1.249151

units ang
no_reorient
no_com
symmetry c1
}

set {
basis        aug-cc-pVTZ
scf_type     df
}

energy("mp2")
--------------------------------------------------------------------------

    Molecular point group: c1

    Geometry (in Angstrom), charge = 1, multiplicity = 1:

       Center              X                  Y                   Z               Mass
    ------------   -----------------  -----------------  -----------------  -----------------
         NA           0.000000000000     0.000000000000     0.000000000000    22.989769282000
         O            1.404702000000    -0.485518000000    -1.896445000000    15.994914619570
         H            1.038745000000    -1.321937000000    -2.102680000000     1.007825032230
         H            1.307717000000     0.036148000000    -2.685769000000     1.007825032230
         O           -1.779006000000    -0.081116000000    -1.451137000000    15.994914619570
         H           -1.861816000000     0.166913000000    -2.371670000000     1.007825032230
         H           -2.628732000000     0.137084000000    -0.991427000000     1.007825032230
         O           -0.705629000000    -1.885287000000     0.969773000000    15.994914619570
         H           -1.640917000000    -1.977294000000     0.921356000000     1.007825032230
         H           -0.341296000000    -2.802783000000     1.169197000000     1.007825032230
         O           -0.020124000000     2.263140000000    -0.701517000000    15.994914619570
         H            0.750889000000     2.324265000000    -1.265418000000     1.007825032230
         H           -0.815691000000     2.319251000000    -1.249151000000     1.007825032230

  Charge       = 1
  Multiplicity = 1
  Basis Set: AUG-CC-PVTZ
    Blend: AUG-CC-PVTZ
  Basis Set: (AUG-CC-PVTZ AUX)
    Blend: AUG-CC-PVTZ-JKFIT + DEF2-UNIVERSAL-JKFIT

    Orbital Energies [Eh]
    ---------------------

    Doubly Occupied:

       1A    -40.580380     2A    -20.753611     3A    -20.742097
       4A    -20.732665     5A    -20.728637     6A     -2.903870
       7A     -1.629262     8A     -1.628837     9A     -1.628306
      10A     -1.534390    11A     -1.531063    12A     -1.522220
      13A     -1.514216    14A     -0.906814    15A     -0.898797
      16A     -0.888565    17A     -0.888390    18A     -0.781050
      19A     -0.769454    20A     -0.763062    21A     -0.746763
      22A     -0.708587    23A     -0.689698    24A     -0.685862
      25A     -0.672076

  @DF-RHF Final Energy:  -466.01018293301684

   => Energetics <=

    Nuclear Repulsion Energy =            222.4591955183507253
    One-Electron Energy =               -1083.2814028552172658
    Two-Electron Energy =                 394.8120244038497049
    Total Energy =                       -466.0101829330168357
 Dipole X            :         23.0528692          -24.5504847           -1.4976155
 Dipole Y            :          4.3333709           -4.9673360           -0.6339651
 Dipole Z            :         60.8501455          -62.7581259           -1.9079804
 Magnitude           :                                                    2.5070207
  Basis Set: (AUG-CC-PVTZ AUX)
    Blend: AUG-CC-PVTZ-RI + DEF2-QZVPP-RI
	 Reference Energy          =    -466.0101829330168357 [Eh]
	 Singles Energy            =      -0.0000000000000000 [Eh]
	 Same-Spin Energy          =      -0.2808435805846734 [Eh]
	 Opposite-Spin Energy      =      -0.8793785515154826 [Eh]
	 Correlation Energy        =      -1.1602221321001560 [Eh]
	 Total Energy              =    -467.1704050651169950 [Eh]

	 ================> DF-SCS-MP2 Energies <==================
	-----------------------------------------------------------
	 SCS Same-Spin Scale       =       0.3333333333333333 [-]
	 SCS Opposite-Spin Scale   =       1.2000000000000000 [-]
	 SCS Same-Spin Energy      =      -0.0936145268615578 [Eh]
	 SCS Opposite-Spin Energy  =      -1.0552542618185792 [Eh]
	 SCS Correlation Energy    =      -1.1488687886801370 [Eh]
	 SCS Total Energy          =    -467.1590517216969829 [Eh]
	-----------------------------------------------------------

*** Psi4 exiting successfully. Buy a developer a beer!
