                               Psi4 1.8.2 release

  ==> Input File <==

--------------------------------------------------------------------------
MEMORY 60 GB

molecule dimer {
0 1
Gh(Na)     0.000000     0.000000     0.000000
O          2.161813     1.206626    -0.266700
H          2.702963     0.459594    -0.645875
H          2.788583     1.720992     0.282642
Gh(O)     -0.556590    -0.575984    -2.179488
Gh(H)     -1.017472     0.122616    -2.697717
Gh(H)      0.357469    -0.689631    -2.443771
Gh(O)      0.229150     0.481834     2.206901
Gh(H)     -0.313539     1.262282     2.430655
Gh(H)      0.022652    -0.088819     2.940612
Gh(O)     -0.111430    -2.057137     0.450586
Gh(H)     -0.126469    -2.559975    -0.403823
Gh(H)     -0.555096    -2.521016     1.178518
Gh(O)     -1.173824     1.990268    -0.285624
Gh(H)     -1.323983     2.704336    -0.895645
Gh(H)     -1.221891     2.483177     0.551307

units ang
no_reorient
no_com
symmetry c1
}

set {
basis        aug-cc-pVTZ
scf_type     df
}

energy("mp2")
--------------------------------------------------------------------------

    Molecular point group: c1

    Geometry (in Angstrom), charge = 0, multiplicity = 1:

       Center              X                  Y                   Z               Mass
    ------------   -----------------  -----------------  -----------------  -----------------
      Gh(NA)          0.000000000000     0.000000000000     0.000000000000    22.989769282000
         O            2.161813000000     1.206626000000    -0.266700000000    15.994914619570
         H            2.702963000000     0.459594000000    -0.645875000000     1.007825032230
         H            2.788583000000     1.720992000000     0.282642000000     1.007825032230
      Gh(O)          -0.556590000000    -0.575984000000    -2.179488000000    15.994914619570
      Gh(H)          -1.017472000000     0.122616000000    -2.697717000000     1.007825032230
      Gh(H)           0.357469000000    -0.689631000000    -2.443771000000     1.007825032230
      Gh(O)           0.229150000000     0.481834000000     2.206901000000    15.994914619570
      Gh(H)          -0.313539000000     1.262282000000     2.430655000000     1.007825032230
      Gh(H)           0.022652000000    -0.088819000000     2.940612000000     1.007825032230
      Gh(O)          -0.111430000000    -2.057137000000     0.450586000000    15.994914619570
      Gh(H)          -0.126469000000    -2.559975000000    -0.403823000000     1.007825032230
      Gh(H)          -0.555096000000    -2.521016000000     1.178518000000     1.007825032230
      Gh(O)          -1.173824000000     1.990268000000    -0.285624000000    15.994914619570
      Gh(H)          -1.323983000000     2.704336000000    -0.895645000000     1.007825032230
      Gh(H)          -1.221891000000     2.483177000000     0.551307000000     1.007825032230

  Charge       = 0
  Multiplicity = 1
  Basis Set: AUG-CC-PVTZ
    Blend: AUG-CC-PVTZ
  Basis Set: (AUG-CC-PVTZ AUX)
    Blend: AUG-CC-PVTZ-JKFIT + DEF2-UNIVERSAL-JKFIT

    Orbital Energies [Eh]
    ---------------------

    Doubly Occupied:

       1A    -20.572102     2A     -1.337695     3A     -0.701965
       4A     -0.577834     5A     -0.507686

  @DF-RHF Final Energy:   -76.05678382346721

   => Energetics <=

    Nuclear Repulsion Energy =              8.9046254537203247
    One-Electron Energy =                -122.5282500873479421
    Two-Electron Energy =                  37.5668408101603859
    Total Energy =                        -76.0567838234672280
 Dipole X            :        -42.2963423           43.0593940            0.7630517
 Dipole Y            :        -22.5116015           22.3622517           -0.1493497
 Dipole Z            :          4.8311241           -4.7183306            0.1127935
 Magnitude           :                                                    0.7856689
  Basis Set: (AUG-CC-PVTZ AUX)
    Blend: AUG-CC-PVTZ-RI + DEF2-QZVPP-RI
	 Reference Energy          =     -76.0567838234672138 [Eh]
	 Singles Energy            =      -0.0000000000000000 [Eh]
	 Same-Spin Energy          =      -0.0689397677507663 [Eh]
	 Opposite-Spin Energy      =      -0.2174472975670063 [Eh]
	 Correlation Energy        =      -0.2863870653177725 [Eh]
	 Total Energy              =     -76.3431708887849823 [Eh]

	 ================> DF-SCS-MP2 Energies <==================
	-----------------------------------------------------------
	 SCS Same-Spin Scale       =       0.3333333333333333 [-]
	 SCS Opposite-Spin Scale   =       1.2000000000000000 [-]
	 SCS Same-Spin Energy      =      -0.0229799225835888 [Eh]
	 SCS Opposite-Spin Energy  =      -0.2609367570804075 [Eh]
	 SCS Correlation Energy    =      -0.2839166796639963 [Eh]
	 SCS Total Energy          =     -76.3407005031312167 [Eh]
	-----------------------------------------------------------

*** Psi4 exiting successfully. Buy a developer a beer!
