                               Psi4 1.8.2 release

  ==> Input File <==

--------------------------------------------------------------------------
MEMORY 60 GB

molecule dimer {
0 1
Gh(Na)     0.000000     0.000000     0.000000
O         -0.193331     2.133012     0.051126
H          0.653992     2.486181    -0.227094
H         -0.472516     2.846712     0.650011
Gh(O)      0.288803    -2.322357    -0.174914
Gh(H)     -0.642727    -2.354494    -0.182470
Gh(H)      0.543217    -2.550000    -1.066325
Gh(O)     -0.773660    -0.489796     2.272680
Gh(H)     -0.543862     0.115681     2.979151
Gh(H)     -0.362466    -1.237847     2.655977
Gh(O)     -1.896119    -0.066378    -1.470424
Gh(H)     -2.170950     0.762265    -1.877462
Gh(H)     -2.621122    -0.681651    -1.551543
Gh(O)      1.464272     0.251391    -1.866281
Gh(H)      2.258159     0.208517    -1.354089
Gh(H)      1.592895    -0.381460    -2.532995

units ang
no_reorient
no_com
symmetry c1
}

set {
basis        aug-cc-pVTZ
scf_type     df
}

energy("mp2")
--------------------------------------------------------------------------

    Molecular point group: c1

    Geometry (in Angstrom), charge = 0, multiplicity = 1:

       Center              X                  Y                   Z               Mass
    ------------   -----------------  -----------------  -----------------  -----------------
      Gh(NA)          0.000000000000     0.000000000000     0.000000000000    22.989769282000
         O           -0.193331000000     2.133012000000     0.051126000000    15.994914619570
         H            0.653992000000     2.486181000000    -0.227094000000     1.007825032230
         H           -0.472516000000     2.846712000000     0.650011000000     1.007825032230
      Gh(O)           0.288803000000    -2.322357000000    -0.174914000000    15.994914619570
      Gh(H)          -0.642727000000    -2.354494000000    -0.182470000000     1.007825032230
      Gh(H)           0.543217000000    -2.550000000000    -1.066325000000     1.007825032230
      Gh(O)          -0.773660000000    -0.489796000000     2.272680000000    15.994914619570
      Gh(H)          -0.543862000000     0.115681000000     2.979151000000     1.007825032230
      Gh(H)          -0.362466000000    -1.237847000000     2.655977000000     1.007825032230
      Gh(O)          -1.896119000000    -0.066378000000    -1.470424000000    15.994914619570
      Gh(H)          -2.170950000000     0.762265000000    -1.877462000000     1.007825032230
      Gh(H)          -2.621122000000    -0.681651000000    -1.551543000000     1.007825032230
      Gh(O)           1.464272000000     0.251391000000    -1.866281000000    15.994914619570
      Gh(H)           2.258159000000     0.208517000000    -1.354089000000     1.007825032230
      Gh(H)           1.592895000000    -0.381460000000    -2.532995000000     1.007825032230

  Charge       = 0
  Multiplicity = 1
  Basis Set: AUG-CC-PVTZ
    Blend: AUG-CC-PVTZ
  Basis Set: (AUG-CC-PVTZ AUX)
    Blend: AUG-CC-PVTZ-JKFIT + DEF2-UNIVERSAL-JKFIT

    Orbital Energies [Eh]
    ---------------------

    Doubly Occupied:

       1A    -20.570690     2A     -1.352833     3A     -0.702718
       4A     -0.593352     5A     -0.511107

  @DF-RHF Final Energy:   -76.05897263685395

   => Energetics <=

    Nuclear Repulsion Energy =              9.1254181164805583
    One-Electron Energy =                -122.9073768842624901
    Two-Electron Energy =                  37.7229861309279926
    Total Energy =                        -76.0589726368539374
 Dipole X            :          2.9519607           -2.5798012            0.3721595
 Dipole Y            :        -41.6293180           42.3241752            0.6948573
 Dipole Z            :         -1.3648046            1.5721104            0.2073058
 Magnitude           :                                                    0.8150491
  Basis Set: (AUG-CC-PVTZ AUX)
    Blend: AUG-CC-PVTZ-RI + DEF2-QZVPP-RI
	 Reference Energy          =     -76.0589726368539516 [Eh]
	 Singles Energy            =      -0.0000000000000000 [Eh]
	 Same-Spin Energy          =      -0.0687110084633342 [Eh]
	 Opposite-Spin Energy      =      -0.2168252578759128 [Eh]
	 Correlation Energy        =      -0.2855362663392471 [Eh]
	 Total Energy              =     -76.3445089031932014 [Eh]

	 ================> DF-SCS-MP2 Energies <==================
	-----------------------------------------------------------
	 SCS Same-Spin Scale       =       0.3333333333333333 [-]
	 SCS Opposite-Spin Scale   =       1.2000000000000000 [-]
	 SCS Same-Spin Energy      =      -0.0229036694877781 [Eh]
	 SCS Opposite-Spin Energy  =      -0.2601903094510954 [Eh]
	 SCS Correlation Energy    =      -0.2830939789388734 [Eh]
	 SCS Total Energy          =     -76.3420666157928309 [Eh]
	-----------------------------------------------------------

*** Psi4 exiting successfully. Buy a developer a beer!
