                               Psi4 1.8.2 release

  ==> Input File <==

--------------------------------------------------------------------------
MEMORY 60 GB

molecule dimer {
1 1
Na         0.000000     0.000000     0.000000
O         -0.085993    -0.051936     2.343220
H         -0.599866    -0.003832     3.188434
H          0.778341    -0.468547     2.524807
O          2.159561    -1.126299    -0.201753
H          1.903159    -2.089420    -0.306342
H          2.923664    -1.015931     0.394549
O         -0.673308    -2.158843    -0.874591
H          0.102825    -2.750161    -0.727233
H         -1.552860    -2.612781    -0.616624
O         -2.368348     0.405229     0.230721
H         -3.034658    -0.039810    -0.350273
H         -2.312455    -0.001856     1.105513
O          0.056969     1.381147    -1.944871
H         -0.073372     0.905950    -2.745897
H         -0.537018     2.128393    -2.087984

units ang
no_reorient
no_com
symmetry c1
}

set {
basis        aug-cc-pVTZ
scf_type     df
}

energy("mp2")
--------------------------------------------------------------------------

    Molecular point group: c1

    Geometry (in Angstrom), charge = 1, multiplicity = 1:

       Center              X                  Y                   Z               Mass
    ------------   -----------------  -----------------  -----------------  -----------------
         NA           0.000000000000     0.000000000000     0.000000000000    22.989769282000
         O           -0.085993000000    -0.051936000000     2.343220000000    15.994914619570
         H           -0.599866000000    -0.003832000000     3.188434000000     1.007825032230
         H            0.778341000000    -0.468547000000     2.524807000000     1.007825032230
         O            2.159561000000    -1.126299000000    -0.201753000000    15.994914619570
         H            1.903159000000    -2.089420000000    -0.306342000000     1.007825032230
         H            2.923664000000    -1.015931000000     0.394549000000     1.007825032230
         O           -0.673308000000    -2.158843000000    -0.874591000000    15.994914619570
         H            0.102825000000    -2.750161000000    -0.727233000000     1.007825032230
         H           -1.552860000000    -2.612781000000    -0.616624000000     1.007825032230
         O           -2.368348000000     0.405229000000     0.230721000000    15.994914619570
         H           -3.034658000000    -0.039810000000    -0.350273000000     1.007825032230
         H           -2.312455000000    -0.001856000000     1.105513000000     1.007825032230
         O            0.056969000000     1.381147000000    -1.944871000000    15.994914619570
         H           -0.073372000000     0.905950000000    -2.745897000000     1.007825032230
         H           -0.537018000000     2.128393000000    -2.087984000000     1.007825032230

  Charge       = 1
  Multiplicity = 1
  Basis Set: AUG-CC-PVTZ
    Blend: AUG-CC-PVTZ
  Basis Set: (AUG-CC-PVTZ AUX)
    Blend: AUG-CC-PVTZ-JKFIT + DEF2-UNIVERSAL-JKFIT

    Orbital Energies [Eh]
    ---------------------

    Doubly Occupied:

       1A    -40.557849     2A    -20.740274     3A    -20.739937
       4A    -20.738565     5A    -20.714866     6A    -20.706437
       7A     -2.879845     8A     -1.604913     9A     -1.604457
      10A     -1.604191    11A     -1.512437    12A     -1.506124
      13A     -1.500105    14A     -1.497303    15A     -1.489292
      16A     -0.895143    17A     -0.887266    18A     -0.870652
      19A     -0.866925    20A     -0.851809    21A     -0.758993
      22A     -0.749610    23A     -0.742433    24A     -0.737166
      25A     -0.721684    26A     -0.687492    27A     -0.681083
      28A     -0.675029    29A     -0.661155    30A     -0.654052

  @DF-RHF Final Energy:  -542.07006343237708

   => Energetics <=

    Nuclear Repulsion Energy =            302.5108772866554432
    One-Electron Energy =               -1347.4876960671631423
    Two-Electron Energy =                 502.9067553481306732
    Total Energy =                       -542.0700634323770828
 Dipole X            :         17.8884050          -18.3136987           -0.4252937
 Dipole Y            :         32.6872359          -34.6832982           -1.9960623
 Dipole Z            :          6.8994347           -6.0456912            0.8537435
 Magnitude           :                                                    2.2122426
  Basis Set: (AUG-CC-PVTZ AUX)
    Blend: AUG-CC-PVTZ-RI + DEF2-QZVPP-RI
	 Reference Energy          =    -542.0700634323770828 [Eh]
	 Singles Energy            =      -0.0000000000000000 [Eh]
	 Same-Spin Energy          =      -0.3521440738111238 [Eh]
	 Opposite-Spin Energy      =      -1.1021337286105468 [Eh]
	 Correlation Energy        =      -1.4542778024216707 [Eh]
	 Total Energy              =    -543.5243412347987260 [Eh]

	 ================> DF-SCS-MP2 Energies <==================
	-----------------------------------------------------------
	 SCS Same-Spin Scale       =       0.3333333333333333 [-]
	 SCS Opposite-Spin Scale   =       1.2000000000000000 [-]
	 SCS Same-Spin Energy      =      -0.1173813579370413 [Eh]
	 SCS Opposite-Spin Energy  =      -1.3225604743326562 [Eh]
	 SCS Correlation Energy    =      -1.4399418322696975 [Eh]
	 SCS Total Energy          =    -543.5100052646467930 [Eh]
	-----------------------------------------------------------

*** Psi4 exiting successfully. Buy a developer a beer!
