                               Psi4 1.8.2 release

  ==> Input File <==

--------------------------------------------------------------------------
MEMORY 60 GB

molecule dimer {
0 1
Gh(Na)     0.000000     0.000000     0.000000
Gh(O)     -0.763534     0.932846     2.231461
Gh(H)     -0.733128     1.900005     2.285331
Gh(H)     -0.178159     0.502091     2.866138
Gh(O)      0.452399     2.241951    -0.962680
Gh(H)      1.205593     2.615208    -0.515886
Gh(H)      0.800151     2.215705    -1.892096
Gh(O)      0.346113    -2.463872     0.347284
Gh(H)      0.268206    -3.107115    -0.361290
Gh(H)     -0.089641    -3.005871     1.016265
Gh(O)      2.050775    -0.213605    -1.193701
Gh(H)      2.004919    -1.173998    -1.292082
Gh(H)      2.563798    -0.024846    -0.341802
O         -1.677611    -0.559730    -1.506099
H         -2.457862    -0.155870    -2.009591
H         -1.026711    -0.660387    -2.183118

units ang
no_reorient
no_com
symmetry c1
}

set {
basis        aug-cc-pVTZ
scf_type     df
}

energy("mp2")
--------------------------------------------------------------------------

    Molecular point group: c1

    Geometry (in Angstrom), charge = 0, multiplicity = 1:

       Center              X                  Y                   Z               Mass
    ------------   -----------------  -----------------  -----------------  -----------------
      Gh(NA)          0.000000000000     0.000000000000     0.000000000000    22.989769282000
      Gh(O)          -0.763534000000     0.932846000000     2.231461000000    15.994914619570
      Gh(H)          -0.733128000000     1.900005000000     2.285331000000     1.007825032230
      Gh(H)          -0.178159000000     0.502091000000     2.866138000000     1.007825032230
      Gh(O)           0.452399000000     2.241951000000    -0.962680000000    15.994914619570
      Gh(H)           1.205593000000     2.615208000000    -0.515886000000     1.007825032230
      Gh(H)           0.800151000000     2.215705000000    -1.892096000000     1.007825032230
      Gh(O)           0.346113000000    -2.463872000000     0.347284000000    15.994914619570
      Gh(H)           0.268206000000    -3.107115000000    -0.361290000000     1.007825032230
      Gh(H)          -0.089641000000    -3.005871000000     1.016265000000     1.007825032230
      Gh(O)           2.050775000000    -0.213605000000    -1.193701000000    15.994914619570
      Gh(H)           2.004919000000    -1.173998000000    -1.292082000000     1.007825032230
      Gh(H)           2.563798000000    -0.024846000000    -0.341802000000     1.007825032230
         O           -1.677611000000    -0.559730000000    -1.506099000000    15.994914619570
         H           -2.457862000000    -0.155870000000    -2.009591000000     1.007825032230
         H           -1.026711000000    -0.660387000000    -2.183118000000     1.007825032230

  Charge       = 0
  Multiplicity = 1
  Basis Set: AUG-CC-PVTZ
    Blend: AUG-CC-PVTZ
  Basis Set: (AUG-CC-PVTZ AUX)
    Blend: AUG-CC-PVTZ-JKFIT + DEF2-UNIVERSAL-JKFIT

    Orbital Energies [Eh]
    ---------------------

    Doubly Occupied:

       1A    -20.571359     2A     -1.345167     3A     -0.702932
       4A     -0.584127     5A     -0.509296

  @DF-RHF Final Energy:   -76.05631148909789

   => Energetics <=

    Nuclear Repulsion Energy =              9.0091080421187133
    One-Electron Energy =                -122.7050766171349778
    Two-Electron Energy =                  37.6396570859183868
    Total Energy =                        -76.0563114890978795
 Dipole X            :         31.8737979          -31.9466913           -0.0728935
 Dipole Y            :         10.1981083          -10.0043934            0.1937148
 Dipole Z            :         29.9197689          -30.6919888           -0.7722199
 Magnitude           :                                                    0.7994764
  Basis Set: (AUG-CC-PVTZ AUX)
    Blend: AUG-CC-PVTZ-RI + DEF2-QZVPP-RI
	 Reference Energy          =     -76.0563114890978937 [Eh]
	 Singles Energy            =      -0.0000000000000000 [Eh]
	 Same-Spin Energy          =      -0.0688106334311926 [Eh]
	 Opposite-Spin Energy      =      -0.2171424324196756 [Eh]
	 Correlation Energy        =      -0.2859530658508683 [Eh]
	 Total Energy              =     -76.3422645549487555 [Eh]

	 ================> DF-SCS-MP2 Energies <==================
	-----------------------------------------------------------
	 SCS Same-Spin Scale       =       0.3333333333333333 [-]
	 SCS Opposite-Spin Scale   =       1.2000000000000000 [-]
	 SCS Same-Spin Energy      =      -0.0229368778103975 [Eh]
	 SCS Opposite-Spin Energy  =      -0.2605709189036107 [Eh]
	 SCS Correlation Energy    =      -0.2835077967140083 [Eh]
	 SCS Total Energy          =     -76.3398192858118989 [Eh]
	-----------------------------------------------------------

*** Psi4 exiting successfully. Buy a developer a beer!
