                               Psi4 1.8.2 release

  ==> Input File <==

--------------------------------------------------------------------------
MEMORY 60 GB

molecule dimer {
0 1
Gh(Na)     0.000000     0.000000     0.000000
Gh(O)      1.295992    -1.038055    -1.666929
Gh(H)      1.199472    -0.914486    -2.588127
Gh(H)      2.215709    -0.827473    -1.487559
Gh(O)      0.945093    -1.880558     0.968601
Gh(H)      1.449261    -2.195584     0.246835
Gh(H)      0.398653    -2.523314     1.421842
O         -1.899954     0.291284     1.327143
H         -1.989905     1.254936     1.673416
H         -1.881234    -0.239655     2.109490
Gh(O)      2.210054     0.959882     0.855124
Gh(H)      2.866527     0.324916     0.526095
Gh(H)      2.208158     0.741535     1.764241
Gh(O)     -1.049559     1.773634    -1.401658
Gh(H)     -0.352216     2.144695    -1.977073
Gh(H)     -1.638655     1.166318    -1.764810

units ang
no_reorient
no_com
symmetry c1
}

set {
basis        aug-cc-pVTZ
scf_type     df
}

energy("mp2")
--------------------------------------------------------------------------

    Molecular point group: c1

    Geometry (in Angstrom), charge = 0, multiplicity = 1:

       Center              X                  Y                   Z               Mass
    ------------   -----------------  -----------------  -----------------  -----------------
      Gh(NA)          0.000000000000     0.000000000000     0.000000000000    22.989769282000
      Gh(O)           1.295992000000    -1.038055000000    -1.666929000000    15.994914619570
      Gh(H)           1.199472000000    -0.914486000000    -2.588127000000     1.007825032230
      Gh(H)           2.215709000000    -0.827473000000    -1.487559000000     1.007825032230
      Gh(O)           0.945093000000    -1.880558000000     0.968601000000    15.994914619570
      Gh(H)           1.449261000000    -2.195584000000     0.246835000000     1.007825032230
      Gh(H)           0.398653000000    -2.523314000000     1.421842000000     1.007825032230
         O           -1.899954000000     0.291284000000     1.327143000000    15.994914619570
         H           -1.989905000000     1.254936000000     1.673416000000     1.007825032230
         H           -1.881234000000    -0.239655000000     2.109490000000     1.007825032230
      Gh(O)           2.210054000000     0.959882000000     0.855124000000    15.994914619570
      Gh(H)           2.866527000000     0.324916000000     0.526095000000     1.007825032230
      Gh(H)           2.208158000000     0.741535000000     1.764241000000     1.007825032230
      Gh(O)          -1.049559000000     1.773634000000    -1.401658000000    15.994914619570
      Gh(H)          -0.352216000000     2.144695000000    -1.977073000000     1.007825032230
      Gh(H)          -1.638655000000     1.166318000000    -1.764810000000     1.007825032230

  Charge       = 0
  Multiplicity = 1
  Basis Set: AUG-CC-PVTZ
    Blend: AUG-CC-PVTZ
  Basis Set: (AUG-CC-PVTZ AUX)
    Blend: AUG-CC-PVTZ-JKFIT + DEF2-UNIVERSAL-JKFIT

    Orbital Energies [Eh]
    ---------------------

    Doubly Occupied:

       1A    -20.571757     2A     -1.340297     3A     -0.702346
       4A     -0.578663     5A     -0.508136

  @DF-RHF Final Energy:   -76.05440601935841

   => Energetics <=

    Nuclear Repulsion Energy =              8.9340711631436296
    One-Electron Energy =                -122.5745504374261827
    Two-Electron Energy =                  37.5860732549241447
    Total Energy =                        -76.0544060193584102
 Dipole X            :         35.9927707          -36.0385342           -0.0457635
 Dipole Y            :         -6.0532486            6.3221789            0.2689303
 Dipole Z            :        -26.4710407           27.2121507            0.7411099
 Magnitude           :                                                    0.7897226
  Basis Set: (AUG-CC-PVTZ AUX)
    Blend: AUG-CC-PVTZ-RI + DEF2-QZVPP-RI
	 Reference Energy          =     -76.0544060193584102 [Eh]
	 Singles Energy            =      -0.0000000000000000 [Eh]
	 Same-Spin Energy          =      -0.0689041693074036 [Eh]
	 Opposite-Spin Energy      =      -0.2174751739720052 [Eh]
	 Correlation Energy        =      -0.2863793432794088 [Eh]
	 Total Energy              =     -76.3407853626378170 [Eh]

	 ================> DF-SCS-MP2 Energies <==================
	-----------------------------------------------------------
	 SCS Same-Spin Scale       =       0.3333333333333333 [-]
	 SCS Opposite-Spin Scale   =       1.2000000000000000 [-]
	 SCS Same-Spin Energy      =      -0.0229680564358012 [Eh]
	 SCS Opposite-Spin Energy  =      -0.2609702087664063 [Eh]
	 SCS Correlation Energy    =      -0.2839382652022075 [Eh]
	 SCS Total Energy          =     -76.3383442845606197 [Eh]
	-----------------------------------------------------------

*** Psi4 exiting successfully. Buy a developer a beer!
