                               Psi4 1.8.2 release

  ==> Input File <==

--------------------------------------------------------------------------
MEMORY 60 GB

molecule dimer {
0 1
Gh(Na)     0.000000     0.000000     0.000000
Gh(O)      1.592894    -1.543639    -0.308375
Gh(H)      1.423686    -2.341419    -0.830979
Gh(H)      2.403710    -1.151684    -0.598431
Gh(O)      1.988946     0.824225     1.115878
Gh(H)      2.779875     0.295505     1.252466
Gh(H)      2.237778     1.548762     0.503946
O         -0.323220     1.312717     2.049838
H          0.524459     0.926454     2.265662
H         -1.000485     1.060576     2.756433
Gh(O)     -1.798560    -1.449805     0.232533
Gh(H)     -2.520777    -1.195942    -0.335276
Gh(H)     -2.004259    -2.272448     0.655052
Gh(O)      1.457351     0.926491    -1.892607
Gh(H)      2.288674     0.755986    -1.447960
Gh(H)      1.638498     1.608992    -2.536718
Gh(O)     -1.853918     1.628861    -0.694243
Gh(H)     -2.596561     1.796080    -1.223462
Gh(H)     -1.590046     2.537809    -0.490567

units ang
no_reorient
no_com
symmetry c1
}

set {
basis        aug-cc-pVTZ
scf_type     df
}

energy("mp2")
--------------------------------------------------------------------------

    Molecular point group: c1

    Geometry (in Angstrom), charge = 0, multiplicity = 1:

       Center              X                  Y                   Z               Mass
    ------------   -----------------  -----------------  -----------------  -----------------
      Gh(NA)          0.000000000000     0.000000000000     0.000000000000    22.989769282000
      Gh(O)           1.592894000000    -1.543639000000    -0.308375000000    15.994914619570
      Gh(H)           1.423686000000    -2.341419000000    -0.830979000000     1.007825032230
      Gh(H)           2.403710000000    -1.151684000000    -0.598431000000     1.007825032230
      Gh(O)           1.988946000000     0.824225000000     1.115878000000    15.994914619570
      Gh(H)           2.779875000000     0.295505000000     1.252466000000     1.007825032230
      Gh(H)           2.237778000000     1.548762000000     0.503946000000     1.007825032230
         O           -0.323220000000     1.312717000000     2.049838000000    15.994914619570
         H            0.524459000000     0.926454000000     2.265662000000     1.007825032230
         H           -1.000485000000     1.060576000000     2.756433000000     1.007825032230
      Gh(O)          -1.798560000000    -1.449805000000     0.232533000000    15.994914619570
      Gh(H)          -2.520777000000    -1.195942000000    -0.335276000000     1.007825032230
      Gh(H)          -2.004259000000    -2.272448000000     0.655052000000     1.007825032230
      Gh(O)           1.457351000000     0.926491000000    -1.892607000000    15.994914619570
      Gh(H)           2.288674000000     0.755986000000    -1.447960000000     1.007825032230
      Gh(H)           1.638498000000     1.608992000000    -2.536718000000     1.007825032230
      Gh(O)          -1.853918000000     1.628861000000    -0.694243000000    15.994914619570
      Gh(H)          -2.596561000000     1.796080000000    -1.223462000000     1.007825032230
      Gh(H)          -1.590046000000     2.537809000000    -0.490567000000     1.007825032230

  Charge       = 0
  Multiplicity = 1
  Basis Set: AUG-CC-PVTZ
    Blend: AUG-CC-PVTZ
  Basis Set: (AUG-CC-PVTZ AUX)
    Blend: AUG-CC-PVTZ-JKFIT + DEF2-UNIVERSAL-JKFIT

    Orbital Energies [Eh]
    ---------------------

    Doubly Occupied:

       1A    -20.568921     2A     -1.337590     3A     -0.712821
       4A     -0.569811     5A     -0.506667

  @DF-RHF Final Energy:   -76.05594725588249

   => Energetics <=

    Nuclear Repulsion Energy =              8.9450113642580664
    One-Electron Energy =                -122.6102927812248851
    Two-Electron Energy =                  37.6093341610843197
    Total Energy =                        -76.0559472558825007
 Dipole X            :          5.9067642           -5.7859370            0.1208272
 Dipole Y            :        -24.0249814           23.6003474           -0.4246341
 Dipole Z            :        -39.8687809           40.4794435            0.6106626
 Magnitude           :                                                    0.7535397
  Basis Set: (AUG-CC-PVTZ AUX)
    Blend: AUG-CC-PVTZ-RI + DEF2-QZVPP-RI
	 Reference Energy          =     -76.0559472558824865 [Eh]
	 Singles Energy            =      -0.0000000000000000 [Eh]
	 Same-Spin Energy          =      -0.0688155131641876 [Eh]
	 Opposite-Spin Energy      =      -0.2173457809716541 [Eh]
	 Correlation Energy        =      -0.2861612941358418 [Eh]
	 Total Energy              =     -76.3421085500183239 [Eh]

	 ================> DF-SCS-MP2 Energies <==================
	-----------------------------------------------------------
	 SCS Same-Spin Scale       =       0.3333333333333333 [-]
	 SCS Opposite-Spin Scale   =       1.2000000000000000 [-]
	 SCS Same-Spin Energy      =      -0.0229385043880625 [Eh]
	 SCS Opposite-Spin Energy  =      -0.2608149371659850 [Eh]
	 SCS Correlation Energy    =      -0.2837534415540475 [Eh]
	 SCS Total Energy          =     -76.3397006974365411 [Eh]
	-----------------------------------------------------------

*** Psi4 exiting successfully. Buy a developer a beer!
