                               Psi4 1.8.2 release

  ==> Input File <==

--------------------------------------------------------------------------
MEMORY 60 GB

molecule dimer {
1 1
Na         0.000000     0.000000     0.000000
O         -0.193331     2.133012     0.051126
H          0.653992     2.486181    -0.227094
H         -0.472516     2.846712     0.650011
O          0.288803    -2.322357    -0.174914
H         -0.642727    -2.354494    -0.182470
H          0.543217    -2.550000    -1.066325
O         -0.773660    -0.489796     2.272680
H         -0.543862     0.115681     2.979151
H         -0.362466    -1.237847     2.655977
O         -1.896119    -0.066378    -1.470424
H         -2.170950     0.762265    -1.877462
H         -2.621122    -0.681651    -1.551543
O          1.464272     0.251391    -1.866281
H          2.258159     0.208517    -1.354089
H          1.592895    -0.381460    -2.532995

units ang
no_reorient
no_com
symmetry c1
}

set {
basis        aug-cc-pVTZ
scf_type     df
}

energy("mp2")
--------------------------------------------------------------------------

    Molecular point group: c1

    Geometry (in Angstrom), charge = 1, multiplicity = 1:

       Center              X                  Y                   Z               Mass
    ------------   -----------------  -----------------  -----------------  -----------------
         NA           0.000000000000     0.000000000000     0.000000000000    22.989769282000
         O           -0.193331000000     2.133012000000     0.051126000000    15.994914619570
         H            0.653992000000     2.486181000000    -0.227094000000     1.007825032230
         H           -0.472516000000     2.846712000000     0.650011000000     1.007825032230
         O            0.288803000000    -2.322357000000    -0.174914000000    15.994914619570
         H           -0.642727000000    -2.354494000000    -0.182470000000     1.007825032230
         H            0.543217000000    -2.550000000000    -1.066325000000     1.007825032230
         O           -0.773660000000    -0.489796000000     2.272680000000    15.994914619570
         H           -0.543862000000     0.115681000000     2.979151000000     1.007825032230
         H           -0.362466000000    -1.237847000000     2.655977000000     1.007825032230
         O           -1.896119000000    -0.066378000000    -1.470424000000    15.994914619570
         H           -2.170950000000     0.762265000000    -1.877462000000     1.007825032230
         H           -2.621122000000    -0.681651000000    -1.551543000000     1.007825032230
         O            1.464272000000     0.251391000000    -1.866281000000    15.994914619570
         H            2.258159000000     0.208517000000    -1.354089000000     1.007825032230
         H            1.592895000000    -0.381460000000    -2.532995000000     1.007825032230

  Charge       = 1
  Multiplicity = 1
  Basis Set: AUG-CC-PVTZ
    Blend: AUG-CC-PVTZ
  Basis Set: (AUG-CC-PVTZ AUX)
    Blend: AUG-CC-PVTZ-JKFIT + DEF2-UNIVERSAL-JKFIT

    Orbital Energies [Eh]
    ---------------------

    Doubly Occupied:

       1A    -40.550672     2A    -20.733170     3A    -20.726294
       4A    -20.722731     5A    -20.719969     6A    -20.714721
       7A     -2.875883     8A     -1.604508     9A     -1.600752
      10A     -1.599828    11A     -1.530729    12A     -1.523593
      13A     -1.518983    14A     -1.518782    15A     -1.501999
      16A     -0.894505    17A     -0.887330    18A     -0.873538
      19A     -0.870146    20A     -0.856776    21A     -0.778508
      22A     -0.765599    23A     -0.760383    24A     -0.752994
      25A     -0.741332    26A     -0.690675    27A     -0.683678
      28A     -0.672124    29A     -0.669292    30A     -0.662543

  @DF-RHF Final Energy:  -542.08945709085515

   => Energetics <=

    Nuclear Repulsion Energy =            309.7220585474178733
    One-Electron Energy =               -1361.6189554245770523
    Two-Electron Energy =                 509.8074397863039735
    Total Energy =                       -542.0894570908551486
 Dipole X            :         20.2829233          -20.1173818            0.1655415
 Dipole Y            :          9.1335204           -8.9556389            0.1778816
 Dipole Z            :         22.4496535          -22.6943692           -0.2447157
 Magnitude           :                                                    0.3448646
  Basis Set: (AUG-CC-PVTZ AUX)
    Blend: AUG-CC-PVTZ-RI + DEF2-QZVPP-RI
	 Reference Energy          =    -542.0894570908551486 [Eh]
	 Singles Energy            =      -0.0000000000000000 [Eh]
	 Same-Spin Energy          =      -0.3502001009786121 [Eh]
	 Opposite-Spin Energy      =      -1.0959298873569869 [Eh]
	 Correlation Energy        =      -1.4461299883355991 [Eh]
	 Total Energy              =    -543.5355870791906909 [Eh]

	 ================> DF-SCS-MP2 Energies <==================
	-----------------------------------------------------------
	 SCS Same-Spin Scale       =       0.3333333333333333 [-]
	 SCS Opposite-Spin Scale   =       1.2000000000000000 [-]
	 SCS Same-Spin Energy      =      -0.1167333669928707 [Eh]
	 SCS Opposite-Spin Energy  =      -1.3151158648283843 [Eh]
	 SCS Correlation Energy    =      -1.4318492318212550 [Eh]
	 SCS Total Energy          =    -543.5213063226764234 [Eh]
	-----------------------------------------------------------

*** Psi4 exiting successfully. Buy a developer a beer!
