                               Psi4 1.8.2 release

  ==> Input File <==

--------------------------------------------------------------------------
MEMORY 60 GB

molecule dimer {
0 1
Gh(Na)     0.000000     0.000000     0.000000
O         -1.270703     1.958564     0.911769
H         -2.124725     1.551684     0.575181
H         -1.379974     2.228364     1.821269
Gh(O)      0.587472    -2.201463     0.748927
Gh(H)     -0.101641    -2.358357     1.431600
Gh(H)      1.379076    -2.483852     1.213110
Gh(O)     -2.211830    -1.319853     0.286643
Gh(H)     -2.899654    -0.680785     0.484013
Gh(H)     -1.960837    -1.588265     1.197980
Gh(O)      1.514145     0.926826     1.650245
Gh(H)      1.294798     1.672359     2.220085
Gh(H)      2.399115     1.116522     1.261384
Gh(O)     -0.863562     0.600979    -1.935483
Gh(H)     -1.872318     0.424331    -1.975920
Gh(H)     -0.615829     1.523469    -1.858067

units ang
no_reorient
no_com
symmetry c1
}

set {
basis        aug-cc-pVTZ
scf_type     df
}

energy("mp2")
--------------------------------------------------------------------------

    Molecular point group: c1

    Geometry (in Angstrom), charge = 0, multiplicity = 1:

       Center              X                  Y                   Z               Mass
    ------------   -----------------  -----------------  -----------------  -----------------
      Gh(NA)          0.000000000000     0.000000000000     0.000000000000    22.989769282000
         O           -1.270703000000     1.958564000000     0.911769000000    15.994914619570
         H           -2.124725000000     1.551684000000     0.575181000000     1.007825032230
         H           -1.379974000000     2.228364000000     1.821269000000     1.007825032230
      Gh(O)           0.587472000000    -2.201463000000     0.748927000000    15.994914619570
      Gh(H)          -0.101641000000    -2.358357000000     1.431600000000     1.007825032230
      Gh(H)           1.379076000000    -2.483852000000     1.213110000000     1.007825032230
      Gh(O)          -2.211830000000    -1.319853000000     0.286643000000    15.994914619570
      Gh(H)          -2.899654000000    -0.680785000000     0.484013000000     1.007825032230
      Gh(H)          -1.960837000000    -1.588265000000     1.197980000000     1.007825032230
      Gh(O)           1.514145000000     0.926826000000     1.650245000000    15.994914619570
      Gh(H)           1.294798000000     1.672359000000     2.220085000000     1.007825032230
      Gh(H)           2.399115000000     1.116522000000     1.261384000000     1.007825032230
      Gh(O)          -0.863562000000     0.600979000000    -1.935483000000    15.994914619570
      Gh(H)          -1.872318000000     0.424331000000    -1.975920000000     1.007825032230
      Gh(H)          -0.615829000000     1.523469000000    -1.858067000000     1.007825032230

  Charge       = 0
  Multiplicity = 1
  Basis Set: AUG-CC-PVTZ
    Blend: AUG-CC-PVTZ
  Basis Set: (AUG-CC-PVTZ AUX)
    Blend: AUG-CC-PVTZ-JKFIT + DEF2-UNIVERSAL-JKFIT

    Orbital Energies [Eh]
    ---------------------

    Doubly Occupied:

       1A    -20.568266     2A     -1.339332     3A     -0.715046
       4A     -0.570486     5A     -0.506955

  @DF-RHF Final Energy:   -76.05676502857786

   => Energetics <=

    Nuclear Repulsion Energy =              8.9797164795512785
    One-Electron Energy =                -122.6727899137954125
    Two-Electron Energy =                  37.6363084056662700
    Total Energy =                        -76.0567650285778569
 Dipole X            :         25.1945689          -25.8331665           -0.6385976
 Dipole Y            :        -36.8406625           36.7524519           -0.0882106
 Dipole Z            :        -17.9253961           18.3125838            0.3871877
 Magnitude           :                                                    0.7519989
  Basis Set: (AUG-CC-PVTZ AUX)
    Blend: AUG-CC-PVTZ-RI + DEF2-QZVPP-RI
	 Reference Energy          =     -76.0567650285778569 [Eh]
	 Singles Energy            =      -0.0000000000000000 [Eh]
	 Same-Spin Energy          =      -0.0687258673328521 [Eh]
	 Opposite-Spin Energy      =      -0.2168621313698218 [Eh]
	 Correlation Energy        =      -0.2855879987026739 [Eh]
	 Total Energy              =     -76.3423530272805237 [Eh]

	 ================> DF-SCS-MP2 Energies <==================
	-----------------------------------------------------------
	 SCS Same-Spin Scale       =       0.3333333333333333 [-]
	 SCS Opposite-Spin Scale   =       1.2000000000000000 [-]
	 SCS Same-Spin Energy      =      -0.0229086224442840 [Eh]
	 SCS Opposite-Spin Energy  =      -0.2602345576437862 [Eh]
	 SCS Correlation Energy    =      -0.2831431800880702 [Eh]
	 SCS Total Energy          =     -76.3399082086659320 [Eh]
	-----------------------------------------------------------

*** Psi4 exiting successfully. Buy a developer a beer!
