                               Psi4 1.8.2 release

  ==> Input File <==

--------------------------------------------------------------------------
MEMORY 60 GB

molecule dimer {
1 1
Na         0.000000     0.000000     0.000000
O          0.327213    -1.859611     1.348713
H          0.542964    -2.554233     0.688897
H         -0.548316    -2.057300     1.663678
O          1.960777     1.106108    -0.764745
H          1.831324     2.060066    -0.784795
H          2.497879     1.060595    -1.621372
O         -0.358398    -1.218556    -1.863096
H          0.174529    -1.439270    -2.616413
H         -0.633326    -2.005493    -1.343861
O         -1.731597     1.753884    -0.356645
H         -1.112098     2.484718    -0.459952
H         -1.915209     1.784048     0.600745
O          0.225207     1.568908     1.853126
H          0.455797     0.843306     2.428642
H          0.938072     2.204615     1.866753

units ang
no_reorient
no_com
symmetry c1
}

set {
basis        aug-cc-pVTZ
scf_type     df
}

energy("mp2")
--------------------------------------------------------------------------

    Molecular point group: c1

    Geometry (in Angstrom), charge = 1, multiplicity = 1:

       Center              X                  Y                   Z               Mass
    ------------   -----------------  -----------------  -----------------  -----------------
         NA           0.000000000000     0.000000000000     0.000000000000    22.989769282000
         O            0.327213000000    -1.859611000000     1.348713000000    15.994914619570
         H            0.542964000000    -2.554233000000     0.688897000000     1.007825032230
         H           -0.548316000000    -2.057300000000     1.663678000000     1.007825032230
         O            1.960777000000     1.106108000000    -0.764745000000    15.994914619570
         H            1.831324000000     2.060066000000    -0.784795000000     1.007825032230
         H            2.497879000000     1.060595000000    -1.621372000000     1.007825032230
         O           -0.358398000000    -1.218556000000    -1.863096000000    15.994914619570
         H            0.174529000000    -1.439270000000    -2.616413000000     1.007825032230
         H           -0.633326000000    -2.005493000000    -1.343861000000     1.007825032230
         O           -1.731597000000     1.753884000000    -0.356645000000    15.994914619570
         H           -1.112098000000     2.484718000000    -0.459952000000     1.007825032230
         H           -1.915209000000     1.784048000000     0.600745000000     1.007825032230
         O            0.225207000000     1.568908000000     1.853126000000    15.994914619570
         H            0.455797000000     0.843306000000     2.428642000000     1.007825032230
         H            0.938072000000     2.204615000000     1.866753000000     1.007825032230

  Charge       = 1
  Multiplicity = 1
  Basis Set: AUG-CC-PVTZ
    Blend: AUG-CC-PVTZ
  Basis Set: (AUG-CC-PVTZ AUX)
    Blend: AUG-CC-PVTZ-JKFIT + DEF2-UNIVERSAL-JKFIT

    Orbital Energies [Eh]
    ---------------------

    Doubly Occupied:

       1A    -40.567272     2A    -20.752849     3A    -20.739802
       4A    -20.734665     5A    -20.730650     6A    -20.708689
       7A     -2.891367     8A     -1.617689     9A     -1.616612
      10A     -1.615344    11A     -1.536407    12A     -1.522615
      13A     -1.517540    14A     -1.512641    15A     -1.490916
      16A     -0.906354    17A     -0.900394    18A     -0.896048
      19A     -0.852124    20A     -0.846368    21A     -0.776354
      22A     -0.771805    23A     -0.761896    24A     -0.749521
      25A     -0.724494    26A     -0.705928    27A     -0.685184
      28A     -0.683536    29A     -0.678512    30A     -0.653849

  @DF-RHF Final Energy:  -542.07056518674176

   => Energetics <=

    Nuclear Repulsion Energy =            306.8037336044786798
    One-Electron Energy =               -1355.4537432155618717
    Two-Electron Energy =                 506.5794444243413182
    Total Energy =                       -542.0705651867417600
 Dipole X            :         -9.5391656           10.6150301            1.0758645
 Dipole Y            :        -25.1487138           24.9196597           -0.2290542
 Dipole Z            :         -4.0730474            4.0839741            0.0109266
 Magnitude           :                                                    1.1000316
  Basis Set: (AUG-CC-PVTZ AUX)
    Blend: AUG-CC-PVTZ-RI + DEF2-QZVPP-RI
	 Reference Energy          =    -542.0705651867417600 [Eh]
	 Singles Energy            =      -0.0000000000000000 [Eh]
	 Same-Spin Energy          =      -0.3516891705752612 [Eh]
	 Opposite-Spin Energy      =      -1.1001619211100004 [Eh]
	 Correlation Energy        =      -1.4518510916852616 [Eh]
	 Total Energy              =    -543.5224162784270447 [Eh]

	 ================> DF-SCS-MP2 Energies <==================
	-----------------------------------------------------------
	 SCS Same-Spin Scale       =       0.3333333333333333 [-]
	 SCS Opposite-Spin Scale   =       1.2000000000000000 [-]
	 SCS Same-Spin Energy      =      -0.1172297235250871 [Eh]
	 SCS Opposite-Spin Energy  =      -1.3201943053320004 [Eh]
	 SCS Correlation Energy    =      -1.4374240288570874 [Eh]
	 SCS Total Energy          =    -543.5079892155988546 [Eh]
	-----------------------------------------------------------

*** Psi4 exiting successfully. Buy a developer a beer!
