                               Psi4 1.8.2 release

  ==> Input File <==

--------------------------------------------------------------------------
MEMORY 60 GB

molecule dimer {
0 1
Gh(Na)     0.000000     0.000000     0.000000
Gh(O)     -1.136205     2.109216     0.011475
Gh(H)     -1.817514     2.445570     0.580069
Gh(H)     -0.451115     2.773422    -0.131302
Gh(O)      1.252024    -2.158597    -0.042907
Gh(H)      1.513019    -2.709178     0.698471
Gh(H)      1.692694    -2.571460    -0.772312
Gh(O)      2.180151     1.061963    -0.494664
Gh(H)      2.109145     1.159492    -1.466466
Gh(H)      2.569159     1.827540    -0.098947
O         -0.175210     0.603986    -2.316960
H         -0.687306    -0.098022    -2.722072
H         -0.718872     1.408419    -2.299209
Gh(O)     -0.000383    -0.188447     2.289591
Gh(H)      0.693352    -0.570890     2.866500
Gh(H)     -0.819570    -0.668426     2.496017

units ang
no_reorient
no_com
symmetry c1
}

set {
basis        aug-cc-pVTZ
scf_type     df
}

energy("mp2")
--------------------------------------------------------------------------

    Molecular point group: c1

    Geometry (in Angstrom), charge = 0, multiplicity = 1:

       Center              X                  Y                   Z               Mass
    ------------   -----------------  -----------------  -----------------  -----------------
      Gh(NA)          0.000000000000     0.000000000000     0.000000000000    22.989769282000
      Gh(O)          -1.136205000000     2.109216000000     0.011475000000    15.994914619570
      Gh(H)          -1.817514000000     2.445570000000     0.580069000000     1.007825032230
      Gh(H)          -0.451115000000     2.773422000000    -0.131302000000     1.007825032230
      Gh(O)           1.252024000000    -2.158597000000    -0.042907000000    15.994914619570
      Gh(H)           1.513019000000    -2.709178000000     0.698471000000     1.007825032230
      Gh(H)           1.692694000000    -2.571460000000    -0.772312000000     1.007825032230
      Gh(O)           2.180151000000     1.061963000000    -0.494664000000    15.994914619570
      Gh(H)           2.109145000000     1.159492000000    -1.466466000000     1.007825032230
      Gh(H)           2.569159000000     1.827540000000    -0.098947000000     1.007825032230
         O           -0.175210000000     0.603986000000    -2.316960000000    15.994914619570
         H           -0.687306000000    -0.098022000000    -2.722072000000     1.007825032230
         H           -0.718872000000     1.408419000000    -2.299209000000     1.007825032230
      Gh(O)          -0.000383000000    -0.188447000000     2.289591000000    15.994914619570
      Gh(H)           0.693352000000    -0.570890000000     2.866500000000     1.007825032230
      Gh(H)          -0.819570000000    -0.668426000000     2.496017000000     1.007825032230

  Charge       = 0
  Multiplicity = 1
  Basis Set: AUG-CC-PVTZ
    Blend: AUG-CC-PVTZ
  Basis Set: (AUG-CC-PVTZ AUX)
    Blend: AUG-CC-PVTZ-JKFIT + DEF2-UNIVERSAL-JKFIT

    Orbital Energies [Eh]
    ---------------------

    Doubly Occupied:

       1A    -20.566524     2A     -1.346863     3A     -0.720720
       4A     -0.575848     5A     -0.508522

  @DF-RHF Final Energy:   -76.05988294083151

   => Energetics <=

    Nuclear Repulsion Energy =              9.1132586665736977
    One-Electron Energy =                -122.9093260980939277
    Two-Electron Energy =                  37.7361844906887072
    Total Energy =                        -76.0598829408315282
 Dipole X            :          4.5992911           -5.3060826           -0.7067915
 Dipole Y            :        -11.5404034           11.6072364            0.0668330
 Dipole Z            :         44.2561078          -44.5162046           -0.2600969
 Magnitude           :                                                    0.7560894
  Basis Set: (AUG-CC-PVTZ AUX)
    Blend: AUG-CC-PVTZ-RI + DEF2-QZVPP-RI
	 Reference Energy          =     -76.0598829408315140 [Eh]
	 Singles Energy            =      -0.0000000000000000 [Eh]
	 Same-Spin Energy          =      -0.0685062377281436 [Eh]
	 Opposite-Spin Energy      =      -0.2161840146346644 [Eh]
	 Correlation Energy        =      -0.2846902523628080 [Eh]
	 Total Energy              =     -76.3445731931943214 [Eh]

	 ================> DF-SCS-MP2 Energies <==================
	-----------------------------------------------------------
	 SCS Same-Spin Scale       =       0.3333333333333333 [-]
	 SCS Opposite-Spin Scale   =       1.2000000000000000 [-]
	 SCS Same-Spin Energy      =      -0.0228354125760479 [Eh]
	 SCS Opposite-Spin Energy  =      -0.2594208175615972 [Eh]
	 SCS Correlation Energy    =      -0.2822562301376451 [Eh]
	 SCS Total Energy          =     -76.3421391709691619 [Eh]
	-----------------------------------------------------------

*** Psi4 exiting successfully. Buy a developer a beer!
