                               Psi4 1.8.2 release

  ==> Input File <==

--------------------------------------------------------------------------
MEMORY 60 GB

molecule dimer {
0 1
Gh(Na)     0.000000     0.000000     0.000000
O          0.985243     1.361756    -1.542488
H          1.874246     1.350733    -1.934909
H          0.414988     1.260066    -2.324670
Gh(O)      0.823978     0.878247     2.115655
Gh(H)      1.298081     1.751934     2.375790
Gh(H)      0.257828     0.586640     2.820213
Gh(O)     -0.226418    -1.408438    -1.797917
Gh(H)     -0.917865    -2.089083    -1.585986
Gh(H)      0.448556    -1.874981    -2.327105
Gh(O)     -1.974562     0.901395    -0.277079
Gh(H)     -2.014013     1.682929     0.320102
Gh(H)     -2.637138     0.327502     0.068322

units ang
no_reorient
no_com
symmetry c1
}

set {
basis        aug-cc-pVTZ
scf_type     df
}

energy("mp2")
--------------------------------------------------------------------------

    Molecular point group: c1

    Geometry (in Angstrom), charge = 0, multiplicity = 1:

       Center              X                  Y                   Z               Mass
    ------------   -----------------  -----------------  -----------------  -----------------
      Gh(NA)          0.000000000000     0.000000000000     0.000000000000    22.989769282000
         O            0.985243000000     1.361756000000    -1.542488000000    15.994914619570
         H            1.874246000000     1.350733000000    -1.934909000000     1.007825032230
         H            0.414988000000     1.260066000000    -2.324670000000     1.007825032230
      Gh(O)           0.823978000000     0.878247000000     2.115655000000    15.994914619570
      Gh(H)           1.298081000000     1.751934000000     2.375790000000     1.007825032230
      Gh(H)           0.257828000000     0.586640000000     2.820213000000     1.007825032230
      Gh(O)          -0.226418000000    -1.408438000000    -1.797917000000    15.994914619570
      Gh(H)          -0.917865000000    -2.089083000000    -1.585986000000     1.007825032230
      Gh(H)           0.448556000000    -1.874981000000    -2.327105000000     1.007825032230
      Gh(O)          -1.974562000000     0.901395000000    -0.277079000000    15.994914619570
      Gh(H)          -2.014013000000     1.682929000000     0.320102000000     1.007825032230
      Gh(H)          -2.637138000000     0.327502000000     0.068322000000     1.007825032230

  Charge       = 0
  Multiplicity = 1
  Basis Set: AUG-CC-PVTZ
    Blend: AUG-CC-PVTZ
  Basis Set: (AUG-CC-PVTZ AUX)
    Blend: AUG-CC-PVTZ-JKFIT + DEF2-UNIVERSAL-JKFIT

    Orbital Energies [Eh]
    ---------------------

    Doubly Occupied:

       1A    -20.570718     2A     -1.347365     3A     -0.704839
       4A     -0.586535     5A     -0.509779

  @DF-RHF Final Energy:   -76.05904726260198

   => Energetics <=

    Nuclear Repulsion Energy =              9.0553671961682145
    One-Electron Energy =                -122.7903538941878452
    Two-Electron Energy =                  37.6759394354176393
    Total Energy =                        -76.0590472626019789
 Dipole X            :        -19.0119224           19.2207408            0.2088184
 Dipole Y            :        -25.5939383           25.5204622           -0.0734761
 Dipole Z            :         30.6001382          -31.3684767           -0.7683385
 Magnitude           :                                                    0.7995924
  Basis Set: (AUG-CC-PVTZ AUX)
    Blend: AUG-CC-PVTZ-RI + DEF2-QZVPP-RI
	 Reference Energy          =     -76.0590472626019789 [Eh]
	 Singles Energy            =      -0.0000000000000000 [Eh]
	 Same-Spin Energy          =      -0.0687326188421651 [Eh]
	 Opposite-Spin Energy      =      -0.2168074076134495 [Eh]
	 Correlation Energy        =      -0.2855400264556146 [Eh]
	 Total Energy              =     -76.3445872890575998 [Eh]

	 ================> DF-SCS-MP2 Energies <==================
	-----------------------------------------------------------
	 SCS Same-Spin Scale       =       0.3333333333333333 [-]
	 SCS Opposite-Spin Scale   =       1.2000000000000000 [-]
	 SCS Same-Spin Energy      =      -0.0229108729473884 [Eh]
	 SCS Opposite-Spin Energy  =      -0.2601688891361394 [Eh]
	 SCS Correlation Energy    =      -0.2830797620835278 [Eh]
	 SCS Total Energy          =     -76.3421270246855102 [Eh]
	-----------------------------------------------------------

*** Psi4 exiting successfully. Buy a developer a beer!
