                               Psi4 1.8.2 release

  ==> Input File <==

--------------------------------------------------------------------------
MEMORY 60 GB

molecule dimer {
1 1
Na         0.000000     0.000000     0.000000
O          2.205971     0.635159     0.728373
H          3.053339     0.255335     0.378257
H          2.077247     0.411983     1.671787
O         -2.285012    -0.545726    -1.025332
H         -1.993376    -0.558243    -1.924281
H         -2.614469    -1.469788    -0.906414
O          0.374764     0.481414    -2.151325
H         -0.097932    -0.007771    -2.837168
H          0.086886     1.404508    -2.205016
O         -1.072663     0.652617     2.238731
H         -0.201901     0.519877     2.729850
H         -1.247442     1.590189     2.428781

units ang
no_reorient
no_com
symmetry c1
}

set {
basis        aug-cc-pVTZ
scf_type     df
}

energy("mp2")
--------------------------------------------------------------------------

    Molecular point group: c1

    Geometry (in Angstrom), charge = 1, multiplicity = 1:

       Center              X                  Y                   Z               Mass
    ------------   -----------------  -----------------  -----------------  -----------------
         NA           0.000000000000     0.000000000000     0.000000000000    22.989769282000
         O            2.205971000000     0.635159000000     0.728373000000    15.994914619570
         H            3.053339000000     0.255335000000     0.378257000000     1.007825032230
         H            2.077247000000     0.411983000000     1.671787000000     1.007825032230
         O           -2.285012000000    -0.545726000000    -1.025332000000    15.994914619570
         H           -1.993376000000    -0.558243000000    -1.924281000000     1.007825032230
         H           -2.614469000000    -1.469788000000    -0.906414000000     1.007825032230
         O            0.374764000000     0.481414000000    -2.151325000000    15.994914619570
         H           -0.097932000000    -0.007771000000    -2.837168000000     1.007825032230
         H            0.086886000000     1.404508000000    -2.205016000000     1.007825032230
         O           -1.072663000000     0.652617000000     2.238731000000    15.994914619570
         H           -0.201901000000     0.519877000000     2.729850000000     1.007825032230
         H           -1.247442000000     1.590189000000     2.428781000000     1.007825032230

  Charge       = 1
  Multiplicity = 1
  Basis Set: AUG-CC-PVTZ
    Blend: AUG-CC-PVTZ
  Basis Set: (AUG-CC-PVTZ AUX)
    Blend: AUG-CC-PVTZ-JKFIT + DEF2-UNIVERSAL-JKFIT

    Orbital Energies [Eh]
    ---------------------

    Doubly Occupied:

       1A    -40.602108     2A    -20.749237     3A    -20.744253
       4A    -20.739958     5A    -20.732003     6A     -2.923248
       7A     -1.648997     8A     -1.647658     9A     -1.645991
      10A     -1.533767    11A     -1.515139    12A     -1.513583
      13A     -1.506768    14A     -0.904187    15A     -0.892617
      16A     -0.870732    17A     -0.859070    18A     -0.774393
      19A     -0.758736    20A     -0.751950    21A     -0.750416
      22A     -0.704058    23A     -0.688100    24A     -0.678884
      25A     -0.674310

  @DF-RHF Final Energy:  -465.99390259614717

   => Energetics <=

    Nuclear Repulsion Energy =            210.3459692715588574
    One-Electron Energy =               -1059.0594134751277124
    Two-Electron Energy =                 382.7195416074217178
    Total Energy =                       -465.9939025961471657
 Dipole X            :         13.8947740          -13.5175284            0.3772456
 Dipole Y            :        -22.5994396           22.5516174           -0.0478222
 Dipole Z            :          4.2001967           -4.4231459           -0.2229491
 Magnitude           :                                                    0.4408032
  Basis Set: (AUG-CC-PVTZ AUX)
    Blend: AUG-CC-PVTZ-RI + DEF2-QZVPP-RI
	 Reference Energy          =    -465.9939025961471657 [Eh]
	 Singles Energy            =      -0.0000000000000000 [Eh]
	 Same-Spin Energy          =      -0.2812914367482002 [Eh]
	 Opposite-Spin Energy      =      -0.8822100128744363 [Eh]
	 Correlation Energy        =      -1.1635014496226366 [Eh]
	 Total Energy              =    -467.1574040457697947 [Eh]

	 ================> DF-SCS-MP2 Energies <==================
	-----------------------------------------------------------
	 SCS Same-Spin Scale       =       0.3333333333333333 [-]
	 SCS Opposite-Spin Scale   =       1.2000000000000000 [-]
	 SCS Same-Spin Energy      =      -0.0937638122494001 [Eh]
	 SCS Opposite-Spin Energy  =      -1.0586520154493235 [Eh]
	 SCS Correlation Energy    =      -1.1524158276987235 [Eh]
	 SCS Total Energy          =    -467.1463184238459121 [Eh]
	-----------------------------------------------------------

*** Psi4 exiting successfully. Buy a developer a beer!
