                               Psi4 1.8.2 release

  ==> Input File <==

--------------------------------------------------------------------------
MEMORY 60 GB

molecule dimer {
1 1
Na         0.000000     0.000000     0.000000
O          2.442818    -0.818335    -0.280039
H          2.662756    -1.105563    -1.187076
H          3.208163    -0.351618     0.190231
O         -0.058577    -2.340401    -0.318056
H         -0.112691    -2.261522    -1.308213
H          0.766812    -2.877198    -0.136880
O          0.863805     0.451918     1.955806
H          0.128582     0.541557     2.595334
H          1.459083    -0.217450     2.287615
O         -0.118006     0.999042    -2.213928
H         -0.295160     0.203419    -2.715433
H         -0.977633     1.399250    -1.948543
O         -2.250881    -0.512047    -0.293423
H         -2.775036    -0.153755     0.439369
H         -2.575489    -1.386135    -0.545203

units ang
no_reorient
no_com
symmetry c1
}

set {
basis        aug-cc-pVTZ
scf_type     df
}

energy("mp2")
--------------------------------------------------------------------------

    Molecular point group: c1

    Geometry (in Angstrom), charge = 1, multiplicity = 1:

       Center              X                  Y                   Z               Mass
    ------------   -----------------  -----------------  -----------------  -----------------
         NA           0.000000000000     0.000000000000     0.000000000000    22.989769282000
         O            2.442818000000    -0.818335000000    -0.280039000000    15.994914619570
         H            2.662756000000    -1.105563000000    -1.187076000000     1.007825032230
         H            3.208163000000    -0.351618000000     0.190231000000     1.007825032230
         O           -0.058577000000    -2.340401000000    -0.318056000000    15.994914619570
         H           -0.112691000000    -2.261522000000    -1.308213000000     1.007825032230
         H            0.766812000000    -2.877198000000    -0.136880000000     1.007825032230
         O            0.863805000000     0.451918000000     1.955806000000    15.994914619570
         H            0.128582000000     0.541557000000     2.595334000000     1.007825032230
         H            1.459083000000    -0.217450000000     2.287615000000     1.007825032230
         O           -0.118006000000     0.999042000000    -2.213928000000    15.994914619570
         H           -0.295160000000     0.203419000000    -2.715433000000     1.007825032230
         H           -0.977633000000     1.399250000000    -1.948543000000     1.007825032230
         O           -2.250881000000    -0.512047000000    -0.293423000000    15.994914619570
         H           -2.775036000000    -0.153755000000     0.439369000000     1.007825032230
         H           -2.575489000000    -1.386135000000    -0.545203000000     1.007825032230

  Charge       = 1
  Multiplicity = 1
  Basis Set: AUG-CC-PVTZ
    Blend: AUG-CC-PVTZ
  Basis Set: (AUG-CC-PVTZ AUX)
    Blend: AUG-CC-PVTZ-JKFIT + DEF2-UNIVERSAL-JKFIT

    Orbital Energies [Eh]
    ---------------------

    Doubly Occupied:

       1A    -40.557372     2A    -20.732745     3A    -20.732718
       4A    -20.730397     5A    -20.722552     6A    -20.721131
       7A     -2.882185     8A     -1.609439     9A     -1.606914
      10A     -1.606201    11A     -1.517432    12A     -1.515042
      13A     -1.501974    14A     -1.495671    15A     -1.484866
      16A     -0.895028    17A     -0.890124    18A     -0.874837
      19A     -0.866937    20A     -0.858602    21A     -0.760871
      22A     -0.757168    23A     -0.743819    24A     -0.731846
      25A     -0.727584    26A     -0.684579    27A     -0.679637
      28A     -0.671187    29A     -0.669337    30A     -0.660018

  @DF-RHF Final Energy:  -542.06824645785707

   => Energetics <=

    Nuclear Repulsion Energy =            309.0596617849425911
    One-Electron Energy =               -1360.4793903494708047
    Two-Electron Energy =                 509.3514821066711988
    Total Energy =                       -542.0682464578569579
 Dipole X            :        -16.2212712           16.1054914           -0.1157798
 Dipole Y            :         43.9159678          -45.2921980           -1.3762302
 Dipole Z            :         21.7995415          -21.7808303            0.0187113
 Magnitude           :                                                    1.3812185
  Basis Set: (AUG-CC-PVTZ AUX)
    Blend: AUG-CC-PVTZ-RI + DEF2-QZVPP-RI
	 Reference Energy          =    -542.0682464578570716 [Eh]
	 Singles Energy            =      -0.0000000000000000 [Eh]
	 Same-Spin Energy          =      -0.3527208924852904 [Eh]
	 Opposite-Spin Energy      =      -1.1023459306944565 [Eh]
	 Correlation Energy        =      -1.4550668231797470 [Eh]
	 Total Energy              =    -543.5233132810368488 [Eh]

	 ================> DF-SCS-MP2 Energies <==================
	-----------------------------------------------------------
	 SCS Same-Spin Scale       =       0.3333333333333333 [-]
	 SCS Opposite-Spin Scale   =       1.2000000000000000 [-]
	 SCS Same-Spin Energy      =      -0.1175736308284301 [Eh]
	 SCS Opposite-Spin Energy  =      -1.3228151168333477 [Eh]
	 SCS Correlation Energy    =      -1.4403887476617778 [Eh]
	 SCS Total Energy          =    -543.5086352055188854 [Eh]
	-----------------------------------------------------------

*** Psi4 exiting successfully. Buy a developer a beer!
