                               Psi4 1.8.2 release

  ==> Input File <==

--------------------------------------------------------------------------
MEMORY 60 GB

molecule dimer {
0 1
Gh(Na)     0.000000     0.000000     0.000000
O          0.112621    -1.386806    -1.972606
H          0.672583    -1.550070    -2.775900
H         -0.603129    -2.048594    -1.903750
Gh(O)      1.852574    -1.386479     0.816134
Gh(H)      2.242350    -2.087796     0.203988
Gh(H)      1.341615    -1.750473     1.542276
Gh(O)     -2.022339     1.221625    -0.636373
Gh(H)     -2.927026     0.757137    -0.600158
Gh(H)     -1.792091     1.337729    -1.566912
Gh(O)     -1.416620    -1.275424     1.492934
Gh(H)     -2.160042    -1.185167     2.079025
Gh(H)     -0.840556    -1.926141     1.953126
Gh(O)      2.144001     1.442874    -0.647730
Gh(H)      2.575039     1.174574    -1.498240
Gh(H)      2.815913     1.315215     0.053847
Gh(O)      0.138862     1.360945     1.935363
Gh(H)      0.721431     2.052917     2.221916
Gh(H)     -0.531806     1.357180     2.629171

units ang
no_reorient
no_com
symmetry c1
}

set {
basis        aug-cc-pVTZ
scf_type     df
}

energy("mp2")
--------------------------------------------------------------------------

    Molecular point group: c1

    Geometry (in Angstrom), charge = 0, multiplicity = 1:

       Center              X                  Y                   Z               Mass
    ------------   -----------------  -----------------  -----------------  -----------------
      Gh(NA)          0.000000000000     0.000000000000     0.000000000000    22.989769282000
         O            0.112621000000    -1.386806000000    -1.972606000000    15.994914619570
         H            0.672583000000    -1.550070000000    -2.775900000000     1.007825032230
         H           -0.603129000000    -2.048594000000    -1.903750000000     1.007825032230
      Gh(O)           1.852574000000    -1.386479000000     0.816134000000    15.994914619570
      Gh(H)           2.242350000000    -2.087796000000     0.203988000000     1.007825032230
      Gh(H)           1.341615000000    -1.750473000000     1.542276000000     1.007825032230
      Gh(O)          -2.022339000000     1.221625000000    -0.636373000000    15.994914619570
      Gh(H)          -2.927026000000     0.757137000000    -0.600158000000     1.007825032230
      Gh(H)          -1.792091000000     1.337729000000    -1.566912000000     1.007825032230
      Gh(O)          -1.416620000000    -1.275424000000     1.492934000000    15.994914619570
      Gh(H)          -2.160042000000    -1.185167000000     2.079025000000     1.007825032230
      Gh(H)          -0.840556000000    -1.926141000000     1.953126000000     1.007825032230
      Gh(O)           2.144001000000     1.442874000000    -0.647730000000    15.994914619570
      Gh(H)           2.575039000000     1.174574000000    -1.498240000000     1.007825032230
      Gh(H)           2.815913000000     1.315215000000     0.053847000000     1.007825032230
      Gh(O)           0.138862000000     1.360945000000     1.935363000000    15.994914619570
      Gh(H)           0.721431000000     2.052917000000     2.221916000000     1.007825032230
      Gh(H)          -0.531806000000     1.357180000000     2.629171000000     1.007825032230

  Charge       = 0
  Multiplicity = 1
  Basis Set: AUG-CC-PVTZ
    Blend: AUG-CC-PVTZ
  Basis Set: (AUG-CC-PVTZ AUX)
    Blend: AUG-CC-PVTZ-JKFIT + DEF2-UNIVERSAL-JKFIT

    Orbital Energies [Eh]
    ---------------------

    Doubly Occupied:

       1A    -20.568619     2A     -1.335327     3A     -0.714178
       4A     -0.567072     5A     -0.506000

  @DF-RHF Final Energy:   -76.05642101648660

   => Energetics <=

    Nuclear Repulsion Energy =              8.9223603830566685
    One-Electron Energy =                -122.5751659247167282
    Two-Electron Energy =                  37.5963845251734625
    Total Energy =                        -76.0564210164865955
 Dipole X            :         -1.9393795            1.8338318           -0.1055476
 Dipole Y            :         27.2154769          -27.7659576           -0.5504807
 Dipole Z            :         38.1761938          -38.6647376           -0.4885438
 Magnitude           :                                                    0.7435351
  Basis Set: (AUG-CC-PVTZ AUX)
    Blend: AUG-CC-PVTZ-RI + DEF2-QZVPP-RI
	 Reference Energy          =     -76.0564210164865955 [Eh]
	 Singles Energy            =      -0.0000000000000000 [Eh]
	 Same-Spin Energy          =      -0.0688134223738326 [Eh]
	 Opposite-Spin Energy      =      -0.2170613624172408 [Eh]
	 Correlation Energy        =      -0.2858747847910734 [Eh]
	 Total Energy              =     -76.3422958012776718 [Eh]

	 ================> DF-SCS-MP2 Energies <==================
	-----------------------------------------------------------
	 SCS Same-Spin Scale       =       0.3333333333333333 [-]
	 SCS Opposite-Spin Scale   =       1.2000000000000000 [-]
	 SCS Same-Spin Energy      =      -0.0229378074579442 [Eh]
	 SCS Opposite-Spin Energy  =      -0.2604736349006890 [Eh]
	 SCS Correlation Energy    =      -0.2834114423586331 [Eh]
	 SCS Total Energy          =     -76.3398324588452226 [Eh]
	-----------------------------------------------------------

*** Psi4 exiting successfully. Buy a developer a beer!
