                               Psi4 1.8.2 release

  ==> Input File <==

--------------------------------------------------------------------------
MEMORY 60 GB

molecule dimer {
1 1
Na         0.000000     0.000000     0.000000
Gh(O)      0.056153    -1.593017    -1.588907
Gh(H)     -0.422819    -1.289136    -2.393865
Gh(H)     -0.138369    -2.503753    -1.378373
Gh(O)      1.408983    -1.281787     1.277252
Gh(H)      0.964298    -1.922010     1.792464
Gh(H)      1.991702    -0.868205     1.920136
Gh(O)     -1.809137     1.083746    -1.258510
Gh(H)     -1.679558     1.887221    -1.716686
Gh(H)     -2.630287     1.152332    -0.772428
Gh(O)      1.718985     1.693094    -0.096897
Gh(H)      2.245607     1.434703     0.635177
Gh(H)      1.263609     2.472586     0.090106
Gh(O)     -1.030025     1.048290     2.059206
Gh(H)     -0.379602     1.376428     2.604273
Gh(H)     -1.526575     0.492561     2.662498

units ang
no_reorient
no_com
symmetry c1
}

set {
basis        aug-cc-pVTZ
scf_type     df
}

energy("mp2")
--------------------------------------------------------------------------

    Molecular point group: c1

    Geometry (in Angstrom), charge = 1, multiplicity = 1:

       Center              X                  Y                   Z               Mass
    ------------   -----------------  -----------------  -----------------  -----------------
         NA           0.000000000000     0.000000000000     0.000000000000    22.989769282000
      Gh(O)           0.056153000000    -1.593017000000    -1.588907000000    15.994914619570
      Gh(H)          -0.422819000000    -1.289136000000    -2.393865000000     1.007825032230
      Gh(H)          -0.138369000000    -2.503753000000    -1.378373000000     1.007825032230
      Gh(O)           1.408983000000    -1.281787000000     1.277252000000    15.994914619570
      Gh(H)           0.964298000000    -1.922010000000     1.792464000000     1.007825032230
      Gh(H)           1.991702000000    -0.868205000000     1.920136000000     1.007825032230
      Gh(O)          -1.809137000000     1.083746000000    -1.258510000000    15.994914619570
      Gh(H)          -1.679558000000     1.887221000000    -1.716686000000     1.007825032230
      Gh(H)          -2.630287000000     1.152332000000    -0.772428000000     1.007825032230
      Gh(O)           1.718985000000     1.693094000000    -0.096897000000    15.994914619570
      Gh(H)           2.245607000000     1.434703000000     0.635177000000     1.007825032230
      Gh(H)           1.263609000000     2.472586000000     0.090106000000     1.007825032230
      Gh(O)          -1.030025000000     1.048290000000     2.059206000000    15.994914619570
      Gh(H)          -0.379602000000     1.376428000000     2.604273000000     1.007825032230
      Gh(H)          -1.526575000000     0.492561000000     2.662498000000     1.007825032230

  Charge       = 1
  Multiplicity = 1
  Basis Set: AUG-CC-PVTZ
    Blend: AUG-CC-PVTZ
  Basis Set: (AUG-CC-PVTZ AUX)
    Blend: AUG-CC-PVTZ-JKFIT + DEF2-UNIVERSAL-JKFIT

    Orbital Energies [Eh]
    ---------------------

    Doubly Occupied:

       1A    -40.760378     2A     -3.073782     3A     -1.797151
       4A     -1.797132     5A     -1.797091

  @DF-RHF Final Energy:  -161.67609115492562

   => Energetics <=

    Nuclear Repulsion Energy =              0.0000000000000000
    One-Electron Energy =                -224.9011164854557592
    Two-Electron Energy =                  63.2250253305301158
    Total Energy =                       -161.6760911549256434
 Dipole X            :         -0.0000496            0.0000000           -0.0000496
 Dipole Y            :         -0.0000045            0.0000000           -0.0000045
 Dipole Z            :          0.0001156            0.0000000            0.0001156
 Magnitude           :                                                    0.0001259
  Basis Set: (AUG-CC-PVTZ AUX)
    Blend: AUG-CC-PVTZ-RI + DEF2-QZVPP-RI
	 Reference Energy          =    -161.6760911549256150 [Eh]
	 Singles Energy            =      -0.0000000000000000 [Eh]
	 Same-Spin Energy          =      -0.0061658861006298 [Eh]
	 Opposite-Spin Energy      =      -0.0189738435652751 [Eh]
	 Correlation Energy        =      -0.0251397296659049 [Eh]
	 Total Energy              =    -161.7012308845915243 [Eh]

	 ================> DF-SCS-MP2 Energies <==================
	-----------------------------------------------------------
	 SCS Same-Spin Scale       =       0.3333333333333333 [-]
	 SCS Opposite-Spin Scale   =       1.2000000000000000 [-]
	 SCS Same-Spin Energy      =      -0.0020552953668766 [Eh]
	 SCS Opposite-Spin Energy  =      -0.0227686122783301 [Eh]
	 SCS Correlation Energy    =      -0.0248239076452067 [Eh]
	 SCS Total Energy          =    -161.7009150625708287 [Eh]
	-----------------------------------------------------------

*** Psi4 exiting successfully. Buy a developer a beer!
