                               Psi4 1.8.2 release

  ==> Input File <==

--------------------------------------------------------------------------
MEMORY 60 GB

molecule dimer {
1 1
Na         0.000000     0.000000     0.000000
O          1.334000    -1.849241     0.833682
H          0.843314    -2.454108     0.292436
H          1.075079    -1.910830     1.778471
O          0.600992     2.170522     0.487660
H          0.984422     2.164393     1.361891
H         -0.125654     2.794966     0.541435
O         -0.992808     0.222812     2.227261
H         -1.843637     0.610825     2.337129
H         -0.512337     0.213665     3.094299
O         -0.600025    -1.874107    -1.325344
H         -0.153155    -2.069651    -2.176957
H         -1.332728    -2.491016    -1.134304
O         -2.219894     1.097809    -0.293701
H         -2.721279     0.507752    -0.888427
H         -2.724866     1.291058     0.464875

units ang
no_reorient
no_com
symmetry c1
}

set {
basis        aug-cc-pVTZ
scf_type     df
}

energy("mp2")
--------------------------------------------------------------------------

    Molecular point group: c1

    Geometry (in Angstrom), charge = 1, multiplicity = 1:

       Center              X                  Y                   Z               Mass
    ------------   -----------------  -----------------  -----------------  -----------------
         NA           0.000000000000     0.000000000000     0.000000000000    22.989769282000
         O            1.334000000000    -1.849241000000     0.833682000000    15.994914619570
         H            0.843314000000    -2.454108000000     0.292436000000     1.007825032230
         H            1.075079000000    -1.910830000000     1.778471000000     1.007825032230
         O            0.600992000000     2.170522000000     0.487660000000    15.994914619570
         H            0.984422000000     2.164393000000     1.361891000000     1.007825032230
         H           -0.125654000000     2.794966000000     0.541435000000     1.007825032230
         O           -0.992808000000     0.222812000000     2.227261000000    15.994914619570
         H           -1.843637000000     0.610825000000     2.337129000000     1.007825032230
         H           -0.512337000000     0.213665000000     3.094299000000     1.007825032230
         O           -0.600025000000    -1.874107000000    -1.325344000000    15.994914619570
         H           -0.153155000000    -2.069651000000    -2.176957000000     1.007825032230
         H           -1.332728000000    -2.491016000000    -1.134304000000     1.007825032230
         O           -2.219894000000     1.097809000000    -0.293701000000    15.994914619570
         H           -2.721279000000     0.507752000000    -0.888427000000     1.007825032230
         H           -2.724866000000     1.291058000000     0.464875000000     1.007825032230

  Charge       = 1
  Multiplicity = 1
  Basis Set: AUG-CC-PVTZ
    Blend: AUG-CC-PVTZ
  Basis Set: (AUG-CC-PVTZ AUX)
    Blend: AUG-CC-PVTZ-JKFIT + DEF2-UNIVERSAL-JKFIT

    Orbital Energies [Eh]
    ---------------------

    Doubly Occupied:

       1A    -40.559671     2A    -20.744088     3A    -20.734948
       4A    -20.724796     5A    -20.711158     6A    -20.707901
       7A     -2.881965     8A     -1.607300     9A     -1.606725
      10A     -1.606048    11A     -1.520958    12A     -1.519075
      13A     -1.514044    14A     -1.501654    15A     -1.491582
      16A     -0.903895    17A     -0.899865    18A     -0.886140
      19A     -0.874744    20A     -0.866133    21A     -0.763758
      22A     -0.756785    23A     -0.744751    24A     -0.739690
      25A     -0.719681    26A     -0.691610    27A     -0.688453
      28A     -0.673976    29A     -0.657622    30A     -0.655084

  @DF-RHF Final Energy:  -542.08151641138761

   => Energetics <=

    Nuclear Repulsion Energy =            307.5753217418794065
    One-Electron Energy =               -1357.4054655486331740
    Two-Electron Energy =                 507.7486273953661566
    Total Energy =                       -542.0815164113876108
 Dipole X            :         38.5974828          -40.6909454           -2.0934626
 Dipole Y            :          5.3769713           -6.0482310           -0.6712597
 Dipole Z            :        -38.6394148           39.8870389            1.2476242
 Magnitude           :                                                    2.5277938
  Basis Set: (AUG-CC-PVTZ AUX)
    Blend: AUG-CC-PVTZ-RI + DEF2-QZVPP-RI
	 Reference Energy          =    -542.0815164113876108 [Eh]
	 Singles Energy            =      -0.0000000000000000 [Eh]
	 Same-Spin Energy          =      -0.3512666123131554 [Eh]
	 Opposite-Spin Energy      =      -1.0978459855836051 [Eh]
	 Correlation Energy        =      -1.4491125978967605 [Eh]
	 Total Energy              =    -543.5306290092843255 [Eh]

	 ================> DF-SCS-MP2 Energies <==================
	-----------------------------------------------------------
	 SCS Same-Spin Scale       =       0.3333333333333333 [-]
	 SCS Opposite-Spin Scale   =       1.2000000000000000 [-]
	 SCS Same-Spin Energy      =      -0.1170888707710518 [Eh]
	 SCS Opposite-Spin Energy  =      -1.3174151827003262 [Eh]
	 SCS Correlation Energy    =      -1.4345040534713780 [Eh]
	 SCS Total Energy          =    -543.5160204648590252 [Eh]
	-----------------------------------------------------------

*** Psi4 exiting successfully. Buy a developer a beer!
