                               Psi4 1.8.2 release

  ==> Input File <==

--------------------------------------------------------------------------
MEMORY 60 GB

molecule dimer {
0 1
Gh(Na)     0.000000     0.000000     0.000000
Gh(O)      2.097125    -0.497024     0.761194
Gh(H)      2.050085    -1.449035     0.873033
Gh(H)      2.546047    -0.299517     1.556234
Gh(O)      0.694124     2.052469     0.671515
Gh(H)      1.544738     2.338465     0.228031
Gh(H)      0.070848     2.347446    -0.028200
Gh(O)     -1.811270     0.275644    -1.321325
Gh(H)     -2.577804     0.825547    -1.027113
Gh(H)     -1.990529     0.001056    -2.250202
O         -2.004597     0.304099     1.444740
H         -2.367149     1.218233     1.601480
H         -2.783477    -0.189314     1.246767

units ang
no_reorient
no_com
symmetry c1
}

set {
basis        aug-cc-pVTZ
scf_type     df
}

energy("mp2")
--------------------------------------------------------------------------

    Molecular point group: c1

    Geometry (in Angstrom), charge = 0, multiplicity = 1:

       Center              X                  Y                   Z               Mass
    ------------   -----------------  -----------------  -----------------  -----------------
      Gh(NA)          0.000000000000     0.000000000000     0.000000000000    22.989769282000
      Gh(O)           2.097125000000    -0.497024000000     0.761194000000    15.994914619570
      Gh(H)           2.050085000000    -1.449035000000     0.873033000000     1.007825032230
      Gh(H)           2.546047000000    -0.299517000000     1.556234000000     1.007825032230
      Gh(O)           0.694124000000     2.052469000000     0.671515000000    15.994914619570
      Gh(H)           1.544738000000     2.338465000000     0.228031000000     1.007825032230
      Gh(H)           0.070848000000     2.347446000000    -0.028200000000     1.007825032230
      Gh(O)          -1.811270000000     0.275644000000    -1.321325000000    15.994914619570
      Gh(H)          -2.577804000000     0.825547000000    -1.027113000000     1.007825032230
      Gh(H)          -1.990529000000     0.001056000000    -2.250202000000     1.007825032230
         O           -2.004597000000     0.304099000000     1.444740000000    15.994914619570
         H           -2.367149000000     1.218233000000     1.601480000000     1.007825032230
         H           -2.783477000000    -0.189314000000     1.246767000000     1.007825032230

  Charge       = 0
  Multiplicity = 1
  Basis Set: AUG-CC-PVTZ
    Blend: AUG-CC-PVTZ
  Basis Set: (AUG-CC-PVTZ AUX)
    Blend: AUG-CC-PVTZ-JKFIT + DEF2-UNIVERSAL-JKFIT

    Orbital Energies [Eh]
    ---------------------

    Doubly Occupied:

       1A    -20.569950     2A     -1.349501     3A     -0.707044
       4A     -0.586591     5A     -0.510058

  @DF-RHF Final Energy:   -76.05815099986599

   => Energetics <=

    Nuclear Repulsion Energy =              9.0907988144081298
    One-Electron Energy =                -122.8516073151179171
    Two-Electron Energy =                  37.7026575008437987
    Total Energy =                        -76.0581509998659868
 Dipole X            :         39.2870484          -40.0383871           -0.7513387
 Dipole Y            :         -6.2748991            6.5416857            0.2667866
 Dipole Z            :        -27.2528031           27.2237101           -0.0290930
 Magnitude           :                                                    0.7978292
  Basis Set: (AUG-CC-PVTZ AUX)
    Blend: AUG-CC-PVTZ-RI + DEF2-QZVPP-RI
	 Reference Energy          =     -76.0581509998659868 [Eh]
	 Singles Energy            =      -0.0000000000000000 [Eh]
	 Same-Spin Energy          =      -0.0686591688015428 [Eh]
	 Opposite-Spin Energy      =      -0.2166001492890040 [Eh]
	 Correlation Energy        =      -0.2852593180905468 [Eh]
	 Total Energy              =     -76.3434103179565398 [Eh]

	 ================> DF-SCS-MP2 Energies <==================
	-----------------------------------------------------------
	 SCS Same-Spin Scale       =       0.3333333333333333 [-]
	 SCS Opposite-Spin Scale   =       1.2000000000000000 [-]
	 SCS Same-Spin Energy      =      -0.0228863896005143 [Eh]
	 SCS Opposite-Spin Energy  =      -0.2599201791468047 [Eh]
	 SCS Correlation Energy    =      -0.2828065687473190 [Eh]
	 SCS Total Energy          =     -76.3409575686133053 [Eh]
	-----------------------------------------------------------

*** Psi4 exiting successfully. Buy a developer a beer!
