                               Psi4 1.8.2 release

  ==> Input File <==

--------------------------------------------------------------------------
MEMORY 60 GB

molecule dimer {
0 1
Gh(Na)     0.000000     0.000000     0.000000
O          1.883305    -0.787728     1.103306
H          1.885842    -1.374752     1.892927
H          2.452066    -1.205300     0.437928
Gh(O)     -0.532091    -2.130325    -0.632144
Gh(H)     -0.199576    -2.040712    -1.524978
Gh(H)      0.239557    -2.564379    -0.117632
Gh(O)     -2.191649     0.554956    -0.988319
Gh(H)     -2.198458     1.493372    -1.035750
Gh(H)     -3.034836     0.267373    -0.638305
Gh(O)      1.316751     0.763309    -1.800840
Gh(H)      0.984517     0.646102    -2.716363
Gh(H)      1.851374     1.546851    -1.595691

units ang
no_reorient
no_com
symmetry c1
}

set {
basis        aug-cc-pVTZ
scf_type     df
}

energy("mp2")
--------------------------------------------------------------------------

    Molecular point group: c1

    Geometry (in Angstrom), charge = 0, multiplicity = 1:

       Center              X                  Y                   Z               Mass
    ------------   -----------------  -----------------  -----------------  -----------------
      Gh(NA)          0.000000000000     0.000000000000     0.000000000000    22.989769282000
         O            1.883305000000    -0.787728000000     1.103306000000    15.994914619570
         H            1.885842000000    -1.374752000000     1.892927000000     1.007825032230
         H            2.452066000000    -1.205300000000     0.437928000000     1.007825032230
      Gh(O)          -0.532091000000    -2.130325000000    -0.632144000000    15.994914619570
      Gh(H)          -0.199576000000    -2.040712000000    -1.524978000000     1.007825032230
      Gh(H)           0.239557000000    -2.564379000000    -0.117632000000     1.007825032230
      Gh(O)          -2.191649000000     0.554956000000    -0.988319000000    15.994914619570
      Gh(H)          -2.198458000000     1.493372000000    -1.035750000000     1.007825032230
      Gh(H)          -3.034836000000     0.267373000000    -0.638305000000     1.007825032230
      Gh(O)           1.316751000000     0.763309000000    -1.800840000000    15.994914619570
      Gh(H)           0.984517000000     0.646102000000    -2.716363000000     1.007825032230
      Gh(H)           1.851374000000     1.546851000000    -1.595691000000     1.007825032230

  Charge       = 0
  Multiplicity = 1
  Basis Set: AUG-CC-PVTZ
    Blend: AUG-CC-PVTZ
  Basis Set: (AUG-CC-PVTZ AUX)
    Blend: AUG-CC-PVTZ-JKFIT + DEF2-UNIVERSAL-JKFIT

    Orbital Energies [Eh]
    ---------------------

    Doubly Occupied:

       1A    -20.569236     2A     -1.341891     3A     -0.711626
       4A     -0.576264     5A     -0.507974

  @DF-RHF Final Energy:   -76.05855668822394

   => Energetics <=

    Nuclear Repulsion Energy =              9.0046288845639548
    One-Electron Energy =                -122.7123856885559974
    Two-Electron Energy =                  37.6492001157681102
    Total Energy =                        -76.0585566882239306
 Dipole X            :        -36.2899096           36.6689034            0.3789938
 Dipole Y            :         16.1199215          -16.7843131           -0.6643917
 Dipole Z            :        -21.0040181           21.0842470            0.0802289
 Magnitude           :                                                    0.7690834
  Basis Set: (AUG-CC-PVTZ AUX)
    Blend: AUG-CC-PVTZ-RI + DEF2-QZVPP-RI
	 Reference Energy          =     -76.0585566882239448 [Eh]
	 Singles Energy            =      -0.0000000000000000 [Eh]
	 Same-Spin Energy          =      -0.0687121050979458 [Eh]
	 Opposite-Spin Energy      =      -0.2167919356435259 [Eh]
	 Correlation Energy        =      -0.2855040407414717 [Eh]
	 Total Energy              =     -76.3440607289654167 [Eh]

	 ================> DF-SCS-MP2 Energies <==================
	-----------------------------------------------------------
	 SCS Same-Spin Scale       =       0.3333333333333333 [-]
	 SCS Opposite-Spin Scale   =       1.2000000000000000 [-]
	 SCS Same-Spin Energy      =      -0.0229040350326486 [Eh]
	 SCS Opposite-Spin Energy  =      -0.2601503227722311 [Eh]
	 SCS Correlation Energy    =      -0.2830543578048797 [Eh]
	 SCS Total Energy          =     -76.3416110460288309 [Eh]
	-----------------------------------------------------------

*** Psi4 exiting successfully. Buy a developer a beer!
