                               Psi4 1.9 release

  ==> Input File <==

--------------------------------------------------------------------------
MEMORY 60 GB

molecule dimer {
1 1
Na     0.000000     0.000000     0.000000
--
0 1
O     -1.409074     0.355305    -1.934811
H     -2.018915    -0.084566    -2.517439
H     -1.713316     1.279090    -1.866761
O      1.794911    -0.561345    -1.460683
H      1.593494    -0.314377    -2.353811
H      2.372591     0.005118    -0.936876
O     -0.435838    -2.352717    -0.436670
H     -1.222788    -2.285827    -0.914371
H      0.251402    -2.259475    -1.069210
O      1.104550    -0.175403     2.295834
H      0.876549    -0.816756     2.946310
H      1.979536    -0.369264     1.912482
O     -1.853595     0.756497     1.640902
H     -1.903286     0.033801     2.281206
H     -2.592475     0.565838     1.026460
O      1.194547     2.122144    -0.067927
H      1.308253     2.491892    -0.928783
H      0.775169     2.856759     0.408660

units ang
no_reorient
no_com
symmetry c1
}

set {
basis        aug-cc-pVTZ
scf_type     df
}

energy("mp2", bsse_type="cp")
--------------------------------------------------------------------------

                               Psi4 1.9 release
    Molecular point group: c1
  Charge       = 0
  Multiplicity = 1
  Basis Set: AUG-CC-PVTZ
    Blend: AUG-CC-PVTZ
  Basis Set: (AUG-CC-PVTZ AUX)
    Blend: AUG-CC-PVTZ-JKFIT + DEF2-UNIVERSAL-JKFIT
  @DF-RHF Final Energy:  -456.34251540601048
    Total Energy =                       -456.3425154060104774
 Dipole X            :         -6.0703161            5.4239335           -0.6463826
 Dipole Y            :         -3.5742715            4.2671547            0.6928832
 Dipole Z            :          1.8992253           -3.2483882           -1.3491629
 Magnitude           :                                                    1.6486777
  Basis Set: (AUG-CC-PVTZ AUX)
    Blend: AUG-CC-PVTZ-RI + DEF2-QZVPP-RI
	 Reference Energy          =    -456.3425154060104774 [Eh]
	 Singles Energy            =      -0.0000000000000000 [Eh]
	 Same-Spin Energy          =      -0.4146066872138497 [Eh]
	 Opposite-Spin Energy      =      -1.2993930565694500 [Eh]
	 Correlation Energy        =      -1.7139997437832997 [Eh]
	 Total Energy              =    -458.0565151497937677 [Eh]
	 SCS Total Energy          =    -458.0399893029651253 [Eh]
                               Psi4 1.9 release
    Molecular point group: c1
  Multiplicity = 1
  Basis Set: AUG-CC-PVTZ
    Blend: AUG-CC-PVTZ
  Basis Set: (AUG-CC-PVTZ AUX)
    Blend: AUG-CC-PVTZ-JKFIT + DEF2-UNIVERSAL-JKFIT
  @DF-RHF Final Energy:  -161.67609636964420
    Total Energy =                       -161.6760963696441991
  Basis Set: (AUG-CC-PVTZ AUX)
	 Singles Energy            =      -0.0000000000000000 [Eh]
	 Same-Spin Energy          =      -0.0071363748977770 [Eh]
	 Opposite-Spin Energy      =      -0.0215208861341966 [Eh]
	 Correlation Energy        =      -0.0286572610319736 [Eh]
	 Total Energy              =    -161.7047536306761799 [Eh]
	 SCS Total Energy          =    -161.7043002246378194 [Eh]
                               Psi4 1.9 release
    Molecular point group: c1

    Geometry (in Bohr), charge = 1, multiplicity = 1:

       Center              X                  Y                   Z               Mass
    ------------   -----------------  -----------------  -----------------  -----------------
         NA           0.000000000000     0.000000000000     0.000000000000    22.989769282000
         O           -2.662763950503     0.671429141006    -3.656262894523    15.994914619570
         H           -3.815196420579    -0.159806579525    -4.757270247546     1.007825032230
         H           -3.237698006365     2.417129789812    -3.527667031686     1.007825032230
         O            3.391890209572    -1.060788311895    -2.760290826112    15.994914619570
         H            3.011267242560    -0.594086430143    -4.448058141090     1.007825032230
         H            4.483547197726     0.009671618310    -1.770439053514     1.007825032230
         O           -0.823614455067    -4.445990780709    -0.825186707204    15.994914619570
         H           -2.310734429496    -4.319587000177    -1.727910767061     1.007825032230
         H            0.475080927392    -4.269788937319    -2.020514070601     1.007825032230
         O            2.087296991874    -0.331463631584     4.338497489514    15.994914619570
         H            1.656437545544    -1.543445151324     5.567718980698     1.007825032230
         H            3.740780895484    -0.697807827991     3.614067199868     1.007825032230
         O           -3.502786897518     1.429572144730     3.100855378716    15.994914619570
         H           -3.596689278418     0.063874632767     4.310854575751     1.007825032230
         H           -4.899067737096     1.069278851377     1.939728278737     1.007825032230
         O            2.257366673987     4.010270958784    -0.128363426524    15.994914619570
         H            2.472239872809     4.708993414219    -1.755145499981     1.007825032230
         H            1.464857110945     5.398492116437     0.772255478430     1.007825032230

  Charge       = 1
  Multiplicity = 1
  Basis Set: AUG-CC-PVTZ
    Blend: AUG-CC-PVTZ
  Basis Set: (AUG-CC-PVTZ AUX)
    Blend: AUG-CC-PVTZ-JKFIT + DEF2-UNIVERSAL-JKFIT

    Orbital Energies [Eh]
    ---------------------

    Doubly Occupied:

       1A    -40.557924     2A    -20.743698     3A    -20.729172
       4A    -20.723811     5A    -20.713140     6A    -20.703578
       7A    -20.702012     8A     -2.879821     9A     -1.605340
      10A     -1.604503    11A     -1.603882    12A     -1.528967
      13A     -1.520141    14A     -1.513881    15A     -1.509361
      16A     -1.491664    17A     -1.489478    18A     -0.912086
      19A     -0.897650    20A     -0.878348    21A     -0.874819
      22A     -0.869907    23A     -0.850221    24A     -0.772937
      25A     -0.764582    26A     -0.737586    27A     -0.732298
      28A     -0.726536    29A     -0.715896    30A     -0.692876
      31A     -0.682771    32A     -0.675514    33A     -0.661011
      34A     -0.656442    35A     -0.650083

  @DF-RHF Final Energy:  -618.15186813687569

   => Energetics <=

    Nuclear Repulsion Energy =            403.5487290950816828
    One-Electron Energy =               -1652.6573153094725512
    Two-Electron Energy =                 630.9567180775152337
    Total Energy =                       -618.1518681368756916
 Dipole X            :         -6.0659997            5.4239335           -0.6420662
 Dipole Y            :         -3.5522427            4.2671547            0.7149119
 Dipole Z            :          1.8171939           -3.2483882           -1.4311943
 Magnitude           :                                                    1.7238519
  Basis Set: (AUG-CC-PVTZ AUX)
    Blend: AUG-CC-PVTZ-RI + DEF2-QZVPP-RI
	 Reference Energy          =    -618.1518681368756916 [Eh]
	 Singles Energy            =      -0.0000000000000000 [Eh]
	 Same-Spin Energy          =      -0.4212177845769811 [Eh]
	 Opposite-Spin Energy      =      -1.3162559419444233 [Eh]
	 Correlation Energy        =      -1.7374737265214044 [Eh]
	 Total Energy              =    -619.8893418633971351 [Eh]

	 ================> DF-SCS-MP2 Energies <==================
	-----------------------------------------------------------
	 SCS Same-Spin Scale       =       0.3333333333333333 [-]
	 SCS Opposite-Spin Scale   =       1.2000000000000000 [-]
	 SCS Same-Spin Energy      =      -0.1404059281923270 [Eh]
	 SCS Opposite-Spin Energy  =      -1.5795071303333079 [Eh]
	 SCS Correlation Energy    =      -1.7199130585256350 [Eh]
	 SCS Total Energy          =    -619.8717811954013541 [Eh]
	-----------------------------------------------------------

*** Psi4 exiting successfully. Buy a developer a beer!
