                               Psi4 1.8.2 release

  ==> Input File <==

--------------------------------------------------------------------------
MEMORY 60 GB

molecule dimer {
1 1
Na         0.000000     0.000000     0.000000
Gh(O)      1.840093    -0.013228     1.168474
Gh(H)      2.578854    -0.628590     1.402113
Gh(H)      1.971143     0.638358     1.806956
Gh(O)     -0.529791    -1.975169    -1.169996
Gh(H)     -0.194422    -2.273058    -1.972985
Gh(H)     -1.435025    -2.192187    -1.229504
Gh(O)      0.234253     1.720156    -1.715639
Gh(H)      0.688439     2.544420    -1.572514
Gh(H)     -0.667981     1.888890    -2.029084
Gh(O)     -2.243886     0.693704     0.273219
Gh(H)     -3.037219     0.241933     0.599418
Gh(H)     -2.426716     1.627144     0.193199

units ang
no_reorient
no_com
symmetry c1
}

set {
basis        aug-cc-pVTZ
scf_type     df
}

energy("mp2")
--------------------------------------------------------------------------

    Molecular point group: c1

    Geometry (in Angstrom), charge = 1, multiplicity = 1:

       Center              X                  Y                   Z               Mass
    ------------   -----------------  -----------------  -----------------  -----------------
         NA           0.000000000000     0.000000000000     0.000000000000    22.989769282000
      Gh(O)           1.840093000000    -0.013228000000     1.168474000000    15.994914619570
      Gh(H)           2.578854000000    -0.628590000000     1.402113000000     1.007825032230
      Gh(H)           1.971143000000     0.638358000000     1.806956000000     1.007825032230
      Gh(O)          -0.529791000000    -1.975169000000    -1.169996000000    15.994914619570
      Gh(H)          -0.194422000000    -2.273058000000    -1.972985000000     1.007825032230
      Gh(H)          -1.435025000000    -2.192187000000    -1.229504000000     1.007825032230
      Gh(O)           0.234253000000     1.720156000000    -1.715639000000    15.994914619570
      Gh(H)           0.688439000000     2.544420000000    -1.572514000000     1.007825032230
      Gh(H)          -0.667981000000     1.888890000000    -2.029084000000     1.007825032230
      Gh(O)          -2.243886000000     0.693704000000     0.273219000000    15.994914619570
      Gh(H)          -3.037219000000     0.241933000000     0.599418000000     1.007825032230
      Gh(H)          -2.426716000000     1.627144000000     0.193199000000     1.007825032230

  Charge       = 1
  Multiplicity = 1
  Basis Set: AUG-CC-PVTZ
    Blend: AUG-CC-PVTZ
  Basis Set: (AUG-CC-PVTZ AUX)
    Blend: AUG-CC-PVTZ-JKFIT + DEF2-UNIVERSAL-JKFIT

    Orbital Energies [Eh]
    ---------------------

    Doubly Occupied:

       1A    -40.760606     2A     -3.073888     3A     -1.797272
       4A     -1.797208     5A     -1.797168

  @DF-RHF Final Energy:  -161.67608620466436

   => Energetics <=

    Nuclear Repulsion Energy =              0.0000000000000000
    One-Electron Energy =                -224.8998888097302142
    Two-Electron Energy =                  63.2238026050658348
    Total Energy =                       -161.6760862046643865
 Dipole X            :         -0.0000821            0.0000000           -0.0000821
 Dipole Y            :          0.0000342            0.0000000            0.0000342
 Dipole Z            :         -0.0000048            0.0000000           -0.0000048
 Magnitude           :                                                    0.0000891
  Basis Set: (AUG-CC-PVTZ AUX)
    Blend: AUG-CC-PVTZ-RI + DEF2-QZVPP-RI
	 Reference Energy          =    -161.6760862046643581 [Eh]
	 Singles Energy            =      -0.0000000000000000 [Eh]
	 Same-Spin Energy          =      -0.0051835216461275 [Eh]
	 Opposite-Spin Energy      =      -0.0164579640022878 [Eh]
	 Correlation Energy        =      -0.0216414856484153 [Eh]
	 Total Energy              =    -161.6977276903127745 [Eh]

	 ================> DF-SCS-MP2 Energies <==================
	-----------------------------------------------------------
	 SCS Same-Spin Scale       =       0.3333333333333333 [-]
	 SCS Opposite-Spin Scale   =       1.2000000000000000 [-]
	 SCS Same-Spin Energy      =      -0.0017278405487092 [Eh]
	 SCS Opposite-Spin Energy  =      -0.0197495568027454 [Eh]
	 SCS Correlation Energy    =      -0.0214773973514545 [Eh]
	 SCS Total Energy          =    -161.6975636020158049 [Eh]
	-----------------------------------------------------------

*** Psi4 exiting successfully. Buy a developer a beer!
