                               Psi4 1.8.2 release

  ==> Input File <==

--------------------------------------------------------------------------
MEMORY 60 GB

molecule dimer {
0 1
Gh(Na)     0.000000     0.000000     0.000000
Gh(O)     -1.169214     0.675061    -1.965345
Gh(H)     -1.806908    -0.031789    -2.222785
Gh(H)     -1.605764     1.457733    -2.244370
Gh(O)     -0.030340    -2.107786    -1.084587
Gh(H)      0.207561    -2.894411    -0.558114
Gh(H)      0.618974    -2.140900    -1.742073
O          0.692412     0.310337     2.464985
H         -0.299640     0.237282     2.718297
H          1.167970    -0.408106     2.881909
Gh(O)     -2.120624    -0.497677     1.271846
Gh(H)     -2.415073     0.222634     1.817307
Gh(H)     -2.903605    -0.836519     0.750395
Gh(O)      0.425403     2.480866     0.024064
Gh(H)      0.339669     3.168213     0.657297
Gh(H)     -0.465816     2.494236    -0.380434
Gh(O)      2.583179    -0.496408    -0.190695
Gh(H)      2.787887    -0.734051    -1.155683
Gh(H)      2.934192     0.414483    -0.062159

units ang
no_reorient
no_com
symmetry c1
}

set {
basis        aug-cc-pVTZ
scf_type     df
}

energy("mp2")
--------------------------------------------------------------------------

    Molecular point group: c1

    Geometry (in Angstrom), charge = 0, multiplicity = 1:

       Center              X                  Y                   Z               Mass
    ------------   -----------------  -----------------  -----------------  -----------------
      Gh(NA)          0.000000000000     0.000000000000     0.000000000000    22.989769282000
      Gh(O)          -1.169214000000     0.675061000000    -1.965345000000    15.994914619570
      Gh(H)          -1.806908000000    -0.031789000000    -2.222785000000     1.007825032230
      Gh(H)          -1.605764000000     1.457733000000    -2.244370000000     1.007825032230
      Gh(O)          -0.030340000000    -2.107786000000    -1.084587000000    15.994914619570
      Gh(H)           0.207561000000    -2.894411000000    -0.558114000000     1.007825032230
      Gh(H)           0.618974000000    -2.140900000000    -1.742073000000     1.007825032230
         O            0.692412000000     0.310337000000     2.464985000000    15.994914619570
         H           -0.299640000000     0.237282000000     2.718297000000     1.007825032230
         H            1.167970000000    -0.408106000000     2.881909000000     1.007825032230
      Gh(O)          -2.120624000000    -0.497677000000     1.271846000000    15.994914619570
      Gh(H)          -2.415073000000     0.222634000000     1.817307000000     1.007825032230
      Gh(H)          -2.903605000000    -0.836519000000     0.750395000000     1.007825032230
      Gh(O)           0.425403000000     2.480866000000     0.024064000000    15.994914619570
      Gh(H)           0.339669000000     3.168213000000     0.657297000000     1.007825032230
      Gh(H)          -0.465816000000     2.494236000000    -0.380434000000     1.007825032230
      Gh(O)           2.583179000000    -0.496408000000    -0.190695000000    15.994914619570
      Gh(H)           2.787887000000    -0.734051000000    -1.155683000000     1.007825032230
      Gh(H)           2.934192000000     0.414483000000    -0.062159000000     1.007825032230

  Charge       = 0
  Multiplicity = 1
  Basis Set: AUG-CC-PVTZ
    Blend: AUG-CC-PVTZ
  Basis Set: (AUG-CC-PVTZ AUX)
    Blend: AUG-CC-PVTZ-JKFIT + DEF2-UNIVERSAL-JKFIT

    Orbital Energies [Eh]
    ---------------------

    Doubly Occupied:

       1A    -20.570690     2A     -1.334681     3A     -0.706785
       4A     -0.569956     5A     -0.506378

  @DF-RHF Final Energy:   -76.05396513580405

   => Energetics <=

    Nuclear Repulsion Energy =              8.8754774080752430
    One-Electron Energy =                -122.4818990645699728
    Two-Electron Energy =                  37.5524565206906829
    Total Energy =                        -76.0539651358040487
 Dipole X            :        -12.4395941           12.1086583           -0.3309359
 Dipole Y            :         -4.8944927            4.3688049           -0.5256878
 Dipole Z            :        -47.4050194           47.8480280            0.4430086
 Magnitude           :                                                    0.7629697
  Basis Set: (AUG-CC-PVTZ AUX)
    Blend: AUG-CC-PVTZ-RI + DEF2-QZVPP-RI
	 Reference Energy          =     -76.0539651358040487 [Eh]
	 Singles Energy            =      -0.0000000000000000 [Eh]
	 Same-Spin Energy          =      -0.0689428504890845 [Eh]
	 Opposite-Spin Energy      =      -0.2175984721507709 [Eh]
	 Correlation Energy        =      -0.2865413226398553 [Eh]
	 Total Energy              =     -76.3405064584438975 [Eh]

	 ================> DF-SCS-MP2 Energies <==================
	-----------------------------------------------------------
	 SCS Same-Spin Scale       =       0.3333333333333333 [-]
	 SCS Opposite-Spin Scale   =       1.2000000000000000 [-]
	 SCS Same-Spin Energy      =      -0.0229809501630282 [Eh]
	 SCS Opposite-Spin Energy  =      -0.2611181665809250 [Eh]
	 SCS Correlation Energy    =      -0.2840991167439532 [Eh]
	 SCS Total Energy          =     -76.3380642525480084 [Eh]
	-----------------------------------------------------------

*** Psi4 exiting successfully. Buy a developer a beer!
