                               Psi4 1.8.2 release

  ==> Input File <==

--------------------------------------------------------------------------
MEMORY 60 GB

molecule dimer {
1 1
Na         0.000000     0.000000     0.000000
O         -0.673232    -1.361551     1.844656
H         -1.547116    -1.792032     1.858565
H         -0.316973    -1.439934     2.743867
O          0.336907     1.936373     1.176897
H          0.697941     1.645446     2.028898
H         -0.264584     2.611499     1.395482
O          2.529759    -0.112909    -0.584417
H          2.441833     0.580572    -1.291541
H          2.910429    -0.881984    -1.056684
O         -0.010284    -1.811195    -1.348257
H          0.547324    -2.624263    -1.265891
H         -0.939829    -2.087539    -1.346780
O         -2.278247     0.340150    -0.389340
H         -3.045876     0.723307     0.114275
H         -2.643174    -0.488879    -0.716904

units ang
no_reorient
no_com
symmetry c1
}

set {
basis        aug-cc-pVTZ
scf_type     df
}

energy("mp2")
--------------------------------------------------------------------------

    Molecular point group: c1

    Geometry (in Angstrom), charge = 1, multiplicity = 1:

       Center              X                  Y                   Z               Mass
    ------------   -----------------  -----------------  -----------------  -----------------
         NA           0.000000000000     0.000000000000     0.000000000000    22.989769282000
         O           -0.673232000000    -1.361551000000     1.844656000000    15.994914619570
         H           -1.547116000000    -1.792032000000     1.858565000000     1.007825032230
         H           -0.316973000000    -1.439934000000     2.743867000000     1.007825032230
         O            0.336907000000     1.936373000000     1.176897000000    15.994914619570
         H            0.697941000000     1.645446000000     2.028898000000     1.007825032230
         H           -0.264584000000     2.611499000000     1.395482000000     1.007825032230
         O            2.529759000000    -0.112909000000    -0.584417000000    15.994914619570
         H            2.441833000000     0.580572000000    -1.291541000000     1.007825032230
         H            2.910429000000    -0.881984000000    -1.056684000000     1.007825032230
         O           -0.010284000000    -1.811195000000    -1.348257000000    15.994914619570
         H            0.547324000000    -2.624263000000    -1.265891000000     1.007825032230
         H           -0.939829000000    -2.087539000000    -1.346780000000     1.007825032230
         O           -2.278247000000     0.340150000000    -0.389340000000    15.994914619570
         H           -3.045876000000     0.723307000000     0.114275000000     1.007825032230
         H           -2.643174000000    -0.488879000000    -0.716904000000     1.007825032230

  Charge       = 1
  Multiplicity = 1
  Basis Set: AUG-CC-PVTZ
    Blend: AUG-CC-PVTZ
  Basis Set: (AUG-CC-PVTZ AUX)
    Blend: AUG-CC-PVTZ-JKFIT + DEF2-UNIVERSAL-JKFIT

    Orbital Energies [Eh]
    ---------------------

    Doubly Occupied:

       1A    -40.547058     2A    -20.735891     3A    -20.730820
       4A    -20.727670     5A    -20.716576     6A    -20.707579
       7A     -2.870783     8A     -1.597582     9A     -1.595521
      10A     -1.595034    11A     -1.513292    12A     -1.511202
      13A     -1.506640    14A     -1.505429    15A     -1.476493
      16A     -0.882247    17A     -0.876441    18A     -0.873598
      19A     -0.865639    20A     -0.837093    21A     -0.766628
      22A     -0.753459    23A     -0.750394    24A     -0.749490
      25A     -0.721358    26A     -0.683856    27A     -0.679423
      28A     -0.669616    29A     -0.664616    30A     -0.647530

  @DF-RHF Final Energy:  -542.08451713791919

   => Energetics <=

    Nuclear Repulsion Energy =            304.5049065856103425
    One-Electron Energy =               -1351.6609245605909564
    Two-Electron Energy =                 505.0715008370614214
    Total Energy =                       -542.0845171379191925
 Dipole X            :          4.1666726           -5.5195140           -1.3528414
 Dipole Y            :         21.1369124          -22.3495320           -1.2126196
 Dipole Z            :        -14.3930468           15.2304348            0.8373880
 Magnitude           :                                                    2.0004611
  Basis Set: (AUG-CC-PVTZ AUX)
    Blend: AUG-CC-PVTZ-RI + DEF2-QZVPP-RI
	 Reference Energy          =    -542.0845171379191925 [Eh]
	 Singles Energy            =      -0.0000000000000000 [Eh]
	 Same-Spin Energy          =      -0.3513770736186591 [Eh]
	 Opposite-Spin Energy      =      -1.1003094407908021 [Eh]
	 Correlation Energy        =      -1.4516865144094611 [Eh]
	 Total Energy              =    -543.5362036523287088 [Eh]

	 ================> DF-SCS-MP2 Energies <==================
	-----------------------------------------------------------
	 SCS Same-Spin Scale       =       0.3333333333333333 [-]
	 SCS Opposite-Spin Scale   =       1.2000000000000000 [-]
	 SCS Same-Spin Energy      =      -0.1171256912062197 [Eh]
	 SCS Opposite-Spin Energy  =      -1.3203713289489625 [Eh]
	 SCS Correlation Energy    =      -1.4374970201551822 [Eh]
	 SCS Total Energy          =    -543.5220141580743984 [Eh]
	-----------------------------------------------------------

*** Psi4 exiting successfully. Buy a developer a beer!
