                               Psi4 1.8.2 release

  ==> Input File <==

--------------------------------------------------------------------------
MEMORY 60 GB

molecule dimer {
0 1
Gh(Na)     0.000000     0.000000     0.000000
Gh(O)     -2.267046    -0.058444    -0.576173
Gh(H)     -2.957507     0.583536    -0.703646
Gh(H)     -2.245748    -0.641405    -1.346391
Gh(O)      2.020528    -0.856869     0.738830
Gh(H)      2.866660    -0.369129     0.689068
Gh(H)      2.097887    -1.320091     1.596498
Gh(O)      0.786320    -0.955734    -2.146642
Gh(H)      0.999726    -1.902132    -2.090619
Gh(H)      0.456867    -0.843797    -3.039678
Gh(O)     -0.382137    -2.373173     0.216705
Gh(H)      0.026752    -3.262338     0.298848
Gh(H)     -1.300501    -2.497887     0.385697
O         -0.519840     0.317423     2.277683
H          0.259638     0.493602     2.844944
H         -0.969288    -0.486423     2.544550

units ang
no_reorient
no_com
symmetry c1
}

set {
basis        aug-cc-pVTZ
scf_type     df
}

energy("mp2")
--------------------------------------------------------------------------

    Molecular point group: c1

    Geometry (in Angstrom), charge = 0, multiplicity = 1:

       Center              X                  Y                   Z               Mass
    ------------   -----------------  -----------------  -----------------  -----------------
      Gh(NA)          0.000000000000     0.000000000000     0.000000000000    22.989769282000
      Gh(O)          -2.267046000000    -0.058444000000    -0.576173000000    15.994914619570
      Gh(H)          -2.957507000000     0.583536000000    -0.703646000000     1.007825032230
      Gh(H)          -2.245748000000    -0.641405000000    -1.346391000000     1.007825032230
      Gh(O)           2.020528000000    -0.856869000000     0.738830000000    15.994914619570
      Gh(H)           2.866660000000    -0.369129000000     0.689068000000     1.007825032230
      Gh(H)           2.097887000000    -1.320091000000     1.596498000000     1.007825032230
      Gh(O)           0.786320000000    -0.955734000000    -2.146642000000    15.994914619570
      Gh(H)           0.999726000000    -1.902132000000    -2.090619000000     1.007825032230
      Gh(H)           0.456867000000    -0.843797000000    -3.039678000000     1.007825032230
      Gh(O)          -0.382137000000    -2.373173000000     0.216705000000    15.994914619570
      Gh(H)           0.026752000000    -3.262338000000     0.298848000000     1.007825032230
      Gh(H)          -1.300501000000    -2.497887000000     0.385697000000     1.007825032230
         O           -0.519840000000     0.317423000000     2.277683000000    15.994914619570
         H            0.259638000000     0.493602000000     2.844944000000     1.007825032230
         H           -0.969288000000    -0.486423000000     2.544550000000     1.007825032230

  Charge       = 0
  Multiplicity = 1
  Basis Set: AUG-CC-PVTZ
    Blend: AUG-CC-PVTZ
  Basis Set: (AUG-CC-PVTZ AUX)
    Blend: AUG-CC-PVTZ-JKFIT + DEF2-UNIVERSAL-JKFIT

    Orbital Energies [Eh]
    ---------------------

    Doubly Occupied:

       1A    -20.565919     2A     -1.342767     3A     -0.723279
       4A     -0.569493     5A     -0.507255

  @DF-RHF Final Energy:   -76.05857793362148

   => Energetics <=

    Nuclear Repulsion Energy =              9.0655733944802588
    One-Electron Energy =                -122.8308728278684896
    Two-Electron Energy =                  37.7067214997667506
    Total Energy =                        -76.0585779336214785
 Dipole X            :          9.4199511           -9.1998860            0.2200651
 Dipole Y            :         -5.2369159            4.8123066           -0.4246093
 Dipole Z            :        -44.0565443           44.6182442            0.5616999
 Magnitude           :                                                    0.7377185
  Basis Set: (AUG-CC-PVTZ AUX)
    Blend: AUG-CC-PVTZ-RI + DEF2-QZVPP-RI
	 Reference Energy          =     -76.0585779336214785 [Eh]
	 Singles Energy            =      -0.0000000000000000 [Eh]
	 Same-Spin Energy          =      -0.0685491204753811 [Eh]
	 Opposite-Spin Energy      =      -0.2162253761111026 [Eh]
	 Correlation Energy        =      -0.2847744965864837 [Eh]
	 Total Energy              =     -76.3433524302079576 [Eh]

	 ================> DF-SCS-MP2 Energies <==================
	-----------------------------------------------------------
	 SCS Same-Spin Scale       =       0.3333333333333333 [-]
	 SCS Opposite-Spin Scale   =       1.2000000000000000 [-]
	 SCS Same-Spin Energy      =      -0.0228497068251270 [Eh]
	 SCS Opposite-Spin Energy  =      -0.2594704513333231 [Eh]
	 SCS Correlation Energy    =      -0.2823201581584501 [Eh]
	 SCS Total Energy          =     -76.3408980917799340 [Eh]
	-----------------------------------------------------------

*** Psi4 exiting successfully. Buy a developer a beer!
