                               Psi4 1.8.2 release

  ==> Input File <==

--------------------------------------------------------------------------
MEMORY 60 GB

molecule dimer {
1 1
Na         0.000000     0.000000     0.000000
Gh(O)     -0.835240     0.473484     2.119495
Gh(H)     -0.454693     1.245275     2.586267
Gh(H)     -1.132360    -0.183285     2.785897
Gh(O)      0.033539    -2.290098    -0.664363
Gh(H)     -0.004054    -2.576443     0.261397
Gh(H)      0.855844    -2.546782    -1.166561
Gh(O)      1.583864     1.928752    -0.019939
Gh(H)      1.499354     1.829133    -1.014737
Gh(H)      1.387146     2.888641     0.263931

units ang
no_reorient
no_com
symmetry c1
}

set {
basis        aug-cc-pVTZ
scf_type     df
}

energy("mp2")
--------------------------------------------------------------------------

    Molecular point group: c1

    Geometry (in Angstrom), charge = 1, multiplicity = 1:

       Center              X                  Y                   Z               Mass
    ------------   -----------------  -----------------  -----------------  -----------------
         NA           0.000000000000     0.000000000000     0.000000000000    22.989769282000
      Gh(O)          -0.835240000000     0.473484000000     2.119495000000    15.994914619570
      Gh(H)          -0.454693000000     1.245275000000     2.586267000000     1.007825032230
      Gh(H)          -1.132360000000    -0.183285000000     2.785897000000     1.007825032230
      Gh(O)           0.033539000000    -2.290098000000    -0.664363000000    15.994914619570
      Gh(H)          -0.004054000000    -2.576443000000     0.261397000000     1.007825032230
      Gh(H)           0.855844000000    -2.546782000000    -1.166561000000     1.007825032230
      Gh(O)           1.583864000000     1.928752000000    -0.019939000000    15.994914619570
      Gh(H)           1.499354000000     1.829133000000    -1.014737000000     1.007825032230
      Gh(H)           1.387146000000     2.888641000000     0.263931000000     1.007825032230

  Charge       = 1
  Multiplicity = 1
  Basis Set: AUG-CC-PVTZ
    Blend: AUG-CC-PVTZ
  Basis Set: (AUG-CC-PVTZ AUX)
    Blend: AUG-CC-PVTZ-JKFIT + DEF2-UNIVERSAL-JKFIT

    Orbital Energies [Eh]
    ---------------------

    Doubly Occupied:

       1A    -40.761319     2A     -3.074205     3A     -1.797567
       4A     -1.797536     5A     -1.797377

  @DF-RHF Final Energy:  -161.67607128115799

   => Energetics <=

    Nuclear Repulsion Energy =              0.0000000000000000
    One-Electron Energy =                -224.8961355907601103
    Two-Electron Energy =                  63.2200643096021224
    Total Energy =                       -161.6760712811579879
 Dipole X            :          0.0001381            0.0000000            0.0001381
 Dipole Y            :         -0.0000707            0.0000000           -0.0000707
 Dipole Z            :          0.0000989            0.0000000            0.0000989
 Magnitude           :                                                    0.0001841
  Basis Set: (AUG-CC-PVTZ AUX)
    Blend: AUG-CC-PVTZ-RI + DEF2-QZVPP-RI
	 Reference Energy          =    -161.6760712811579879 [Eh]
	 Singles Energy            =      -0.0000000000000000 [Eh]
	 Same-Spin Energy          =      -0.0039627708787944 [Eh]
	 Opposite-Spin Energy      =      -0.0133404432405041 [Eh]
	 Correlation Energy        =      -0.0173032141192985 [Eh]
	 Total Energy              =    -161.6933744952772827 [Eh]

	 ================> DF-SCS-MP2 Energies <==================
	-----------------------------------------------------------
	 SCS Same-Spin Scale       =       0.3333333333333333 [-]
	 SCS Opposite-Spin Scale   =       1.2000000000000000 [-]
	 SCS Same-Spin Energy      =      -0.0013209236262648 [Eh]
	 SCS Opposite-Spin Energy  =      -0.0160085318886050 [Eh]
	 SCS Correlation Energy    =      -0.0173294555148698 [Eh]
	 SCS Total Energy          =    -161.6934007366728565 [Eh]
	-----------------------------------------------------------

*** Psi4 exiting successfully. Buy a developer a beer!
