                               Psi4 1.8.2 release

  ==> Input File <==

--------------------------------------------------------------------------
MEMORY 60 GB

molecule dimer {
0 1
Gh(Na)     0.000000     0.000000     0.000000
Gh(O)      2.497786    -0.242273     0.422092
Gh(H)      3.049045    -0.461710    -0.372715
Gh(H)      2.916442     0.393536     1.013630
Gh(O)     -0.170722     1.880488     1.566801
Gh(H)     -0.585546     2.675444     1.117741
Gh(H)     -0.725283     1.778538     2.397862
O         -0.123890    -2.509853    -0.843574
H         -0.312475    -3.220754    -0.195645
H         -0.767002    -2.582567    -1.518445
Gh(O)     -2.372716     0.104252     0.086632
Gh(H)     -3.016397     0.698396     0.520165
Gh(H)     -2.302894    -0.639156     0.705936

units ang
no_reorient
no_com
symmetry c1
}

set {
basis        aug-cc-pVTZ
scf_type     df
}

energy("mp2")
--------------------------------------------------------------------------

    Molecular point group: c1

    Geometry (in Angstrom), charge = 0, multiplicity = 1:

       Center              X                  Y                   Z               Mass
    ------------   -----------------  -----------------  -----------------  -----------------
      Gh(NA)          0.000000000000     0.000000000000     0.000000000000    22.989769282000
      Gh(O)           2.497786000000    -0.242273000000     0.422092000000    15.994914619570
      Gh(H)           3.049045000000    -0.461710000000    -0.372715000000     1.007825032230
      Gh(H)           2.916442000000     0.393536000000     1.013630000000     1.007825032230
      Gh(O)          -0.170722000000     1.880488000000     1.566801000000    15.994914619570
      Gh(H)          -0.585546000000     2.675444000000     1.117741000000     1.007825032230
      Gh(H)          -0.725283000000     1.778538000000     2.397862000000     1.007825032230
         O           -0.123890000000    -2.509853000000    -0.843574000000    15.994914619570
         H           -0.312475000000    -3.220754000000    -0.195645000000     1.007825032230
         H           -0.767002000000    -2.582567000000    -1.518445000000     1.007825032230
      Gh(O)          -2.372716000000     0.104252000000     0.086632000000    15.994914619570
      Gh(H)          -3.016397000000     0.698396000000     0.520165000000     1.007825032230
      Gh(H)          -2.302894000000    -0.639156000000     0.705936000000     1.007825032230

  Charge       = 0
  Multiplicity = 1
  Basis Set: AUG-CC-PVTZ
    Blend: AUG-CC-PVTZ
  Basis Set: (AUG-CC-PVTZ AUX)
    Blend: AUG-CC-PVTZ-JKFIT + DEF2-UNIVERSAL-JKFIT

    Orbital Energies [Eh]
    ---------------------

    Doubly Occupied:

       1A    -20.565984     2A     -1.352201     3A     -0.721989
       4A     -0.580242     5A     -0.509684

  @DF-RHF Final Energy:   -76.05966061911153

   => Energetics <=

    Nuclear Repulsion Energy =              9.1906537165546158
    One-Electron Energy =                -123.0404244060421775
    Two-Electron Energy =                  37.7901100703760306
    Total Energy =                        -76.0596606191115256
 Dipole X            :          3.3540945           -3.9128612           -0.5587668
 Dipole Y            :         48.3883990          -48.9101656           -0.5217666
 Dipole Z            :         15.9676213          -15.9921513           -0.0245299
 Magnitude           :                                                    0.7648937
  Basis Set: (AUG-CC-PVTZ AUX)
    Blend: AUG-CC-PVTZ-RI + DEF2-QZVPP-RI
	 Reference Energy          =     -76.0596606191115256 [Eh]
	 Singles Energy            =      -0.0000000000000000 [Eh]
	 Same-Spin Energy          =      -0.0683481982412297 [Eh]
	 Opposite-Spin Energy      =      -0.2155172785449866 [Eh]
	 Correlation Energy        =      -0.2838654767862163 [Eh]
	 Total Energy              =     -76.3435260958977437 [Eh]

	 ================> DF-SCS-MP2 Energies <==================
	-----------------------------------------------------------
	 SCS Same-Spin Scale       =       0.3333333333333333 [-]
	 SCS Opposite-Spin Scale   =       1.2000000000000000 [-]
	 SCS Same-Spin Energy      =      -0.0227827327470766 [Eh]
	 SCS Opposite-Spin Energy  =      -0.2586207342539839 [Eh]
	 SCS Correlation Energy    =      -0.2814034670010604 [Eh]
	 SCS Total Energy          =     -76.3410640861125813 [Eh]
	-----------------------------------------------------------

*** Psi4 exiting successfully. Buy a developer a beer!
