                               Psi4 1.9 release

  ==> Input File <==

--------------------------------------------------------------------------
MEMORY 60 GB

molecule dimer {
1 1
Na     0.000000     0.000000     0.000000
--
0 1
O     -2.267046    -0.058444    -0.576173
H     -2.957507     0.583536    -0.703646
H     -2.245748    -0.641405    -1.346391
O      2.020528    -0.856869     0.738830
H      2.866660    -0.369129     0.689068
H      2.097887    -1.320091     1.596498
O      0.786320    -0.955734    -2.146642
H      0.999726    -1.902132    -2.090619
H      0.456867    -0.843797    -3.039678
O     -0.382137    -2.373173     0.216705
H      0.026752    -3.262338     0.298848
H     -1.300501    -2.497887     0.385697
O     -0.519840     0.317423     2.277683
H      0.259638     0.493602     2.844944
H     -0.969288    -0.486423     2.544550

units ang
no_reorient
no_com
symmetry c1
}

set {
basis        aug-cc-pVTZ
scf_type     df
}

energy("mp2", bsse_type="cp")
--------------------------------------------------------------------------

                               Psi4 1.9 release
    Molecular point group: c1
  Charge       = 0
  Multiplicity = 1
  Basis Set: AUG-CC-PVTZ
    Blend: AUG-CC-PVTZ
  Basis Set: (AUG-CC-PVTZ AUX)
    Blend: AUG-CC-PVTZ-JKFIT + DEF2-UNIVERSAL-JKFIT
  @DF-RHF Final Energy:  -380.27375502511092
    Total Energy =                       -380.2737550251109155
 Dipole X            :          6.8794026           -6.9219043           -0.0425017
 Dipole Y            :         77.2895692          -78.7268219           -1.4372527
 Dipole Z            :         -9.8977596            9.9446743            0.0469147
 Magnitude           :                                                    1.4386462
  Basis Set: (AUG-CC-PVTZ AUX)
    Blend: AUG-CC-PVTZ-RI + DEF2-QZVPP-RI
	 Reference Energy          =    -380.2737550251109155 [Eh]
	 Singles Energy            =      -0.0000000000000000 [Eh]
	 Same-Spin Energy          =      -0.3471842020781991 [Eh]
	 Opposite-Spin Energy      =      -1.0873616303690257 [Eh]
	 Correlation Energy        =      -1.4345458324472247 [Eh]
	 Total Energy              =    -381.7083008575581289 [Eh]
	 SCS Total Energy          =    -381.6943170489131489 [Eh]
                               Psi4 1.9 release
    Molecular point group: c1
  Multiplicity = 1
  Basis Set: AUG-CC-PVTZ
    Blend: AUG-CC-PVTZ
  Basis Set: (AUG-CC-PVTZ AUX)
    Blend: AUG-CC-PVTZ-JKFIT + DEF2-UNIVERSAL-JKFIT
  @DF-RHF Final Energy:  -161.67609046290372
    Total Energy =                       -161.6760904629036872
  Basis Set: (AUG-CC-PVTZ AUX)
	 Singles Energy            =      -0.0000000000000000 [Eh]
	 Same-Spin Energy          =      -0.0063369969965497 [Eh]
	 Opposite-Spin Energy      =      -0.0193447243083537 [Eh]
	 Correlation Energy        =      -0.0256817213049034 [Eh]
	 Total Energy              =    -161.7017721842086075 [Eh]
	 SCS Total Energy          =    -161.7014164644059235 [Eh]
                               Psi4 1.9 release
    Molecular point group: c1

    Geometry (in Bohr), charge = 1, multiplicity = 1:

       Center              X                  Y                   Z               Mass
    ------------   -----------------  -----------------  -----------------  -----------------
         NA           0.000000000000     0.000000000000     0.000000000000    22.989769282000
         O           -4.284096053815    -0.110443153676    -1.088809170883    15.994914619570
         H           -5.588878244124     1.102723224345    -1.329698229274     1.007825032230
         H           -4.243848666795    -1.212079785499    -2.544310247781     1.007825032230
         O            3.818244548819    -1.619247735395     1.396186353272    15.994914619570
         H            5.417202294805    -0.697552714964     1.302149801817     1.007825032230
         H            3.964431872158    -2.494610450682     3.016943979841     1.007825032230
         O            1.485929446970    -1.806075508788    -4.056565469405    15.994914619570
         H            1.889208340499    -3.594508534469    -3.950697342679     1.007825032230
         H            0.863353505760    -1.594545235483    -5.744158929579     1.007825032230
         O           -0.722134272404    -4.484647018331     0.409513100017    15.994914619570
         H            0.050553953308    -6.164925348674     0.564740873141     1.007825032230
         H           -2.457590715884    -4.720322322341     0.728861697411     1.007825032230
         O           -0.982355229058     0.599842535921     4.304197070611    15.994914619570
         H            0.490644711762     0.932772594978     5.376165002264     1.007825032230
         H           -1.831688856693    -0.919206251124     4.808502612534     1.007825032230

  Charge       = 1
  Multiplicity = 1
  Basis Set: AUG-CC-PVTZ
    Blend: AUG-CC-PVTZ
  Basis Set: (AUG-CC-PVTZ AUX)
    Blend: AUG-CC-PVTZ-JKFIT + DEF2-UNIVERSAL-JKFIT

    Orbital Energies [Eh]
    ---------------------

    Doubly Occupied:

       1A    -40.549842     2A    -20.723232     3A    -20.722467
       4A    -20.720878     5A    -20.713784     6A    -20.709106
       7A     -2.872497     8A     -1.598159     9A     -1.597484
      10A     -1.596425    11A     -1.511842    12A     -1.507997
      13A     -1.499661    14A     -1.493984    15A     -1.492633
      16A     -0.887241    17A     -0.875348    18A     -0.871444
      19A     -0.856807    20A     -0.854171    21A     -0.765945
      22A     -0.748602    23A     -0.738576    24A     -0.733970
      25A     -0.726335    26A     -0.677464    27A     -0.674806
      28A     -0.671609    29A     -0.654344    30A     -0.650021

  @DF-RHF Final Energy:  -542.09221095035491

   => Energetics <=

    Nuclear Repulsion Energy =            312.5954921531411514
    One-Electron Energy =               -1367.9820458410597439
    Two-Electron Energy =                 513.2943427375637384
    Total Energy =                       -542.0922109503549109
 Dipole X            :          6.8512100           -6.9219043           -0.0706943
 Dipole Y            :         76.8159226          -78.7268219           -1.9108993
 Dipole Z            :         -9.8047293            9.9446743            0.1399450
 Magnitude           :                                                    1.9173207
  Basis Set: (AUG-CC-PVTZ AUX)
    Blend: AUG-CC-PVTZ-RI + DEF2-QZVPP-RI
	 Reference Energy          =    -542.0922109503549109 [Eh]
	 Singles Energy            =      -0.0000000000000000 [Eh]
	 Same-Spin Energy          =      -0.3521062272237537 [Eh]
	 Opposite-Spin Energy      =      -1.0999032512600433 [Eh]
	 Correlation Energy        =      -1.4520094784837969 [Eh]
	 Total Energy              =    -543.5442204288386847 [Eh]

	 ================> DF-SCS-MP2 Energies <==================
	-----------------------------------------------------------
	 SCS Same-Spin Scale       =       0.3333333333333333 [-]
	 SCS Opposite-Spin Scale   =       1.2000000000000000 [-]
	 SCS Same-Spin Energy      =      -0.1173687424079179 [Eh]
	 SCS Opposite-Spin Energy  =      -1.3198839015120518 [Eh]
	 SCS Correlation Energy    =      -1.4372526439199698 [Eh]
	 SCS Total Energy          =    -543.5294635942748300 [Eh]
	-----------------------------------------------------------

*** Psi4 exiting successfully. Buy a developer a beer!
