                               Psi4 1.8.2 release

  ==> Input File <==

--------------------------------------------------------------------------
MEMORY 60 GB

molecule dimer {
1 1
Na         0.000000     0.000000     0.000000
Gh(O)     -1.371627    -0.910990    -1.738968
Gh(H)     -2.225004    -0.362023    -1.723958
Gh(H)     -1.583777    -1.810688    -1.348074
Gh(O)     -1.627495     1.776149     0.403766
Gh(H)     -1.295572     2.668369     0.129330
Gh(H)     -2.180298     1.827238     1.131582
Gh(O)      1.777113    -1.842919    -0.309474
Gh(H)      1.036427    -2.184772     0.244859
Gh(H)      2.605022    -1.908448     0.154364
Gh(O)     -0.746949    -1.450897     1.784131
Gh(H)     -1.396092    -2.132055     1.814768
Gh(H)     -0.857192    -1.089903     2.632736

units ang
no_reorient
no_com
symmetry c1
}

set {
basis        aug-cc-pVTZ
scf_type     df
}

energy("mp2")
--------------------------------------------------------------------------

    Molecular point group: c1

    Geometry (in Angstrom), charge = 1, multiplicity = 1:

       Center              X                  Y                   Z               Mass
    ------------   -----------------  -----------------  -----------------  -----------------
         NA           0.000000000000     0.000000000000     0.000000000000    22.989769282000
      Gh(O)          -1.371627000000    -0.910990000000    -1.738968000000    15.994914619570
      Gh(H)          -2.225004000000    -0.362023000000    -1.723958000000     1.007825032230
      Gh(H)          -1.583777000000    -1.810688000000    -1.348074000000     1.007825032230
      Gh(O)          -1.627495000000     1.776149000000     0.403766000000    15.994914619570
      Gh(H)          -1.295572000000     2.668369000000     0.129330000000     1.007825032230
      Gh(H)          -2.180298000000     1.827238000000     1.131582000000     1.007825032230
      Gh(O)           1.777113000000    -1.842919000000    -0.309474000000    15.994914619570
      Gh(H)           1.036427000000    -2.184772000000     0.244859000000     1.007825032230
      Gh(H)           2.605022000000    -1.908448000000     0.154364000000     1.007825032230
      Gh(O)          -0.746949000000    -1.450897000000     1.784131000000    15.994914619570
      Gh(H)          -1.396092000000    -2.132055000000     1.814768000000     1.007825032230
      Gh(H)          -0.857192000000    -1.089903000000     2.632736000000     1.007825032230

  Charge       = 1
  Multiplicity = 1
  Basis Set: AUG-CC-PVTZ
    Blend: AUG-CC-PVTZ
  Basis Set: (AUG-CC-PVTZ AUX)
    Blend: AUG-CC-PVTZ-JKFIT + DEF2-UNIVERSAL-JKFIT

    Orbital Energies [Eh]
    ---------------------

    Doubly Occupied:

       1A    -40.760728     2A     -3.073937     3A     -1.797292
       4A     -1.797248     5A     -1.797234

  @DF-RHF Final Energy:  -161.67608264187791

   => Energetics <=

    Nuclear Repulsion Energy =              0.0000000000000000
    One-Electron Energy =                -224.8992886649089371
    Two-Electron Energy =                  63.2232060230310111
    Total Energy =                       -161.6760826418779402
 Dipole X            :         -0.0001134            0.0000000           -0.0001134
 Dipole Y            :         -0.0001550            0.0000000           -0.0001550
 Dipole Z            :          0.0000820            0.0000000            0.0000820
 Magnitude           :                                                    0.0002088
  Basis Set: (AUG-CC-PVTZ AUX)
    Blend: AUG-CC-PVTZ-RI + DEF2-QZVPP-RI
	 Reference Energy          =    -161.6760826418779118 [Eh]
	 Singles Energy            =      -0.0000000000000000 [Eh]
	 Same-Spin Energy          =      -0.0050939150554485 [Eh]
	 Opposite-Spin Energy      =      -0.0162119104879676 [Eh]
	 Correlation Energy        =      -0.0213058255434162 [Eh]
	 Total Energy              =    -161.6973884674213195 [Eh]

	 ================> DF-SCS-MP2 Energies <==================
	-----------------------------------------------------------
	 SCS Same-Spin Scale       =       0.3333333333333333 [-]
	 SCS Opposite-Spin Scale   =       1.2000000000000000 [-]
	 SCS Same-Spin Energy      =      -0.0016979716851495 [Eh]
	 SCS Opposite-Spin Energy  =      -0.0194542925855612 [Eh]
	 SCS Correlation Energy    =      -0.0211522642707107 [Eh]
	 SCS Total Energy          =    -161.6972349061486227 [Eh]
	-----------------------------------------------------------

*** Psi4 exiting successfully. Buy a developer a beer!
