                               Psi4 1.8.2 release

  ==> Input File <==

--------------------------------------------------------------------------
MEMORY 60 GB

molecule dimer {
0 1
Gh(Na)     0.000000     0.000000     0.000000
Gh(O)      0.750555     2.441534    -0.170757
Gh(H)      0.148617     2.870969    -0.807058
Gh(H)      0.358211     2.667139     0.740228
Gh(O)      1.251321     0.152119     2.082513
Gh(H)      1.280918    -0.781132     2.220682
Gh(H)      0.570564     0.591799     2.711229
Gh(O)     -0.302086    -0.400122    -2.302121
Gh(H)     -0.982672    -0.980944    -2.721235
Gh(H)      0.585698    -0.559537    -2.600255
Gh(O)     -1.803909     0.577099     1.492035
Gh(H)     -2.609777     1.083098     1.230541
Gh(H)     -1.668404     0.630768     2.471206
O          0.447066    -2.192510    -0.124007
H          0.847688    -2.383423    -0.929975
H         -0.452703    -2.381137    -0.326958

units ang
no_reorient
no_com
symmetry c1
}

set {
basis        aug-cc-pVTZ
scf_type     df
}

energy("mp2")
--------------------------------------------------------------------------

    Molecular point group: c1

    Geometry (in Angstrom), charge = 0, multiplicity = 1:

       Center              X                  Y                   Z               Mass
    ------------   -----------------  -----------------  -----------------  -----------------
      Gh(NA)          0.000000000000     0.000000000000     0.000000000000    22.989769282000
      Gh(O)           0.750555000000     2.441534000000    -0.170757000000    15.994914619570
      Gh(H)           0.148617000000     2.870969000000    -0.807058000000     1.007825032230
      Gh(H)           0.358211000000     2.667139000000     0.740228000000     1.007825032230
      Gh(O)           1.251321000000     0.152119000000     2.082513000000    15.994914619570
      Gh(H)           1.280918000000    -0.781132000000     2.220682000000     1.007825032230
      Gh(H)           0.570564000000     0.591799000000     2.711229000000     1.007825032230
      Gh(O)          -0.302086000000    -0.400122000000    -2.302121000000    15.994914619570
      Gh(H)          -0.982672000000    -0.980944000000    -2.721235000000     1.007825032230
      Gh(H)           0.585698000000    -0.559537000000    -2.600255000000     1.007825032230
      Gh(O)          -1.803909000000     0.577099000000     1.492035000000    15.994914619570
      Gh(H)          -2.609777000000     1.083098000000     1.230541000000     1.007825032230
      Gh(H)          -1.668404000000     0.630768000000     2.471206000000     1.007825032230
         O            0.447066000000    -2.192510000000    -0.124007000000    15.994914619570
         H            0.847688000000    -2.383423000000    -0.929975000000     1.007825032230
         H           -0.452703000000    -2.381137000000    -0.326958000000     1.007825032230

  Charge       = 0
  Multiplicity = 1
  Basis Set: AUG-CC-PVTZ
    Blend: AUG-CC-PVTZ
  Basis Set: (AUG-CC-PVTZ AUX)
    Blend: AUG-CC-PVTZ-JKFIT + DEF2-UNIVERSAL-JKFIT

    Orbital Energies [Eh]
    ---------------------

    Doubly Occupied:

       1A    -20.563684     2A     -1.370781     3A     -0.724557
       4A     -0.597485     5A     -0.513673

  @DF-RHF Final Energy:   -76.05984227437084

   => Energetics <=

    Nuclear Repulsion Energy =              9.4669969384453481
    One-Electron Energy =                -123.5133181853374396
    Two-Electron Energy =                  37.9864789725212546
    Total Energy =                        -76.0598422743708369
 Dipole X            :         -7.8351499            7.5050719           -0.3300780
 Dipole Y            :         41.8955483          -42.1496609           -0.2541127
 Dipole Z            :          3.5733594           -4.2499733           -0.6766138
 Magnitude           :                                                    0.7945634
  Basis Set: (AUG-CC-PVTZ AUX)
    Blend: AUG-CC-PVTZ-RI + DEF2-QZVPP-RI
	 Reference Energy          =     -76.0598422743708369 [Eh]
	 Singles Energy            =      -0.0000000000000000 [Eh]
	 Same-Spin Energy          =      -0.0680590752334669 [Eh]
	 Opposite-Spin Energy      =      -0.2148498386585401 [Eh]
	 Correlation Energy        =      -0.2829089138920070 [Eh]
	 Total Energy              =     -76.3427511882628380 [Eh]

	 ================> DF-SCS-MP2 Energies <==================
	-----------------------------------------------------------
	 SCS Same-Spin Scale       =       0.3333333333333333 [-]
	 SCS Opposite-Spin Scale   =       1.2000000000000000 [-]
	 SCS Same-Spin Energy      =      -0.0226863584111556 [Eh]
	 SCS Opposite-Spin Energy  =      -0.2578198063902482 [Eh]
	 SCS Correlation Energy    =      -0.2805061648014038 [Eh]
	 SCS Total Energy          =     -76.3403484391722458 [Eh]
	-----------------------------------------------------------

*** Psi4 exiting successfully. Buy a developer a beer!
