                               Psi4 1.8.2 release

  ==> Input File <==

--------------------------------------------------------------------------
MEMORY 60 GB

molecule dimer {
1 1
Na         0.000000     0.000000     0.000000
O         -0.661700    -0.413389    -2.363281
H         -0.455933    -1.315712    -2.553822
H         -1.637257    -0.376380    -2.237891
O          0.544728    -1.118350     1.977274
H          0.744353    -0.833495     2.905568
H          1.400723    -1.370952     1.498188
O          1.757489    -1.534201    -0.881471
H          1.958724    -2.447531    -1.193130
H          2.491303    -0.876661    -1.093475
O          1.321666     1.801539     0.627374
H          2.276903     1.670009     0.616582
H          1.141935     2.724683     0.842806
O         -2.390327    -0.322307     0.707325
H         -3.122651     0.080379     0.219370
H         -2.401244     0.084327     1.563290

units ang
no_reorient
no_com
symmetry c1
}

set {
basis        aug-cc-pVTZ
scf_type     df
}

energy("mp2")
--------------------------------------------------------------------------

    Molecular point group: c1

    Geometry (in Angstrom), charge = 1, multiplicity = 1:

       Center              X                  Y                   Z               Mass
    ------------   -----------------  -----------------  -----------------  -----------------
         NA           0.000000000000     0.000000000000     0.000000000000    22.989769282000
         O           -0.661700000000    -0.413389000000    -2.363281000000    15.994914619570
         H           -0.455933000000    -1.315712000000    -2.553822000000     1.007825032230
         H           -1.637257000000    -0.376380000000    -2.237891000000     1.007825032230
         O            0.544728000000    -1.118350000000     1.977274000000    15.994914619570
         H            0.744353000000    -0.833495000000     2.905568000000     1.007825032230
         H            1.400723000000    -1.370952000000     1.498188000000     1.007825032230
         O            1.757489000000    -1.534201000000    -0.881471000000    15.994914619570
         H            1.958724000000    -2.447531000000    -1.193130000000     1.007825032230
         H            2.491303000000    -0.876661000000    -1.093475000000     1.007825032230
         O            1.321666000000     1.801539000000     0.627374000000    15.994914619570
         H            2.276903000000     1.670009000000     0.616582000000     1.007825032230
         H            1.141935000000     2.724683000000     0.842806000000     1.007825032230
         O           -2.390327000000    -0.322307000000     0.707325000000    15.994914619570
         H           -3.122651000000     0.080379000000     0.219370000000     1.007825032230
         H           -2.401244000000     0.084327000000     1.563290000000     1.007825032230

  Charge       = 1
  Multiplicity = 1
  Basis Set: AUG-CC-PVTZ
    Blend: AUG-CC-PVTZ
  Basis Set: (AUG-CC-PVTZ AUX)
    Blend: AUG-CC-PVTZ-JKFIT + DEF2-UNIVERSAL-JKFIT

    Orbital Energies [Eh]
    ---------------------

    Doubly Occupied:

       1A    -40.564471     2A    -20.737903     3A    -20.734601
       4A    -20.716892     5A    -20.716033     6A    -20.711321
       7A     -2.886043     8A     -1.611320     9A     -1.610631
      10A     -1.609791    11A     -1.518244    12A     -1.504641
      13A     -1.501554    14A     -1.494757    15A     -1.477096
      16A     -0.892636    17A     -0.881736    18A     -0.871193
      19A     -0.861724    20A     -0.854279    21A     -0.762695
      22A     -0.743870    23A     -0.741996    24A     -0.729755
      25A     -0.719297    26A     -0.683746    27A     -0.679759
      28A     -0.666576    29A     -0.656199    30A     -0.654945

  @DF-RHF Final Energy:  -542.07970170680221

   => Energetics <=

    Nuclear Repulsion Energy =            299.8923420215272699
    One-Electron Energy =               -1342.3526691342517552
    Two-Electron Energy =                 500.3806254059221033
    Total Energy =                       -542.0797017068023251
 Dipole X            :        -12.2171084           13.1746112            0.9575028
 Dipole Y            :         29.2383102          -29.0167390            0.2215712
 Dipole Z            :         -1.7855532            2.0886274            0.3030742
 Magnitude           :                                                    1.0284743
  Basis Set: (AUG-CC-PVTZ AUX)
    Blend: AUG-CC-PVTZ-RI + DEF2-QZVPP-RI
	 Reference Energy          =    -542.0797017068022114 [Eh]
	 Singles Energy            =      -0.0000000000000000 [Eh]
	 Same-Spin Energy          =      -0.3512435685375625 [Eh]
	 Opposite-Spin Energy      =      -1.0994720316446940 [Eh]
	 Correlation Energy        =      -1.4507156001822565 [Eh]
	 Total Energy              =    -543.5304173069844182 [Eh]

	 ================> DF-SCS-MP2 Energies <==================
	-----------------------------------------------------------
	 SCS Same-Spin Scale       =       0.3333333333333333 [-]
	 SCS Opposite-Spin Scale   =       1.2000000000000000 [-]
	 SCS Same-Spin Energy      =      -0.1170811895125208 [Eh]
	 SCS Opposite-Spin Energy  =      -1.3193664379736327 [Eh]
	 SCS Correlation Energy    =      -1.4364476274861535 [Eh]
	 SCS Total Energy          =    -543.5161493342883432 [Eh]
	-----------------------------------------------------------

*** Psi4 exiting successfully. Buy a developer a beer!
