                               Psi4 1.8.2 release

  ==> Input File <==

--------------------------------------------------------------------------
MEMORY 60 GB

molecule dimer {
0 1
Gh(Na)     0.000000     0.000000     0.000000
Gh(O)     -0.897532    -2.178500     0.017525
Gh(H)     -1.843403    -2.189920     0.149337
Gh(H)     -0.582756    -2.774658     0.713365
O          1.591836     0.043402     2.008514
H          1.716990     0.920967     2.376036
H          1.411828    -0.601746     2.676202
Gh(O)     -1.189951     0.486911    -1.920717
Gh(H)     -1.068420     0.988809    -2.658257
Gh(H)     -2.180180     0.605188    -1.812331
Gh(O)     -0.608989     2.168295     1.082772
Gh(H)     -1.262092     2.080125     1.733612
Gh(H)     -0.903001     2.839890     0.429345
Gh(O)      1.897515     0.031709    -1.711733
Gh(H)      2.558639     0.731250    -1.645906
Gh(H)      1.496705     0.148755    -2.522837

units ang
no_reorient
no_com
symmetry c1
}

set {
basis        aug-cc-pVTZ
scf_type     df
}

energy("mp2")
--------------------------------------------------------------------------

    Molecular point group: c1

    Geometry (in Angstrom), charge = 0, multiplicity = 1:

       Center              X                  Y                   Z               Mass
    ------------   -----------------  -----------------  -----------------  -----------------
      Gh(NA)          0.000000000000     0.000000000000     0.000000000000    22.989769282000
      Gh(O)          -0.897532000000    -2.178500000000     0.017525000000    15.994914619570
      Gh(H)          -1.843403000000    -2.189920000000     0.149337000000     1.007825032230
      Gh(H)          -0.582756000000    -2.774658000000     0.713365000000     1.007825032230
         O            1.591836000000     0.043402000000     2.008514000000    15.994914619570
         H            1.716990000000     0.920967000000     2.376036000000     1.007825032230
         H            1.411828000000    -0.601746000000     2.676202000000     1.007825032230
      Gh(O)          -1.189951000000     0.486911000000    -1.920717000000    15.994914619570
      Gh(H)          -1.068420000000     0.988809000000    -2.658257000000     1.007825032230
      Gh(H)          -2.180180000000     0.605188000000    -1.812331000000     1.007825032230
      Gh(O)          -0.608989000000     2.168295000000     1.082772000000    15.994914619570
      Gh(H)          -1.262092000000     2.080125000000     1.733612000000     1.007825032230
      Gh(H)          -0.903001000000     2.839890000000     0.429345000000     1.007825032230
      Gh(O)           1.897515000000     0.031709000000    -1.711733000000    15.994914619570
      Gh(H)           2.558639000000     0.731250000000    -1.645906000000     1.007825032230
      Gh(H)           1.496705000000     0.148755000000    -2.522837000000     1.007825032230

  Charge       = 0
  Multiplicity = 1
  Basis Set: AUG-CC-PVTZ
    Blend: AUG-CC-PVTZ
  Basis Set: (AUG-CC-PVTZ AUX)
    Blend: AUG-CC-PVTZ-JKFIT + DEF2-UNIVERSAL-JKFIT

    Orbital Energies [Eh]
    ---------------------

    Doubly Occupied:

       1A    -20.562664     2A     -1.350502     3A     -0.734601
       4A     -0.570756     5A     -0.508410

  @DF-RHF Final Energy:   -76.05990638077013

   => Energetics <=

    Nuclear Repulsion Energy =              9.2224428775279144
    One-Electron Energy =                -123.1108293662526449
    Two-Electron Energy =                  37.8284801079545971
    Total Energy =                        -76.0599063807701441
 Dipole X            :        -30.0153151           29.9776817           -0.0376334
 Dipole Y            :         -1.1023659            1.2593834            0.1570175
 Dipole Z            :        -39.2038324           39.9116772            0.7078447
 Magnitude           :                                                    0.7260268
  Basis Set: (AUG-CC-PVTZ AUX)
    Blend: AUG-CC-PVTZ-RI + DEF2-QZVPP-RI
	 Reference Energy          =     -76.0599063807701299 [Eh]
	 Singles Energy            =      -0.0000000000000000 [Eh]
	 Same-Spin Energy          =      -0.0682414252765598 [Eh]
	 Opposite-Spin Energy      =      -0.2151292419526810 [Eh]
	 Correlation Energy        =      -0.2833706672292408 [Eh]
	 Total Energy              =     -76.3432770479993650 [Eh]

	 ================> DF-SCS-MP2 Energies <==================
	-----------------------------------------------------------
	 SCS Same-Spin Scale       =       0.3333333333333333 [-]
	 SCS Opposite-Spin Scale   =       1.2000000000000000 [-]
	 SCS Same-Spin Energy      =      -0.0227471417588533 [Eh]
	 SCS Opposite-Spin Energy  =      -0.2581550903432172 [Eh]
	 SCS Correlation Energy    =      -0.2809022321020705 [Eh]
	 SCS Total Energy          =     -76.3408086128721948 [Eh]
	-----------------------------------------------------------

*** Psi4 exiting successfully. Buy a developer a beer!
