                               Psi4 1.8.2 release

  ==> Input File <==

--------------------------------------------------------------------------
MEMORY 60 GB

molecule dimer {
0 1
Gh(Na)     0.000000     0.000000     0.000000
Gh(O)     -1.748724     1.414062     0.874886
Gh(H)     -1.689945     2.308594     0.549541
Gh(H)     -2.361366     1.350837     1.632814
Gh(O)      0.302414     0.965556    -2.034213
Gh(H)     -0.601270     1.062348    -2.426937
Gh(H)      0.779372     0.758555    -2.825749
O          1.437561    -1.515632     0.722924
H          2.205461    -0.891894     0.700578
H          1.302992    -1.600284     1.634306
Gh(O)      1.297210     1.818155     1.214323
Gh(H)      1.433743     2.095204     2.181625
Gh(H)      2.169762     1.506935     0.937370
Gh(O)     -1.726322    -1.655173    -0.241891
Gh(H)     -2.216976    -1.775963     0.645435
Gh(H)     -1.679070    -2.537642    -0.673875

units ang
no_reorient
no_com
symmetry c1
}

set {
basis        aug-cc-pVTZ
scf_type     df
}

energy("mp2")
--------------------------------------------------------------------------

    Molecular point group: c1

    Geometry (in Angstrom), charge = 0, multiplicity = 1:

       Center              X                  Y                   Z               Mass
    ------------   -----------------  -----------------  -----------------  -----------------
      Gh(NA)          0.000000000000     0.000000000000     0.000000000000    22.989769282000
      Gh(O)          -1.748724000000     1.414062000000     0.874886000000    15.994914619570
      Gh(H)          -1.689945000000     2.308594000000     0.549541000000     1.007825032230
      Gh(H)          -2.361366000000     1.350837000000     1.632814000000     1.007825032230
      Gh(O)           0.302414000000     0.965556000000    -2.034213000000    15.994914619570
      Gh(H)          -0.601270000000     1.062348000000    -2.426937000000     1.007825032230
      Gh(H)           0.779372000000     0.758555000000    -2.825749000000     1.007825032230
         O            1.437561000000    -1.515632000000     0.722924000000    15.994914619570
         H            2.205461000000    -0.891894000000     0.700578000000     1.007825032230
         H            1.302992000000    -1.600284000000     1.634306000000     1.007825032230
      Gh(O)           1.297210000000     1.818155000000     1.214323000000    15.994914619570
      Gh(H)           1.433743000000     2.095204000000     2.181625000000     1.007825032230
      Gh(H)           2.169762000000     1.506935000000     0.937370000000     1.007825032230
      Gh(O)          -1.726322000000    -1.655173000000    -0.241891000000    15.994914619570
      Gh(H)          -2.216976000000    -1.775963000000     0.645435000000     1.007825032230
      Gh(H)          -1.679070000000    -2.537642000000    -0.673875000000     1.007825032230

  Charge       = 0
  Multiplicity = 1
  Basis Set: AUG-CC-PVTZ
    Blend: AUG-CC-PVTZ
  Basis Set: (AUG-CC-PVTZ AUX)
    Blend: AUG-CC-PVTZ-JKFIT + DEF2-UNIVERSAL-JKFIT

    Orbital Energies [Eh]
    ---------------------

    Doubly Occupied:

       1A    -20.568218     2A     -1.356926     3A     -0.711303
       4A     -0.591096     5A     -0.511385

  @DF-RHF Final Energy:   -76.05810579279245

   => Energetics <=

    Nuclear Repulsion Energy =              9.2117959054441449
    One-Electron Energy =                -123.0619432107116467
    Two-Electron Energy =                  37.7920415124750448
    Total Energy =                        -76.0581057927924462
 Dipole X            :        -27.9527819           28.3627879            0.4100060
 Dipole Y            :         27.9716305          -27.6225690            0.3490615
 Dipole Z            :        -14.7477550           15.3413183            0.5935633
 Magnitude           :                                                    0.8014151
  Basis Set: (AUG-CC-PVTZ AUX)
    Blend: AUG-CC-PVTZ-RI + DEF2-QZVPP-RI
	 Reference Energy          =     -76.0581057927924462 [Eh]
	 Singles Energy            =      -0.0000000000000000 [Eh]
	 Same-Spin Energy          =      -0.0684937750116120 [Eh]
	 Opposite-Spin Energy      =      -0.2162326059219022 [Eh]
	 Correlation Energy        =      -0.2847263809335142 [Eh]
	 Total Energy              =     -76.3428321737259665 [Eh]

	 ================> DF-SCS-MP2 Energies <==================
	-----------------------------------------------------------
	 SCS Same-Spin Scale       =       0.3333333333333333 [-]
	 SCS Opposite-Spin Scale   =       1.2000000000000000 [-]
	 SCS Same-Spin Energy      =      -0.0228312583372040 [Eh]
	 SCS Opposite-Spin Energy  =      -0.2594791271062827 [Eh]
	 SCS Correlation Energy    =      -0.2823103854434867 [Eh]
	 SCS Total Energy          =     -76.3404161782359267 [Eh]
	-----------------------------------------------------------

*** Psi4 exiting successfully. Buy a developer a beer!
