                               Psi4 1.9 release

  ==> Input File <==

--------------------------------------------------------------------------
MEMORY 60 GB

molecule dimer {
1 1
Na     0.000000     0.000000     0.000000
--
0 1
O     -0.661700    -0.413389    -2.363281
H     -0.455933    -1.315712    -2.553822
H     -1.637257    -0.376380    -2.237891
O      0.544728    -1.118350     1.977274
H      0.744353    -0.833495     2.905568
H      1.400723    -1.370952     1.498188
O      1.757489    -1.534201    -0.881471
H      1.958724    -2.447531    -1.193130
H      2.491303    -0.876661    -1.093475
O      1.321666     1.801539     0.627374
H      2.276903     1.670009     0.616582
H      1.141935     2.724683     0.842806
O     -2.390327    -0.322307     0.707325
H     -3.122651     0.080379     0.219370
H     -2.401244     0.084327     1.563290

units ang
no_reorient
no_com
symmetry c1
}

set {
basis        aug-cc-pVTZ
scf_type     df
}

energy("mp2", bsse_type="cp")
--------------------------------------------------------------------------

                               Psi4 1.9 release
    Molecular point group: c1
  Charge       = 0
  Multiplicity = 1
  Basis Set: AUG-CC-PVTZ
    Blend: AUG-CC-PVTZ
  Basis Set: (AUG-CC-PVTZ AUX)
    Blend: AUG-CC-PVTZ-JKFIT + DEF2-UNIVERSAL-JKFIT
  @DF-RHF Final Energy:  -380.27186330517475
    Total Energy =                       -380.2718633051747474
 Dipole X            :        -12.3311405           13.1746112            0.8434707
 Dipole Y            :         29.3661831          -29.0167390            0.3494441
 Dipole Z            :         -1.8526080            2.0886274            0.2360193
 Magnitude           :                                                    0.9430054
  Basis Set: (AUG-CC-PVTZ AUX)
    Blend: AUG-CC-PVTZ-RI + DEF2-QZVPP-RI
	 Reference Energy          =    -380.2718633051747474 [Eh]
	 Singles Energy            =      -0.0000000000000000 [Eh]
	 Same-Spin Energy          =      -0.3466095396465688 [Eh]
	 Opposite-Spin Energy      =      -1.0875233761031180 [Eh]
	 Correlation Energy        =      -1.4341329157496867 [Eh]
	 Total Energy              =    -381.7059962209244190 [Eh]
	 SCS Total Energy          =    -381.6924278697140380 [Eh]
                               Psi4 1.9 release
    Molecular point group: c1
  Multiplicity = 1
  Basis Set: AUG-CC-PVTZ
    Blend: AUG-CC-PVTZ
  Basis Set: (AUG-CC-PVTZ AUX)
    Blend: AUG-CC-PVTZ-JKFIT + DEF2-UNIVERSAL-JKFIT
  @DF-RHF Final Energy:  -161.67609111822728
    Total Energy =                       -161.6760911182273048
  Basis Set: (AUG-CC-PVTZ AUX)
	 Singles Energy            =      -0.0000000000000000 [Eh]
	 Same-Spin Energy          =      -0.0055876414561164 [Eh]
	 Opposite-Spin Energy      =      -0.0175091421846258 [Eh]
	 Correlation Energy        =      -0.0230967836407422 [Eh]
	 Total Energy              =    -161.6991879018680152 [Eh]
	 SCS Total Energy          =    -161.6989646360008521 [Eh]
                               Psi4 1.9 release
    Molecular point group: c1

    Geometry (in Bohr), charge = 1, multiplicity = 1:

       Center              X                  Y                   Z               Mass
    ------------   -----------------  -----------------  -----------------  -----------------
         NA           0.000000000000     0.000000000000     0.000000000000    22.989769282000
         O           -1.250431777215    -0.781191993277    -4.465953847498    15.994914619570
         H           -0.861588501558    -2.486335339978    -4.826024153169     1.007825032230
         H           -3.093967326989    -0.711255119100    -4.229001088627     1.007825032230
         O            1.029386732868    -2.113375212406     3.736506334989    15.994914619570
         H            1.406623310663    -1.575077276938     5.490727758894     1.007825032230
         H            2.646982847630    -2.590723811149     2.831165004447     1.007825032230
         O            3.321172878505    -2.899219711404    -1.665738777533    15.994914619570
         H            3.701451915361    -4.625163273568    -2.254688932067     1.007825032230
         H            4.707880365531    -1.656649194870    -2.066368275035     1.007825032230
         O            2.497586769329     3.404415314331     1.185565038233    15.994914619570
         H            4.302723084233     3.155859637050     1.165171113887     1.007825032230
         H            2.157944403075     5.148904648691     1.592672516893     1.007825032230
         O           -4.517063380287    -0.609071958318     1.336650531689    15.994914619570
         H           -5.900955175387     0.151894296238     0.414549220142     1.007825032230
         H           -4.537693520399     0.159354934981     2.954189954667     1.007825032230

  Charge       = 1
  Multiplicity = 1
  Basis Set: AUG-CC-PVTZ
    Blend: AUG-CC-PVTZ
  Basis Set: (AUG-CC-PVTZ AUX)
    Blend: AUG-CC-PVTZ-JKFIT + DEF2-UNIVERSAL-JKFIT

    Orbital Energies [Eh]
    ---------------------

    Doubly Occupied:

       1A    -40.564471     2A    -20.737903     3A    -20.734601
       4A    -20.716892     5A    -20.716033     6A    -20.711321
       7A     -2.886043     8A     -1.611320     9A     -1.610631
      10A     -1.609791    11A     -1.518244    12A     -1.504641
      13A     -1.501554    14A     -1.494757    15A     -1.477096
      16A     -0.892636    17A     -0.881736    18A     -0.871193
      19A     -0.861724    20A     -0.854279    21A     -0.762695
      22A     -0.743870    23A     -0.741996    24A     -0.729755
      25A     -0.719297    26A     -0.683746    27A     -0.679759
      28A     -0.666576    29A     -0.656199    30A     -0.654945

  @DF-RHF Final Energy:  -542.07970170729607

   => Energetics <=

    Nuclear Repulsion Energy =            299.8923420215272699
    One-Electron Energy =               -1342.3526691343188304
    Two-Electron Energy =                 500.3806254054955502
    Total Energy =                       -542.0797017072961808
 Dipole X            :        -12.2171084           13.1746112            0.9575028
 Dipole Y            :         29.2383102          -29.0167390            0.2215712
 Dipole Z            :         -1.7855532            2.0886274            0.3030742
 Magnitude           :                                                    1.0284743
  Basis Set: (AUG-CC-PVTZ AUX)
    Blend: AUG-CC-PVTZ-RI + DEF2-QZVPP-RI
	 Reference Energy          =    -542.0797017072960671 [Eh]
	 Singles Energy            =      -0.0000000000000000 [Eh]
	 Same-Spin Energy          =      -0.3512435685375531 [Eh]
	 Opposite-Spin Energy      =      -1.0994720316443978 [Eh]
	 Correlation Energy        =      -1.4507156001819510 [Eh]
	 Total Energy              =    -543.5304173074780465 [Eh]

	 ================> DF-SCS-MP2 Energies <==================
	-----------------------------------------------------------
	 SCS Same-Spin Scale       =       0.3333333333333333 [-]
	 SCS Opposite-Spin Scale   =       1.2000000000000000 [-]
	 SCS Same-Spin Energy      =      -0.1170811895125177 [Eh]
	 SCS Opposite-Spin Energy  =      -1.3193664379732772 [Eh]
	 SCS Correlation Energy    =      -1.4364476274857949 [Eh]
	 SCS Total Energy          =    -543.5161493347818578 [Eh]
	-----------------------------------------------------------

*** Psi4 exiting successfully. Buy a developer a beer!
