                               Psi4 1.8.2 release

  ==> Input File <==

--------------------------------------------------------------------------
MEMORY 60 GB

molecule dimer {
1 1
Na         0.000000     0.000000     0.000000
O         -1.476289     1.000580    -1.680201
H         -1.347957     0.330310    -2.372440
H         -2.429876     1.119469    -1.591365
O          2.003211     0.161049    -1.174825
H          2.679153     0.338854    -0.470757
H          1.973185     0.976483    -1.680248
O         -0.163112     1.557536     1.551695
H          0.623683     2.047554     1.538014
H         -0.465897     1.324097     2.431350
O         -1.395492    -1.854519    -0.938929
H         -1.529696    -2.656867    -0.415875
H         -1.708751    -2.067533    -1.827479
O          1.140018    -1.255107     1.603180
H          2.012796    -1.642493     1.425109
H          1.148354    -1.258433     2.534760

units ang
no_reorient
no_com
symmetry c1
}

set {
basis        aug-cc-pVTZ
scf_type     df
}

energy("mp2")
--------------------------------------------------------------------------

    Molecular point group: c1

    Geometry (in Angstrom), charge = 1, multiplicity = 1:

       Center              X                  Y                   Z               Mass
    ------------   -----------------  -----------------  -----------------  -----------------
         NA           0.000000000000     0.000000000000     0.000000000000    22.989769282000
         O           -1.476289000000     1.000580000000    -1.680201000000    15.994914619570
         H           -1.347957000000     0.330310000000    -2.372440000000     1.007825032230
         H           -2.429876000000     1.119469000000    -1.591365000000     1.007825032230
         O            2.003211000000     0.161049000000    -1.174825000000    15.994914619570
         H            2.679153000000     0.338854000000    -0.470757000000     1.007825032230
         H            1.973185000000     0.976483000000    -1.680248000000     1.007825032230
         O           -0.163112000000     1.557536000000     1.551695000000    15.994914619570
         H            0.623683000000     2.047554000000     1.538014000000     1.007825032230
         H           -0.465897000000     1.324097000000     2.431350000000     1.007825032230
         O           -1.395492000000    -1.854519000000    -0.938929000000    15.994914619570
         H           -1.529696000000    -2.656867000000    -0.415875000000     1.007825032230
         H           -1.708751000000    -2.067533000000    -1.827479000000     1.007825032230
         O            1.140018000000    -1.255107000000     1.603180000000    15.994914619570
         H            2.012796000000    -1.642493000000     1.425109000000     1.007825032230
         H            1.148354000000    -1.258433000000     2.534760000000     1.007825032230

  Charge       = 1
  Multiplicity = 1
  Basis Set: AUG-CC-PVTZ
    Blend: AUG-CC-PVTZ
  Basis Set: (AUG-CC-PVTZ AUX)
    Blend: AUG-CC-PVTZ-JKFIT + DEF2-UNIVERSAL-JKFIT

    Orbital Energies [Eh]
    ---------------------

    Doubly Occupied:

       1A    -40.543881     2A    -20.730624     3A    -20.730417
       4A    -20.719954     5A    -20.716600     6A    -20.707741
       7A     -2.868284     8A     -1.594851     9A     -1.593708
      10A     -1.592965    11A     -1.526149    12A     -1.518083
      13A     -1.508161    14A     -1.499849    15A     -1.488712
      16A     -0.907668    17A     -0.879481    18A     -0.869017
      19A     -0.867441    20A     -0.854780    21A     -0.775835
      22A     -0.751020    23A     -0.745963    24A     -0.743802
      25A     -0.727295    26A     -0.690168    27A     -0.676565
      28A     -0.669540    29A     -0.664433    30A     -0.650443

  @DF-RHF Final Energy:  -542.08985788198629

   => Energetics <=

    Nuclear Repulsion Energy =            305.4532906152629153
    One-Electron Energy =               -1353.4594325173766265
    Two-Electron Energy =                 505.9162840201274776
    Total Energy =                       -542.0898578819862905
 Dipole X            :         -2.9309435            3.4424801            0.5115366
 Dipole Y            :          8.1896976           -8.7158837           -0.5261861
 Dipole Z            :         11.0911961          -10.4720515            0.6191446
 Magnitude           :                                                    0.9601467
  Basis Set: (AUG-CC-PVTZ AUX)
    Blend: AUG-CC-PVTZ-RI + DEF2-QZVPP-RI
	 Reference Energy          =    -542.0898578819862905 [Eh]
	 Singles Energy            =      -0.0000000000000000 [Eh]
	 Same-Spin Energy          =      -0.3504200557470835 [Eh]
	 Opposite-Spin Energy      =      -1.0969141058714089 [Eh]
	 Correlation Energy        =      -1.4473341616184925 [Eh]
	 Total Energy              =    -543.5371920436048185 [Eh]

	 ================> DF-SCS-MP2 Energies <==================
	-----------------------------------------------------------
	 SCS Same-Spin Scale       =       0.3333333333333333 [-]
	 SCS Opposite-Spin Scale   =       1.2000000000000000 [-]
	 SCS Same-Spin Energy      =      -0.1168066852490278 [Eh]
	 SCS Opposite-Spin Energy  =      -1.3162969270456906 [Eh]
	 SCS Correlation Energy    =      -1.4331036122947185 [Eh]
	 SCS Total Energy          =    -543.5229614942810485 [Eh]
	-----------------------------------------------------------

*** Psi4 exiting successfully. Buy a developer a beer!
