                               Psi4 1.8.2 release

  ==> Input File <==

--------------------------------------------------------------------------
MEMORY 60 GB

molecule dimer {
1 1
Na         0.000000     0.000000     0.000000
Gh(O)     -0.957217     2.122090    -0.761212
Gh(H)     -1.756905     1.952064    -0.198211
Gh(H)     -0.493506     2.945806    -0.576286
Gh(O)      0.133480    -1.128660     2.008379
Gh(H)      0.952107    -0.954206     2.471368
Gh(H)      0.032812    -2.050612     2.218947
Gh(O)      0.989929    -0.442935    -1.982346
Gh(H)      1.363465    -1.289649    -2.267338
Gh(H)      1.775598     0.121932    -1.899567
Gh(O)     -2.129823    -0.676424    -0.211748
Gh(H)     -2.343077    -0.516159    -1.166244
Gh(H)     -2.379667    -1.590251     0.046925
Gh(O)      2.120634     0.776730     0.226244
Gh(H)      2.587905    -0.008159     0.581668
Gh(H)      2.704948     1.475568     0.516434

units ang
no_reorient
no_com
symmetry c1
}

set {
basis        aug-cc-pVTZ
scf_type     df
}

energy("mp2")
--------------------------------------------------------------------------

    Molecular point group: c1

    Geometry (in Angstrom), charge = 1, multiplicity = 1:

       Center              X                  Y                   Z               Mass
    ------------   -----------------  -----------------  -----------------  -----------------
         NA           0.000000000000     0.000000000000     0.000000000000    22.989769282000
      Gh(O)          -0.957217000000     2.122090000000    -0.761212000000    15.994914619570
      Gh(H)          -1.756905000000     1.952064000000    -0.198211000000     1.007825032230
      Gh(H)          -0.493506000000     2.945806000000    -0.576286000000     1.007825032230
      Gh(O)           0.133480000000    -1.128660000000     2.008379000000    15.994914619570
      Gh(H)           0.952107000000    -0.954206000000     2.471368000000     1.007825032230
      Gh(H)           0.032812000000    -2.050612000000     2.218947000000     1.007825032230
      Gh(O)           0.989929000000    -0.442935000000    -1.982346000000    15.994914619570
      Gh(H)           1.363465000000    -1.289649000000    -2.267338000000     1.007825032230
      Gh(H)           1.775598000000     0.121932000000    -1.899567000000     1.007825032230
      Gh(O)          -2.129823000000    -0.676424000000    -0.211748000000    15.994914619570
      Gh(H)          -2.343077000000    -0.516159000000    -1.166244000000     1.007825032230
      Gh(H)          -2.379667000000    -1.590251000000     0.046925000000     1.007825032230
      Gh(O)           2.120634000000     0.776730000000     0.226244000000    15.994914619570
      Gh(H)           2.587905000000    -0.008159000000     0.581668000000     1.007825032230
      Gh(H)           2.704948000000     1.475568000000     0.516434000000     1.007825032230

  Charge       = 1
  Multiplicity = 1
  Basis Set: AUG-CC-PVTZ
    Blend: AUG-CC-PVTZ
  Basis Set: (AUG-CC-PVTZ AUX)
    Blend: AUG-CC-PVTZ-JKFIT + DEF2-UNIVERSAL-JKFIT

    Orbital Energies [Eh]
    ---------------------

    Doubly Occupied:

       1A    -40.760318     2A     -3.073754     3A     -1.797130
       4A     -1.797105     5A     -1.797072

  @DF-RHF Final Energy:  -161.67609480863860

   => Energetics <=

    Nuclear Repulsion Energy =              0.0000000000000000
    One-Electron Energy =                -224.9014319936924835
    Two-Electron Energy =                  63.2253371850538741
    Total Energy =                       -161.6760948086385952
 Dipole X            :         -0.0000439            0.0000000           -0.0000439
 Dipole Y            :          0.0000308            0.0000000            0.0000308
 Dipole Z            :          0.0001043            0.0000000            0.0001043
 Magnitude           :                                                    0.0001172
  Basis Set: (AUG-CC-PVTZ AUX)
    Blend: AUG-CC-PVTZ-RI + DEF2-QZVPP-RI
	 Reference Energy          =    -161.6760948086385952 [Eh]
	 Singles Energy            =      -0.0000000000000000 [Eh]
	 Same-Spin Energy          =      -0.0064802084885561 [Eh]
	 Opposite-Spin Energy      =      -0.0198492491627387 [Eh]
	 Correlation Energy        =      -0.0263294576512948 [Eh]
	 Total Energy              =    -161.7024242662898814 [Eh]

	 ================> DF-SCS-MP2 Energies <==================
	-----------------------------------------------------------
	 SCS Same-Spin Scale       =       0.3333333333333333 [-]
	 SCS Opposite-Spin Scale   =       1.2000000000000000 [-]
	 SCS Same-Spin Energy      =      -0.0021600694961854 [Eh]
	 SCS Opposite-Spin Energy  =      -0.0238190989952864 [Eh]
	 SCS Correlation Energy    =      -0.0259791684914718 [Eh]
	 SCS Total Energy          =    -161.7020739771300555 [Eh]
	-----------------------------------------------------------

*** Psi4 exiting successfully. Buy a developer a beer!
