                               Psi4 1.8.2 release

  ==> Input File <==

--------------------------------------------------------------------------
MEMORY 60 GB

molecule dimer {
1 1
Na         0.000000     0.000000     0.000000
O         -0.033562     0.651864    -2.283036
H          0.894796     0.893756    -2.460802
H         -0.574548     1.432965    -2.476385
O          2.159584    -0.736393     0.244526
H          2.484224    -0.797737    -0.668585
H          2.769476    -0.050577     0.618321
O          1.010079     1.997128     0.381980
H          1.335088     1.941477     1.298553
H          1.836526     2.246424    -0.124748
O         -0.693443    -2.201180    -0.087038
H         -1.384165    -2.200407     0.626177
H         -1.159158    -2.555826    -0.870984
O         -0.562174    -0.147253     2.221974
H          0.059516    -0.569628     2.892423
H         -0.988942     0.664075     2.631446
O         -2.540820     0.600282    -0.110639
H         -2.964940    -0.234719     0.142310
H         -2.996517     1.319936     0.377222

units ang
no_reorient
no_com
symmetry c1
}

set {
basis        aug-cc-pVTZ
scf_type     df
}

energy("mp2")
--------------------------------------------------------------------------

    Molecular point group: c1

    Geometry (in Angstrom), charge = 1, multiplicity = 1:

       Center              X                  Y                   Z               Mass
    ------------   -----------------  -----------------  -----------------  -----------------
         NA           0.000000000000     0.000000000000     0.000000000000    22.989769282000
         O           -0.033562000000     0.651864000000    -2.283036000000    15.994914619570
         H            0.894796000000     0.893756000000    -2.460802000000     1.007825032230
         H           -0.574548000000     1.432965000000    -2.476385000000     1.007825032230
         O            2.159584000000    -0.736393000000     0.244526000000    15.994914619570
         H            2.484224000000    -0.797737000000    -0.668585000000     1.007825032230
         H            2.769476000000    -0.050577000000     0.618321000000     1.007825032230
         O            1.010079000000     1.997128000000     0.381980000000    15.994914619570
         H            1.335088000000     1.941477000000     1.298553000000     1.007825032230
         H            1.836526000000     2.246424000000    -0.124748000000     1.007825032230
         O           -0.693443000000    -2.201180000000    -0.087038000000    15.994914619570
         H           -1.384165000000    -2.200407000000     0.626177000000     1.007825032230
         H           -1.159158000000    -2.555826000000    -0.870984000000     1.007825032230
         O           -0.562174000000    -0.147253000000     2.221974000000    15.994914619570
         H            0.059516000000    -0.569628000000     2.892423000000     1.007825032230
         H           -0.988942000000     0.664075000000     2.631446000000     1.007825032230
         O           -2.540820000000     0.600282000000    -0.110639000000    15.994914619570
         H           -2.964940000000    -0.234719000000     0.142310000000     1.007825032230
         H           -2.996517000000     1.319936000000     0.377222000000     1.007825032230

  Charge       = 1
  Multiplicity = 1
  Basis Set: AUG-CC-PVTZ
    Blend: AUG-CC-PVTZ
  Basis Set: (AUG-CC-PVTZ AUX)
    Blend: AUG-CC-PVTZ-JKFIT + DEF2-UNIVERSAL-JKFIT

    Orbital Energies [Eh]
    ---------------------

    Doubly Occupied:

       1A    -40.515799     2A    -20.734166     3A    -20.730046
       4A    -20.724001     5A    -20.710459     6A    -20.707564
       7A    -20.707531     8A     -2.842008     9A     -1.569523
      10A     -1.568371    11A     -1.567272    12A     -1.507410
      13A     -1.498866    14A     -1.490070    15A     -1.487862
      16A     -1.482851    17A     -1.478799    18A     -0.865727
      19A     -0.861049    20A     -0.858002    21A     -0.853790
      22A     -0.853427    23A     -0.840470    24A     -0.759701
      25A     -0.749370    26A     -0.738915    27A     -0.730323
      28A     -0.722726    29A     -0.719249    30A     -0.694677
      31A     -0.669840    32A     -0.657436    33A     -0.656085
      34A     -0.653877    35A     -0.647630

  @DF-RHF Final Energy:  -618.13916740054628

   => Energetics <=

    Nuclear Repulsion Energy =            414.5070228700695338
    One-Electron Energy =               -1675.5825870902951920
    Two-Electron Energy =                 642.9363968196794303
    Total Energy =                       -618.1391674005462846
 Dipole X            :         11.6157083          -11.2841821            0.3315262
 Dipole Y            :         -5.2743830            6.4351278            1.1607448
 Dipole Z            :         -8.4171432            9.3108394            0.8936961
 Magnitude           :                                                    1.5019757
  Basis Set: (AUG-CC-PVTZ AUX)
    Blend: AUG-CC-PVTZ-RI + DEF2-QZVPP-RI
	 Reference Energy          =    -618.1391674005462846 [Eh]
	 Singles Energy            =      -0.0000000000000000 [Eh]
	 Same-Spin Energy          =      -0.4250565216006388 [Eh]
	 Opposite-Spin Energy      =      -1.3269158929084552 [Eh]
	 Correlation Energy        =      -1.7519724145090940 [Eh]
	 Total Energy              =    -619.8911398150553396 [Eh]

	 ================> DF-SCS-MP2 Energies <==================
	-----------------------------------------------------------
	 SCS Same-Spin Scale       =       0.3333333333333333 [-]
	 SCS Opposite-Spin Scale   =       1.2000000000000000 [-]
	 SCS Same-Spin Energy      =      -0.1416855072002129 [Eh]
	 SCS Opposite-Spin Energy  =      -1.5922990714901462 [Eh]
	 SCS Correlation Energy    =      -1.7339845786903592 [Eh]
	 SCS Total Energy          =    -619.8731519792366953 [Eh]
	-----------------------------------------------------------

*** Psi4 exiting successfully. Buy a developer a beer!
