                               Psi4 1.8.2 release

  ==> Input File <==

--------------------------------------------------------------------------
MEMORY 60 GB

molecule dimer {
1 1
Na         0.000000     0.000000     0.000000
O         -1.892773     1.077634     1.090154
H         -1.602965     1.973592     1.238232
H         -1.975019     0.754811     1.992439
O          1.192296     1.455171     1.151359
H          1.688184     2.107167     0.722719
H          1.351737     1.611920     2.118416
O          0.911499     0.687294    -2.163820
H          0.543602     0.147142    -2.897860
H          1.861899     0.935014    -2.358198
O         -1.234329    -1.488967    -0.941371
H         -1.944835    -1.893957    -0.501962
H         -1.591545    -1.251163    -1.785640

units ang
no_reorient
no_com
symmetry c1
}

set {
basis        aug-cc-pVTZ
scf_type     df
}

energy("mp2")
--------------------------------------------------------------------------

    Molecular point group: c1

    Geometry (in Angstrom), charge = 1, multiplicity = 1:

       Center              X                  Y                   Z               Mass
    ------------   -----------------  -----------------  -----------------  -----------------
         NA           0.000000000000     0.000000000000     0.000000000000    22.989769282000
         O           -1.892773000000     1.077634000000     1.090154000000    15.994914619570
         H           -1.602965000000     1.973592000000     1.238232000000     1.007825032230
         H           -1.975019000000     0.754811000000     1.992439000000     1.007825032230
         O            1.192296000000     1.455171000000     1.151359000000    15.994914619570
         H            1.688184000000     2.107167000000     0.722719000000     1.007825032230
         H            1.351737000000     1.611920000000     2.118416000000     1.007825032230
         O            0.911499000000     0.687294000000    -2.163820000000    15.994914619570
         H            0.543602000000     0.147142000000    -2.897860000000     1.007825032230
         H            1.861899000000     0.935014000000    -2.358198000000     1.007825032230
         O           -1.234329000000    -1.488967000000    -0.941371000000    15.994914619570
         H           -1.944835000000    -1.893957000000    -0.501962000000     1.007825032230
         H           -1.591545000000    -1.251163000000    -1.785640000000     1.007825032230

  Charge       = 1
  Multiplicity = 1
  Basis Set: AUG-CC-PVTZ
    Blend: AUG-CC-PVTZ
  Basis Set: (AUG-CC-PVTZ AUX)
    Blend: AUG-CC-PVTZ-JKFIT + DEF2-UNIVERSAL-JKFIT

    Orbital Energies [Eh]
    ---------------------

    Doubly Occupied:

       1A    -40.566362     2A    -20.743004     3A    -20.732783
       4A    -20.732606     5A    -20.723341     6A     -2.891548
       7A     -1.620118     8A     -1.615984     9A     -1.615246
      10A     -1.538345    11A     -1.532913    12A     -1.513652
      13A     -1.498051    14A     -0.902051    15A     -0.897871
      16A     -0.873057    17A     -0.868097    18A     -0.785154
      19A     -0.777313    20A     -0.755306    21A     -0.742250
      22A     -0.697809    23A     -0.690388    24A     -0.673529
      25A     -0.669688

  @DF-RHF Final Energy:  -466.01655791473132

   => Energetics <=

    Nuclear Repulsion Energy =            219.2939684067402197
    One-Electron Energy =               -1077.3081143468248229
    Two-Electron Energy =                 391.9975880253533091
    Total Energy =                       -466.0165579147313224
 Dipole X            :         18.8161549          -18.6240031            0.1921518
 Dipole Y            :        -33.6611284           34.4564763            0.7953478
 Dipole Z            :         15.9194691          -15.8383200            0.0811491
 Magnitude           :                                                    0.8222443
  Basis Set: (AUG-CC-PVTZ AUX)
    Blend: AUG-CC-PVTZ-RI + DEF2-QZVPP-RI
	 Reference Energy          =    -466.0165579147313224 [Eh]
	 Singles Energy            =      -0.0000000000000000 [Eh]
	 Same-Spin Energy          =      -0.2798446476986309 [Eh]
	 Opposite-Spin Energy      =      -0.8774932435129406 [Eh]
	 Correlation Energy        =      -1.1573378912115715 [Eh]
	 Total Energy              =    -467.1738958059428910 [Eh]

	 ================> DF-SCS-MP2 Energies <==================
	-----------------------------------------------------------
	 SCS Same-Spin Scale       =       0.3333333333333333 [-]
	 SCS Opposite-Spin Scale   =       1.2000000000000000 [-]
	 SCS Same-Spin Energy      =      -0.0932815492328770 [Eh]
	 SCS Opposite-Spin Energy  =      -1.0529918922155286 [Eh]
	 SCS Correlation Energy    =      -1.1462734414484055 [Eh]
	 SCS Total Energy          =    -467.1628313561797086 [Eh]
	-----------------------------------------------------------

*** Psi4 exiting successfully. Buy a developer a beer!
