                               Psi4 1.8.2 release

  ==> Input File <==

--------------------------------------------------------------------------
MEMORY 60 GB

molecule dimer {
1 1
Na         0.000000     0.000000     0.000000
Gh(O)      1.436661     1.902962    -0.211771
Gh(H)      2.350805     1.847534     0.091780
Gh(H)      1.026974     2.533356     0.386801
Gh(O)     -1.323065    -1.521620    -1.098658
Gh(H)     -2.179765    -1.636529    -1.427199
Gh(H)     -0.814186    -2.298524    -1.350965
Gh(O)     -1.869489     1.230228     0.654969
Gh(H)     -2.527117     1.848262     0.238872
Gh(H)     -2.357574     0.443019     0.966796
Gh(O)      0.132845    -0.887295     1.960114
Gh(H)     -0.489936    -1.193447     2.627722
Gh(H)      0.980462    -1.159278     2.361285
Gh(O)      1.844118    -1.561191    -0.276992
Gh(H)      2.698911    -1.163388     0.115895
Gh(H)      1.690859    -2.432842     0.069830

units ang
no_reorient
no_com
symmetry c1
}

set {
basis        aug-cc-pVTZ
scf_type     df
}

energy("mp2")
--------------------------------------------------------------------------

    Molecular point group: c1

    Geometry (in Angstrom), charge = 1, multiplicity = 1:

       Center              X                  Y                   Z               Mass
    ------------   -----------------  -----------------  -----------------  -----------------
         NA           0.000000000000     0.000000000000     0.000000000000    22.989769282000
      Gh(O)           1.436661000000     1.902962000000    -0.211771000000    15.994914619570
      Gh(H)           2.350805000000     1.847534000000     0.091780000000     1.007825032230
      Gh(H)           1.026974000000     2.533356000000     0.386801000000     1.007825032230
      Gh(O)          -1.323065000000    -1.521620000000    -1.098658000000    15.994914619570
      Gh(H)          -2.179765000000    -1.636529000000    -1.427199000000     1.007825032230
      Gh(H)          -0.814186000000    -2.298524000000    -1.350965000000     1.007825032230
      Gh(O)          -1.869489000000     1.230228000000     0.654969000000    15.994914619570
      Gh(H)          -2.527117000000     1.848262000000     0.238872000000     1.007825032230
      Gh(H)          -2.357574000000     0.443019000000     0.966796000000     1.007825032230
      Gh(O)           0.132845000000    -0.887295000000     1.960114000000    15.994914619570
      Gh(H)          -0.489936000000    -1.193447000000     2.627722000000     1.007825032230
      Gh(H)           0.980462000000    -1.159278000000     2.361285000000     1.007825032230
      Gh(O)           1.844118000000    -1.561191000000    -0.276992000000    15.994914619570
      Gh(H)           2.698911000000    -1.163388000000     0.115895000000     1.007825032230
      Gh(H)           1.690859000000    -2.432842000000     0.069830000000     1.007825032230

  Charge       = 1
  Multiplicity = 1
  Basis Set: AUG-CC-PVTZ
    Blend: AUG-CC-PVTZ
  Basis Set: (AUG-CC-PVTZ AUX)
    Blend: AUG-CC-PVTZ-JKFIT + DEF2-UNIVERSAL-JKFIT

    Orbital Energies [Eh]
    ---------------------

    Doubly Occupied:

       1A    -40.760279     2A     -3.073747     3A     -1.797111
       4A     -1.797091     5A     -1.797084

  @DF-RHF Final Energy:  -161.67609423420126

   => Energetics <=

    Nuclear Repulsion Energy =              0.0000000000000000
    One-Electron Energy =                -224.9015646595911733
    Two-Electron Energy =                  63.2254704253899078
    Total Energy =                       -161.6760942342012584
 Dipole X            :         -0.0000473            0.0000000           -0.0000473
 Dipole Y            :          0.0000058            0.0000000            0.0000058
 Dipole Z            :         -0.0000216            0.0000000           -0.0000216
 Magnitude           :                                                    0.0000523
  Basis Set: (AUG-CC-PVTZ AUX)
    Blend: AUG-CC-PVTZ-RI + DEF2-QZVPP-RI
	 Reference Energy          =    -161.6760942342012584 [Eh]
	 Singles Energy            =      -0.0000000000000000 [Eh]
	 Same-Spin Energy          =      -0.0068724112450506 [Eh]
	 Opposite-Spin Energy      =      -0.0206979050290161 [Eh]
	 Correlation Energy        =      -0.0275703162740667 [Eh]
	 Total Energy              =    -161.7036645504753380 [Eh]

	 ================> DF-SCS-MP2 Energies <==================
	-----------------------------------------------------------
	 SCS Same-Spin Scale       =       0.3333333333333333 [-]
	 SCS Opposite-Spin Scale   =       1.2000000000000000 [-]
	 SCS Same-Spin Energy      =      -0.0022908037483502 [Eh]
	 SCS Opposite-Spin Energy  =      -0.0248374860348193 [Eh]
	 SCS Correlation Energy    =      -0.0271282897831695 [Eh]
	 SCS Total Energy          =    -161.7032225239844365 [Eh]
	-----------------------------------------------------------

*** Psi4 exiting successfully. Buy a developer a beer!
