                               Psi4 1.8.2 release

  ==> Input File <==

--------------------------------------------------------------------------
MEMORY 60 GB

molecule dimer {
0 1
Gh(Na)     0.000000     0.000000     0.000000
O         -2.147953     1.230804    -0.093503
H         -2.318329     0.383817    -0.571927
H         -2.658431     1.257994     0.763361
Gh(O)      2.051616    -1.053276     0.872783
Gh(H)      2.660167    -0.510539     1.345025
Gh(H)      1.963060    -1.818037     1.441353
Gh(O)     -0.595914    -2.448793    -0.109229
Gh(H)     -1.546233    -2.159324     0.026620
Gh(H)     -0.520204    -2.750060    -0.965962
Gh(O)      0.312160    -0.147696    -2.334927
Gh(H)      1.097607    -0.716514    -2.380416
Gh(H)      0.370388     0.519974    -3.036401
Gh(O)     -1.188602    -0.231517     2.310981
Gh(H)     -2.121229     0.121115     2.269242
Gh(H)     -1.269202    -1.128717     2.652519
Gh(O)      0.641094     2.197153     0.802216
Gh(H)      0.985102     2.733240     0.042057
Gh(H)     -0.201655     2.600602     0.994387

units ang
no_reorient
no_com
symmetry c1
}

set {
basis        aug-cc-pVTZ
scf_type     df
}

energy("mp2")
--------------------------------------------------------------------------

    Molecular point group: c1

    Geometry (in Angstrom), charge = 0, multiplicity = 1:

       Center              X                  Y                   Z               Mass
    ------------   -----------------  -----------------  -----------------  -----------------
      Gh(NA)          0.000000000000     0.000000000000     0.000000000000    22.989769282000
         O           -2.147953000000     1.230804000000    -0.093503000000    15.994914619570
         H           -2.318329000000     0.383817000000    -0.571927000000     1.007825032230
         H           -2.658431000000     1.257994000000     0.763361000000     1.007825032230
      Gh(O)           2.051616000000    -1.053276000000     0.872783000000    15.994914619570
      Gh(H)           2.660167000000    -0.510539000000     1.345025000000     1.007825032230
      Gh(H)           1.963060000000    -1.818037000000     1.441353000000     1.007825032230
      Gh(O)          -0.595914000000    -2.448793000000    -0.109229000000    15.994914619570
      Gh(H)          -1.546233000000    -2.159324000000     0.026620000000     1.007825032230
      Gh(H)          -0.520204000000    -2.750060000000    -0.965962000000     1.007825032230
      Gh(O)           0.312160000000    -0.147696000000    -2.334927000000    15.994914619570
      Gh(H)           1.097607000000    -0.716514000000    -2.380416000000     1.007825032230
      Gh(H)           0.370388000000     0.519974000000    -3.036401000000     1.007825032230
      Gh(O)          -1.188602000000    -0.231517000000     2.310981000000    15.994914619570
      Gh(H)          -2.121229000000     0.121115000000     2.269242000000     1.007825032230
      Gh(H)          -1.269202000000    -1.128717000000     2.652519000000     1.007825032230
      Gh(O)           0.641094000000     2.197153000000     0.802216000000    15.994914619570
      Gh(H)           0.985102000000     2.733240000000     0.042057000000     1.007825032230
      Gh(H)          -0.201655000000     2.600602000000     0.994387000000     1.007825032230

  Charge       = 0
  Multiplicity = 1
  Basis Set: AUG-CC-PVTZ
    Blend: AUG-CC-PVTZ
  Basis Set: (AUG-CC-PVTZ AUX)
    Blend: AUG-CC-PVTZ-JKFIT + DEF2-UNIVERSAL-JKFIT

    Orbital Energies [Eh]
    ---------------------

    Doubly Occupied:

       1A    -20.570082     2A     -1.331963     3A     -0.709152
       4A     -0.566493     5A     -0.505572

  @DF-RHF Final Energy:   -76.05521034820306

   => Energetics <=

    Nuclear Repulsion Energy =              8.8538487250460243
    One-Electron Energy =                -122.4515901661116288
    Two-Electron Energy =                  37.5425310928625464
    Total Energy =                        -76.0552103482030617
 Dipole X            :         41.4262039          -41.8770566           -0.4508527
 Dipole Y            :        -22.2534279           21.7096329           -0.5437950
 Dipole Z            :          1.3012500           -1.0518027            0.2494473
 Magnitude           :                                                    0.7491362
  Basis Set: (AUG-CC-PVTZ AUX)
    Blend: AUG-CC-PVTZ-RI + DEF2-QZVPP-RI
	 Reference Energy          =     -76.0552103482030617 [Eh]
	 Singles Energy            =      -0.0000000000000000 [Eh]
	 Same-Spin Energy          =      -0.0689754120501812 [Eh]
	 Opposite-Spin Energy      =      -0.2177331336124040 [Eh]
	 Correlation Energy        =      -0.2867085456625852 [Eh]
	 Total Energy              =     -76.3419188938656532 [Eh]

	 ================> DF-SCS-MP2 Energies <==================
	-----------------------------------------------------------
	 SCS Same-Spin Scale       =       0.3333333333333333 [-]
	 SCS Opposite-Spin Scale   =       1.2000000000000000 [-]
	 SCS Same-Spin Energy      =      -0.0229918040167271 [Eh]
	 SCS Opposite-Spin Energy  =      -0.2612797603348848 [Eh]
	 SCS Correlation Energy    =      -0.2842715643516119 [Eh]
	 SCS Total Energy          =     -76.3394819125546746 [Eh]
	-----------------------------------------------------------

*** Psi4 exiting successfully. Buy a developer a beer!
