                               Psi4 1.8.2 release

  ==> Input File <==

--------------------------------------------------------------------------
MEMORY 60 GB

molecule dimer {
0 1
Gh(Na)     0.000000     0.000000     0.000000
Gh(O)      0.209842    -0.922257     1.980819
Gh(H)     -0.293424    -1.759493     2.013630
Gh(H)      1.137281    -1.096220     2.303432
O         -0.913097     1.589898    -1.328350
H         -0.417774     2.414856    -1.349717
H         -1.803269     1.800960    -0.984765

units ang
no_reorient
no_com
symmetry c1
}

set {
basis        aug-cc-pVTZ
scf_type     df
}

energy("mp2")
--------------------------------------------------------------------------

    Molecular point group: c1

    Geometry (in Angstrom), charge = 0, multiplicity = 1:

       Center              X                  Y                   Z               Mass
    ------------   -----------------  -----------------  -----------------  -----------------
      Gh(NA)          0.000000000000     0.000000000000     0.000000000000    22.989769282000
      Gh(O)           0.209842000000    -0.922257000000     1.980819000000    15.994914619570
      Gh(H)          -0.293424000000    -1.759493000000     2.013630000000     1.007825032230
      Gh(H)           1.137281000000    -1.096220000000     2.303432000000     1.007825032230
         O           -0.913097000000     1.589898000000    -1.328350000000    15.994914619570
         H           -0.417774000000     2.414856000000    -1.349717000000     1.007825032230
         H           -1.803269000000     1.800960000000    -0.984765000000     1.007825032230

  Charge       = 0
  Multiplicity = 1
  Basis Set: AUG-CC-PVTZ
    Blend: AUG-CC-PVTZ
  Basis Set: (AUG-CC-PVTZ AUX)
    Blend: AUG-CC-PVTZ-JKFIT + DEF2-UNIVERSAL-JKFIT

    Orbital Energies [Eh]
    ---------------------

    Doubly Occupied:

       1A    -20.568093     2A     -1.345417     3A     -0.715410
       4A     -0.577696     5A     -0.508561

  @DF-RHF Final Energy:   -76.05942101727368

   => Energetics <=

    Nuclear Repulsion Energy =              9.0699648634732117
    One-Electron Energy =                -122.8284136211296982
    Two-Electron Energy =                  37.6990277403828031
    Total Energy =                        -76.0594210172736780
 Dipole X            :         17.7408185          -18.0011890           -0.2603705
 Dipole Y            :        -31.3130643           32.0025119            0.6894476
 Dipole Z            :         24.7065969          -24.4932732            0.2133237
 Magnitude           :                                                    0.7672273
  Basis Set: (AUG-CC-PVTZ AUX)
    Blend: AUG-CC-PVTZ-RI + DEF2-QZVPP-RI
	 Reference Energy          =     -76.0594210172736780 [Eh]
	 Singles Energy            =      -0.0000000000000000 [Eh]
	 Same-Spin Energy          =      -0.0685706432772107 [Eh]
	 Opposite-Spin Energy      =      -0.2161971503462339 [Eh]
	 Correlation Energy        =      -0.2847677936234446 [Eh]
	 Total Energy              =     -76.3441888108971227 [Eh]

	 ================> DF-SCS-MP2 Energies <==================
	-----------------------------------------------------------
	 SCS Same-Spin Scale       =       0.3333333333333333 [-]
	 SCS Opposite-Spin Scale   =       1.2000000000000000 [-]
	 SCS Same-Spin Energy      =      -0.0228568810924036 [Eh]
	 SCS Opposite-Spin Energy  =      -0.2594365804154807 [Eh]
	 SCS Correlation Energy    =      -0.2822934615078843 [Eh]
	 SCS Total Energy          =     -76.3417144787815687 [Eh]
	-----------------------------------------------------------

*** Psi4 exiting successfully. Buy a developer a beer!
