                               Psi4 1.8.2 release

  ==> Input File <==

--------------------------------------------------------------------------
MEMORY 60 GB

molecule dimer {
1 1
Na         0.000000     0.000000     0.000000
Gh(O)      0.897942     0.232779    -2.242681
Gh(H)      0.375770     0.945152    -2.637263
Gh(H)      1.742548     0.701814    -2.136948
Gh(O)     -0.526370    -2.247938    -0.113789
Gh(H)     -0.067939    -2.929889     0.403156
Gh(H)     -1.121253    -2.676460    -0.712395
Gh(O)      0.965071     2.227927    -0.066810
Gh(H)      1.977096     2.201242     0.110202
Gh(H)      0.828364     2.723446    -0.874262
Gh(O)     -0.282618     0.653366     2.269494
Gh(H)     -1.091358     0.346471     2.688083
Gh(H)      0.398640     0.607206     2.959686

units ang
no_reorient
no_com
symmetry c1
}

set {
basis        aug-cc-pVTZ
scf_type     df
}

energy("mp2")
--------------------------------------------------------------------------

    Molecular point group: c1

    Geometry (in Angstrom), charge = 1, multiplicity = 1:

       Center              X                  Y                   Z               Mass
    ------------   -----------------  -----------------  -----------------  -----------------
         NA           0.000000000000     0.000000000000     0.000000000000    22.989769282000
      Gh(O)           0.897942000000     0.232779000000    -2.242681000000    15.994914619570
      Gh(H)           0.375770000000     0.945152000000    -2.637263000000     1.007825032230
      Gh(H)           1.742548000000     0.701814000000    -2.136948000000     1.007825032230
      Gh(O)          -0.526370000000    -2.247938000000    -0.113789000000    15.994914619570
      Gh(H)          -0.067939000000    -2.929889000000     0.403156000000     1.007825032230
      Gh(H)          -1.121253000000    -2.676460000000    -0.712395000000     1.007825032230
      Gh(O)           0.965071000000     2.227927000000    -0.066810000000    15.994914619570
      Gh(H)           1.977096000000     2.201242000000     0.110202000000     1.007825032230
      Gh(H)           0.828364000000     2.723446000000    -0.874262000000     1.007825032230
      Gh(O)          -0.282618000000     0.653366000000     2.269494000000    15.994914619570
      Gh(H)          -1.091358000000     0.346471000000     2.688083000000     1.007825032230
      Gh(H)           0.398640000000     0.607206000000     2.959686000000     1.007825032230

  Charge       = 1
  Multiplicity = 1
  Basis Set: AUG-CC-PVTZ
    Blend: AUG-CC-PVTZ
  Basis Set: (AUG-CC-PVTZ AUX)
    Blend: AUG-CC-PVTZ-JKFIT + DEF2-UNIVERSAL-JKFIT

    Orbital Energies [Eh]
    ---------------------

    Doubly Occupied:

       1A    -40.760919     2A     -3.074024     3A     -1.797391
       4A     -1.797381     5A     -1.797233

  @DF-RHF Final Energy:  -161.67607920892081

   => Energetics <=

    Nuclear Repulsion Energy =              0.0000000000000000
    One-Electron Energy =                -224.8982618353373653
    Two-Electron Energy =                  63.2221826264165472
    Total Energy =                       -161.6760792089208110
 Dipole X            :          0.0001525            0.0000000            0.0001525
 Dipole Y            :          0.0001051            0.0000000            0.0001051
 Dipole Z            :         -0.0000511            0.0000000           -0.0000511
 Magnitude           :                                                    0.0001922
  Basis Set: (AUG-CC-PVTZ AUX)
    Blend: AUG-CC-PVTZ-RI + DEF2-QZVPP-RI
	 Reference Energy          =    -161.6760792089208110 [Eh]
	 Singles Energy            =      -0.0000000000000000 [Eh]
	 Same-Spin Energy          =      -0.0050154048314239 [Eh]
	 Opposite-Spin Energy      =      -0.0161480773608218 [Eh]
	 Correlation Energy        =      -0.0211634821922457 [Eh]
	 Total Energy              =    -161.6972426911130469 [Eh]

	 ================> DF-SCS-MP2 Energies <==================
	-----------------------------------------------------------
	 SCS Same-Spin Scale       =       0.3333333333333333 [-]
	 SCS Opposite-Spin Scale   =       1.2000000000000000 [-]
	 SCS Same-Spin Energy      =      -0.0016718016104746 [Eh]
	 SCS Opposite-Spin Energy  =      -0.0193776928329862 [Eh]
	 SCS Correlation Energy    =      -0.0210494944434608 [Eh]
	 SCS Total Energy          =    -161.6971287033642852 [Eh]
	-----------------------------------------------------------

*** Psi4 exiting successfully. Buy a developer a beer!
